INSANE! Membrane UpperLeaflet>loPI:POPI:DPPI:PYPI:ERGO=180.0:5.0:3.0:2.0:10.0 LowerLeaflet>PSPI:POPI:POPS:YOPS:POPE:YOPE:POPC:YOPC:ERGO=6.0:14.0:21.0:9.0:9.0:21.0:12.0:48.0:60.0
49348
    1loPI    C1    1  17.299   8.407   9.875  0.0293 -0.0748 -0.1219
    1loPI    C2    2  17.482   8.747   9.980 -0.1215 -0.0315  0.0035
    1loPI    C3    3  17.285   8.532  10.254 -0.1788 -0.1267 -0.1112
    1loPI   PO4    4  17.023   8.463   9.688 -0.1212  0.1283 -0.0247
    1loPI   GL1    5  16.939   8.505   9.234 -0.3553 -0.0383  0.1190
    1loPI   GL2    6  16.714   8.261   9.307  0.2374  0.0260 -0.1289
    1loPI   C1A    7  17.094   8.402   8.832  0.0370  0.1492 -0.1055
    1loPI   C2A    8  17.257   8.179   8.471  0.0359 -0.0362  0.3175
    1loPI   C3A    9  17.354   8.095   7.965  0.0666 -0.1175  0.4737
    1loPI   C4A   10  17.296   8.303   7.478 -0.0311 -0.0847 -0.2142
    1loPI   C5A   11  17.620   8.642   7.258  0.0004  0.0038 -0.2118
    1loPI   C6A   12  18.065   8.637   7.403 -0.0683 -0.1820 -0.0718
    1loPI   C1B   13  16.716   8.032   8.952  0.1278  0.1623  0.0252
    1loPI   C2B   14  16.719   8.039   8.462 -0.2168 -0.0047 -0.0097
    1loPI   C3B   15  16.843   8.062   8.133  0.0655  0.0946 -0.2730
    1loPI   C4B   16  16.913   8.098   7.700  0.0139 -0.1411 -0.4658
    2loPI    C1   17  14.678   9.503   9.886 -0.0621 -0.0281  0.0655
    2loPI    C2   18  14.644   9.890   9.983 -0.1256  0.0587 -0.2896
    2loPI    C3   19  14.478   9.610  10.215  0.2676  0.2124  0.1938
    2loPI   PO4   20  14.665   9.432   9.654 -0.0294  0.0506  0.0588
    2loPI   GL1   21  14.529   9.425   9.206  0.3714 -0.0059 -0.3017
    2loPI   GL2   22  14.826   9.211   9.191  0.1974 -0.2142  0.1871
    2loPI   C1A   23  14.359   9.555   8.769  0.2881 -0.2389  0.0314
    2loPI   C2A   24  14.410   9.518   8.238  0.1855  0.0090 -0.1246
    2loPI   C3A   25  14.664   9.535   7.782 -0.0846 -0.0926  0.0522
    2loPI   C4A   26  14.362   9.670   7.497  0.0459  0.2672 -0.0569
    2loPI   C5A   27  13.976   9.832   7.417  0.0922 -0.1059  0.0117
    2loPI   C6A   28  13.782   9.904   7.092  0.1748  0.1247  0.0114
    2loPI   C1B   29  14.747   9.148   8.745 -0.3249 -0.0106 -0.2725
    2loPI   C2B   30  14.580   9.032   8.351  0.0400 -0.1658 -0.1022
    2loPI   C3B   31  14.588   9.079   7.875 -0.1368 -0.0817  0.0641
    2loPI   C4B   32  14.503   9.172   7.455 -0.2221 -0.1267  0.1058
    3loPI    C1   33   7.890   3.429   9.917  0.1132  0.1396 -0.1063
    3loPI    C2   34   8.006   3.608  10.255  0.0850 -0.3054  0.1457
    3loPI    C3   35   7.663   3.402  10.245  0.1086 -0.3346 -0.1412
    3loPI   PO4   36   8.129   3.464   9.795 -0.0054 -0.0238  0.3907
    3loPI   GL1   37   8.212   3.420   9.389 -0.4382  0.1349  0.1825
    3loPI   GL2   38   8.368   3.717   9.213 -0.1447  0.2036  0.0209
    3loPI   C1A   39   8.268   3.199   9.123 -0.1621 -0.1512 -0.0932
    3loPI   C2A   40   8.331   3.311   8.659 -0.0301 -0.7193 -0.1639
    3loPI   C3A   41   8.093   3.563   8.344  0.0605  0.1432  0.2107
    3loPI   C4A   42   7.916   3.419   8.018  0.2974 -0.3406  0.1067
    3loPI   C5A   43   7.976   3.430   7.559 -0.0855 -0.2395  0.0230
    3loPI   C6A   44   8.232   3.598   7.259  0.0858  0.0690 -0.1375
    3loPI   C1B   45   8.311   3.880   8.744  0.1947 -0.0014  0.0552
    3loPI   C2B   46   8.037   4.061   8.484 -0.0112  0.1762 -0.1306
    3loPI   C3B   47   7.945   4.340   8.139  0.2551 -0.1682  0.0766
    3loPI   C4B   48   8.273   4.534   7.897 -0.3613  0.2562 -0.1241
    4loPI    C1   49  15.299  16.760   9.305 -0.0945  0.0410 -0.1557
    4loPI    C2   50  15.136  16.805   9.668  0.0103  0.1135 -0.1169
    4loPI    C3   51  15.514  16.680   9.633 -0.1071 -0.2279 -0.2108
    4loPI   PO4   52  15.058  16.884   9.094 -0.0737  0.0866  0.0735
    4loPI   GL1   53  15.048  17.191   8.755  0.0086 -0.1047  0.2725
    4loPI   GL2   54  14.860  17.084   8.576 -0.4996  0.2594 -0.1376
    4loPI   C1A   55  15.431  17.192   8.387  0.0169 -0.1148 -0.2052
    4loPI   C2A   56  15.366  17.358   8.004  0.1365 -0.0963 -0.4044
    4loPI   C3A   57  15.455  17.362   7.603  0.2173 -0.0512 -0.1714
    4loPI   C4A   58  15.494  17.428   7.151  0.2289  0.0156 -0.0357
    4loPI   C5A   59  15.602  17.557   6.761  0.1201 -0.0674 -0.0108
    4loPI   C6A   60  15.728  17.388   6.422 -0.2859  0.0423 -0.2949
    4loPI   C1B   61  14.979  16.998   8.103  0.0234 -0.1386 -0.1699
    4loPI   C2B   62  14.986  17.213   7.667 -0.0170  0.1889 -0.0626
    4loPI   C3B   63  15.094  17.113   7.271  0.0848  0.3803 -0.2863
    4loPI   C4B   64  15.075  17.384   6.931  0.2252 -0.0815  0.0440
    5loPI    C1   65  13.098   2.309   9.508  0.0578  0.1922  0.2099
    5loPI    C2   66  12.991   2.114   9.841  0.2076 -0.1761  0.0485
    5loPI    C3   67  13.337   2.314   9.829  0.2080 -0.1731  0.1099
    5loPI   PO4   68  12.868   2.368   9.390 -0.1639 -0.1603  0.3455
    5loPI   GL1   69  12.776   2.346   8.945  0.0029 -0.3643 -0.2493
    5loPI   GL2   70  12.792   2.064   9.030 -0.1421 -0.0717  0.0753
    5loPI   C1A   71  12.825   2.701   8.731 -0.0660 -0.3387  0.0940
    5loPI   C2A   72  12.710   2.823   8.254  0.0485 -0.0325 -0.0642
    5loPI   C3A   73  12.618   2.908   7.900 -0.1219  0.3386 -0.1013
    5loPI   C4A   74  12.593   3.330   7.694 -0.0136 -0.2642  0.3094
    5loPI   C5A   75  12.444   3.439   7.243  0.2377  0.0307  0.2321
    5loPI   C6A   76  12.077   3.543   7.015 -0.3676  0.3123  0.0844
    5loPI   C1B   77  12.788   1.892   8.657 -0.1381  0.0591  0.1858
    5loPI   C2B   78  12.835   1.929   8.213 -0.2143 -0.0167  0.1076
    5loPI   C3B   79  12.871   1.895   7.821  0.1599 -0.1583  0.3555
    5loPI   C4B   80  12.755   1.788   7.459  0.3873 -0.1401  0.0901
    6loPI    C1   81   8.954  12.995   9.896  0.1312 -0.0152  0.0562
    6loPI    C2   82   8.602  13.177   9.952  0.3102  0.3035  0.1712
    6loPI    C3   83   8.716  12.883  10.198 -0.1143 -0.1887 -0.1953
    6loPI   PO4   84   9.072  13.168   9.735 -0.2534  0.0530  0.1407
    6loPI   GL1   85   8.987  13.288   9.363  0.4229 -0.0893 -0.5294
    6loPI   GL2   86   9.079  13.039   9.232  0.0661  0.0192 -0.1779
    6loPI   C1A   87   8.664  13.278   9.023  0.0406 -0.0529  0.0794
    6loPI   C2A   88   8.595  13.090   8.687  0.0869 -0.1295 -0.0999
    6loPI   C3A   89   8.453  12.988   8.209  0.0038 -0.1463 -0.1389
    6loPI   C4A   90   8.528  13.118   7.731  0.0545 -0.3039  0.0343
    6loPI   C5A   91   8.380  12.996   7.260 -0.0235  0.0949 -0.4177
    6loPI   C6A   92   7.961  13.187   7.150 -0.1263  0.2710 -0.0975
    6loPI   C1B   93   9.070  13.026   8.732  0.0726 -0.0560 -0.1456
    6loPI   C2B   94   9.091  13.059   8.309  0.2468 -0.0726  0.1125
    6loPI   C3B   95   9.020  13.218   7.961 -0.1880 -0.2193  0.2457
    6loPI   C4B   96   9.012  13.040   7.542 -0.0836  0.2615 -0.5086
    7loPI    C1   97   2.351   2.069  10.293  0.0173  0.0384  0.0464
    7loPI    C2   98   2.239   1.992  10.669 -0.1263  0.2451  0.0473
    7loPI    C3   99   2.506   1.756  10.488 -0.3469 -0.0858  0.1448
    7loPI   PO4  100   2.107   2.164  10.166  0.3438  0.2943  0.0881
    7loPI   GL1  101   1.981   2.363   9.767 -0.1718 -0.0412  0.3434
    7loPI   GL2  102   1.943   2.732   9.787  0.2319  0.1681 -0.2279
    7loPI   C1A  103   1.840   2.278   9.376 -0.1741 -0.1250  0.0339
    7loPI   C2A  104   1.809   2.372   8.922  0.1262  0.2312 -0.3202
    7loPI   C3A  105   1.660   2.433   8.497  0.4794 -0.1755  0.1377
    7loPI   C4A  106   1.881   2.378   8.163 -0.2168 -0.1751 -0.0734
    7loPI   C5A  107   2.188   2.504   7.783 -0.1491 -0.4540 -0.0494
    7loPI   C6A  108   2.164   2.750   7.446  0.0881 -0.0044  0.2531
    7loPI   C1B  109   1.965   2.835   9.385 -0.3455  0.1210 -0.0260
    7loPI   C2B  110   1.987   2.849   8.853  0.2603  0.0416 -0.0514
    7loPI   C3B  111   2.124   3.166   8.544  0.0009  0.0104 -0.5119
    7loPI   C4B  112   2.020   3.448   8.167  0.2003 -0.4882  0.0357
    8loPI    C1  113  10.892  14.998   9.702  0.1129 -0.0691  0.1268
    8loPI    C2  114  11.048  15.190  10.016  0.1016  0.0609  0.0534
    8loPI    C3  115  10.791  14.890  10.074  0.1906  0.0065  0.1702
    8loPI   PO4  116  11.128  14.963   9.525 -0.1490 -0.0339 -0.0733
    8loPI   GL1  117  10.893  15.054   9.164 -0.2693  0.0012 -0.3950
    8loPI   GL2  118  10.940  14.743   9.064 -0.2144  0.2465  0.1200
    8loPI   C1A  119  11.021  15.229   8.720 -0.1299  0.1012 -0.1265
    8loPI   C2A  120  10.957  15.233   8.283  0.0507 -0.0278  0.0870
    8loPI   C3A  121  10.767  15.256   7.958  0.3397  0.0150  0.2975
    8loPI   C4A  122  10.629  15.366   7.637 -0.1094 -0.1270  0.3941
    8loPI   C5A  123  10.889  15.529   7.285  0.1687  0.1591  0.3997
    8loPI   C6A  124  11.218  15.828   7.143 -0.1740  0.2140  0.1797
    8loPI   C1B  125  11.039  14.526   8.740 -0.3729 -0.0860 -0.0207
    8loPI   C2B  126  11.238  14.424   8.237 -0.0667  0.0620 -0.2128
    8loPI   C3B  127  11.499  14.476   7.788 -0.3330  0.2435  0.1093
    8loPI   C4B  128  11.361  14.492   7.408 -0.1003  0.0362  0.0020
    9loPI    C1  129  14.429  10.521   9.521 -0.3136  0.1637  0.0996
    9loPI    C2  130  14.330  10.226   9.772 -0.2187  0.0060 -0.0455
    9loPI    C3  131  14.696  10.387   9.787 -0.2489  0.0723 -0.0104
    9loPI   PO4  132  14.409  10.499   9.289 -0.1148  0.1157 -0.2594
    9loPI   GL1  133  14.340  10.114   9.000  0.1295 -0.0525 -0.1878
    9loPI   GL2  134  14.402  10.310   8.868  0.1310 -0.1790  0.1887
    9loPI   C1A  135  14.313   9.970   8.516  0.1115 -0.2449  0.0995
    9loPI   C2A  136  14.672   9.912   8.156 -0.1410 -0.0664  0.3449
    9loPI   C3A  137  15.038   9.851   7.932 -0.1576  0.2915 -0.3955
    9loPI   C4A  138  15.441   9.632   7.750  0.1289  0.1587 -0.1497
    9loPI   C5A  139  15.842   9.486   7.574 -0.1143 -0.2176 -0.1928
    9loPI   C6A  140  16.336   9.229   7.390  0.5461 -0.3662 -0.4868
    9loPI   C1B  141  14.386  10.454   8.484  0.0018 -0.2266 -0.0396
    9loPI   C2B  142  14.365  10.303   8.111  0.1745 -0.2384  0.1049
    9loPI   C3B  143  14.268  10.079   7.808 -0.1480 -0.2204  0.1097
    9loPI   C4B  144  14.681  10.004   7.607 -0.2208  0.1503 -0.1278
   10loPI    C1  145  18.840  11.566   9.909 -0.0769  0.0060  0.3508
   10loPI    C2  146  19.218  11.488  10.012 -0.0050  0.2077  0.2451
   10loPI    C3  147  19.125  11.839   9.847 -0.2218  0.1190  0.1758
   10loPI   PO4  148  18.768  11.448   9.769  0.1743 -0.2755  0.1073
   10loPI   GL1  149  18.607  11.036   9.571 -0.2403 -0.1462 -0.3004
   10loPI   GL2  150  18.566  10.691   9.443 -0.1924 -0.1328 -0.1902
   10loPI   C1A  151  18.726  11.265   9.144 -0.4832 -0.0630 -0.3163
   10loPI   C2A  152  18.913  11.171   8.737  0.0880 -0.1996  0.0209
   10loPI   C3A  153  19.082  11.171   8.306  0.1520 -0.2817 -0.0361
   10loPI   C4A  154  19.241  11.380   7.973  0.2828 -0.1449 -0.2160
   10loPI   C5A  155  19.312  11.195   7.553 -0.2264 -0.1153 -0.1133
   10loPI   C6A  156  19.349  10.854   7.346  0.1999 -0.0556 -0.1760
   10loPI   C1B  157  18.640  10.542   9.218  0.0214 -0.1926 -0.0304
   10loPI   C2B  158  18.826  10.603   8.845  0.0864  0.1682 -0.1298
   10loPI   C3B  159  18.882  10.436   8.405 -0.1545 -0.2379  0.0863
   10loPI   C4B  160  18.698  10.360   8.018  0.0921  0.0143  0.2713
   11loPI    C1  161  15.749   3.190   9.246 -0.0155 -0.0695  0.0253
   11loPI    C2  162  15.374   3.063   9.190  0.0439 -0.1417 -0.2192
   11loPI    C3  163  15.484   3.209   9.545 -0.3070  0.1975 -0.2428
   11loPI   PO4  164  15.916   3.021   9.092  0.0850 -0.3212 -0.0179
   11loPI   GL1  165  16.055   2.976   8.700 -0.0086 -0.2443 -0.1705
   11loPI   GL2  166  15.691   3.017   8.649 -0.1507  0.1110 -0.0858
   11loPI   C1A  167  16.039   3.094   8.322  0.0755  0.3114  0.3132
   11loPI   C2A  168  16.260   2.982   8.031  0.3342 -0.4943  0.3587
   11loPI   C3A  169  16.176   2.914   7.581 -0.0122  0.0661 -0.0060
   11loPI   C4A  170  16.257   3.122   7.198 -0.0629 -0.0847 -0.1243
   11loPI   C5A  171  16.501   3.389   7.042 -0.0046  0.2268  0.3661
   11loPI   C6A  172  16.858   3.477   6.613 -0.0069  0.0110 -0.1180
   11loPI   C1B  173  15.435   2.995   8.280  0.0382 -0.1608  0.3379
   11loPI   C2B  174  15.689   3.058   7.939 -0.2067 -0.2693 -0.2749
   11loPI   C3B  175  15.703   3.189   7.477 -0.1756 -0.3050  0.1620
   11loPI   C4B  176  15.677   3.307   6.977 -0.0031  0.2016  0.0688
   12loPI    C1  177  10.962   1.672   9.213  0.1305 -0.0223 -0.0781
   12loPI    C2  178  10.879   1.631   9.602 -0.2672 -0.0309 -0.1603
   12loPI    C3  179  11.169   1.880   9.486  0.0014 -0.1906  0.1515
   12loPI   PO4  180  10.779   1.699   9.121  0.3481 -0.0186 -0.0422
   12loPI   GL1  181  10.656   1.724   8.725  0.1454 -0.0922  0.3874
   12loPI   GL2  182  10.898   1.442   8.647  0.2029  0.2517  0.1744
   12loPI   C1A  183  10.761   1.779   8.319 -0.0975  0.2357  0.1659
   12loPI   C2A  184  10.776   1.852   7.868  0.0481 -0.0848  0.0802
   12loPI   C3A  185  10.735   1.889   7.414  0.1599  0.2119 -0.0434
   12loPI   C4A  186  10.836   1.571   7.095  0.0420  0.1552  0.1070
   12loPI   C5A  187  10.721   1.186   6.882  0.0450  0.1961  0.3220
   12loPI   C6A  188  10.646   0.687   7.030  0.1717  0.1364 -0.3127
   12loPI   C1B  189  10.966   1.389   8.192 -0.2333 -0.2115 -0.0120
   12loPI   C2B  190  10.955   1.333   7.834 -0.1726  0.0454 -0.3840
   12loPI   C3B  191  10.742   1.368   7.595  0.4421  0.1287  0.0972
   12loPI   C4B  192  10.549   1.113   7.314 -0.0608 -0.1633  0.2656
   13loPI    C1  193   7.088   0.526   9.847  0.2920 -0.0272 -0.0636
   13loPI    C2  194   6.968   0.258  10.119  0.1563 -0.1412 -0.2335
   13loPI    C3  195   7.127   0.605  10.237  0.0696 -0.1761 -0.0088
   13loPI   PO4  196   7.171   0.266   9.610 -0.1364 -0.0009  0.1247
   13loPI   GL1  197   7.135   0.334   9.119 -0.3347  0.1649 -0.1062
   13loPI   GL2  198   7.041   0.644   9.014  0.0762  0.0390  0.0833
   13loPI   C1A  199   7.194   0.151   8.737 -0.0662  0.0418  0.0940
   13loPI   C2A  200   7.546  -0.128   8.569  0.0760 -0.2514 -0.1857
   13loPI   C3A  201   7.728  -0.342   8.261  0.3705 -0.1099 -0.1467
   13loPI   C4A  202   7.764  -0.158   7.898  0.1460  0.0808  0.1544
   13loPI   C5A  203   7.696  -0.130   7.437  0.2448  0.1795 -0.1777
   13loPI   C6A  204   7.860  -0.223   7.039  0.3087  0.1341  0.3652
   13loPI   C1B  205   6.861   0.542   8.647 -0.0203 -0.2046  0.0451
   13loPI   C2B  206   7.028   0.577   8.179 -0.0181  0.0038  0.2035
   13loPI   C3B  207   7.380   0.684   7.995  0.0489 -0.1370 -0.2421
   13loPI   C4B  208   7.672   0.758   7.741  0.0714  0.1839  0.0299
   14loPI    C1  209   5.458  10.119  10.317  0.0419  0.0839 -0.2003
   14loPI    C2  210   5.714  10.094  10.623  0.1370  0.0083 -0.2857
   14loPI    C3  211   5.387  10.322  10.655  0.0571 -0.1340 -0.0645
   14loPI   PO4  212   5.557  10.123  10.144 -0.0305  0.0496  0.1581
   14loPI   GL1  213   5.473  10.345   9.747 -0.4280 -0.1943  0.1004
   14loPI   GL2  214   5.210  10.106   9.776  0.1905 -0.2717  0.1704
   14loPI   C1A  215   5.704  10.155   9.352 -0.0761  0.3095  0.2804
   14loPI   C2A  216   5.556  10.142   8.982 -0.1486  0.1454 -0.0448
   14loPI   C3A  217   5.533   9.970   8.764 -0.1472  0.0641  0.1209
   14loPI   C4A  218   5.540  10.107   8.191  0.2350  0.0763 -0.3669
   14loPI   C5A  219   5.582  10.443   7.900 -0.5177 -0.0007 -0.0335
   14loPI   C6A  220   5.857  10.844   7.829 -0.0434  0.1756  0.2054
   14loPI   C1B  221   5.175  10.030   9.359  0.2412 -0.0377  0.2184
   14loPI   C2B  222   5.061  10.074   8.902  0.0191  0.1319 -0.1790
   14loPI   C3B  223   5.067  10.109   8.438  0.0216 -0.3355  0.1049
   14loPI   C4B  224   5.049  10.146   7.986 -0.0758 -0.1880  0.2077
   15loPI    C1  225  13.193   2.832   9.765 -0.0802  0.1010  0.0792
   15loPI    C2  226  12.915   3.000   9.999  0.0320 -0.0931  0.3573
   15loPI    C3  227  12.882   2.615   9.893 -0.1745  0.0680 -0.1989
   15loPI   PO4  228  13.273   2.911   9.572  0.1479  0.1682 -0.0749
   15loPI   GL1  229  13.283   3.265   9.236 -0.0063  0.3032 -0.2140
   15loPI   GL2  230  13.148   3.576   9.188 -0.0016  0.2368  0.1289
   15loPI   C1A  231  13.218   3.217   8.856  0.0480 -0.0541  0.0388
   15loPI   C2A  232  13.197   3.341   8.446 -0.0989 -0.0464  0.3967
   15loPI   C3A  233  12.926   3.273   8.072  0.1062 -0.0343  0.0134
   15loPI   C4A  234  13.116   3.382   7.685 -0.0129 -0.1707 -0.1009
   15loPI   C5A  235  12.912   3.502   7.293  0.0819 -0.1944 -0.3181
   15loPI   C6A  236  12.853   3.788   7.039 -0.1627 -0.1357 -0.0003
   15loPI   C1B  237  13.222   3.733   8.818  0.4389  0.0300  0.1365
   15loPI   C2B  238  13.273   3.937   8.449  0.1729  0.1575 -0.0238
   15loPI   C3B  239  13.264   3.973   8.011  0.1652 -0.1661  0.3521
   15loPI   C4B  240  13.228   3.834   7.497 -0.2508  0.1412 -0.1432
   16loPI    C1  241   7.769   2.594   9.353 -0.0922 -0.1787  0.0496
   16loPI    C2  242   7.704   2.600   9.748  0.0055 -0.3377  0.0689
   16loPI    C3  243   8.032   2.424   9.602  0.1355  0.0054 -0.0621
   16loPI   PO4  244   7.459   2.691   9.294 -0.1155 -0.1420 -0.0493
   16loPI   GL1  245   7.341   2.794   8.880 -0.0548  0.1421  0.3485
   16loPI   GL2  246   7.688   2.699   8.873  0.4989  0.3187  0.0591
   16loPI   C1A  247   7.288   2.830   8.351 -0.2636 -0.0559 -0.0194
   16loPI   C2A  248   7.105   2.957   7.941 -0.1507  0.0214 -0.1205
   16loPI   C3A  249   7.062   3.050   7.528  0.0369 -0.4000 -0.1307
   16loPI   C4A  250   7.229   3.325   7.344 -0.2797  0.0788  0.1262
   16loPI   C5A  251   7.591   3.543   7.253 -0.3269  0.0283 -0.0884
   16loPI   C6A  252   7.653   3.955   7.217 -0.1073  0.3792  0.0857
   16loPI   C1B  253   7.790   2.676   8.408 -0.3007  0.0590  0.0194
   16loPI   C2B  254   7.580   2.710   7.994 -0.1009 -0.0055  0.4178
   16loPI   C3B  255   7.486   2.781   7.540 -0.3503  0.0776 -0.2577
   16loPI   C4B  256   7.257   2.547   7.378  0.1993  0.1056 -0.0248
   17loPI    C1  257   7.485   5.952  10.118  0.0682  0.1532  0.0179
   17loPI    C2  258   7.682   6.284  10.224  0.1992  0.0482  0.1063
   17loPI    C3  259   7.591   6.008  10.500 -0.1056  0.1124  0.0732
   17loPI   PO4  260   7.590   5.715   9.886 -0.3733  0.3053 -0.2181
   17loPI   GL1  261   7.732   5.755   9.539  0.2805  0.0792 -0.2699
   17loPI   GL2  262   7.431   5.913   9.481 -0.3290 -0.2116 -0.1289
   17loPI   C1A  263   7.629   5.801   9.052  0.1507  0.0354  0.2103
   17loPI   C2A  264   7.641   5.807   8.581  0.0378 -0.3803 -0.0515
   17loPI   C3A  265   7.692   5.659   8.132  0.2572  0.0259  0.1255
   17loPI   C4A  266   7.674   5.247   7.863 -0.0524 -0.1211 -0.2430
   17loPI   C5A  267   7.266   5.135   7.824 -0.0376  0.0665  0.1567
   17loPI   C6A  268   6.982   4.802   7.877  0.1562  0.5522 -0.2577
   17loPI   C1B  269   7.046   6.039   9.161 -0.3176 -0.1786 -0.1151
   17loPI   C2B  270   6.913   6.216   8.747 -0.2837 -0.0410 -0.0445
   17loPI   C3B  271   6.980   6.262   8.376  0.1523  0.0899  0.1320
   17loPI   C4B  272   6.788   6.107   8.047  0.0197  0.3416  0.1711
   18loPI    C1  273   0.582  10.834   9.966 -0.2772 -0.0849  0.0330
   18loPI    C2  274   0.670  10.864   9.577 -0.0247  0.6802  0.1316
   18loPI    C3  275   0.956  10.768   9.840 -0.1588  0.3263  0.1543
   18loPI   PO4  276   0.337  10.638   9.965 -0.1633  0.2726 -0.0662
   18loPI   GL1  277   0.066  10.590   9.649  0.4584  0.3336  0.0441
   18loPI   GL2  278   0.190  10.253   9.615  0.5137  0.0935  0.0472
   18loPI   C1A  279   0.075  10.442   9.175 -0.1915 -0.1913  0.3420
   18loPI   C2A  280   0.010  10.367   8.764  0.0551 -0.0632  0.3971
   18loPI   C3A  281  -0.065  10.200   8.367  0.1378 -0.2343 -0.1262
   18loPI   C4A  282  -0.189  10.197   8.005 -0.1148 -0.1227  0.1015
   18loPI   C5A  283  -0.565  10.050   7.693 -0.2942 -0.0045 -0.1118
   18loPI   C6A  284  -0.896   9.990   7.563  0.1254  0.0139  0.3062
   18loPI   C1B  285   0.499  10.017   9.275  0.1116  0.1306  0.0868
   18loPI   C2B  286   0.508   9.675   9.017  0.1512  0.4827 -0.1748
   18loPI   C3B  287   0.519   9.539   8.710  0.1045 -0.1597 -0.2412
   18loPI   C4B  288   0.461   9.328   8.402  0.0231 -0.0541 -0.1672
   19loPI    C1  289  11.714  15.686  10.106 -0.1708  0.0940 -0.0506
   19loPI    C2  290  11.541  15.333  10.180 -0.1376  0.1162  0.1397
   19loPI    C3  291  11.925  15.391  10.274 -0.0714  0.1217 -0.1265
   19loPI   PO4  292  11.729  15.727   9.841 -0.0106 -0.0281 -0.2852
   19loPI   GL1  293  11.648  15.657   9.446 -0.1484  0.0081  0.0572
   19loPI   GL2  294  11.792  15.903   9.198  0.1172 -0.0163  0.1123
   19loPI   C1A  295  11.645  15.451   8.918 -0.0893  0.0030 -0.0495
   19loPI   C2A  296  11.524  15.367   8.501  0.0291  0.0171 -0.1529
   19loPI   C3A  297  11.649  15.291   8.102 -0.0249 -0.0106  0.2651
   19loPI   C4A  298  11.919  15.308   7.757  0.1134  0.1319  0.0569
   19loPI   C5A  299  12.061  14.982   7.482  0.1859 -0.2339  0.0120
   19loPI   C6A  300  11.899  14.576   7.407  0.1443 -0.0571 -0.4508
   19loPI   C1B  301  11.744  15.906   8.746  0.2819 -0.2995 -0.1193
   19loPI   C2B  302  11.743  15.875   8.332 -0.0334 -0.1588  0.0733
   19loPI   C3B  303  11.633  15.888   7.931  0.1011  0.3337  0.0287
   19loPI   C4B  304  11.546  15.728   7.524  0.0123  0.2789  0.3536
   20loPI    C1  305   6.027   1.201   9.543  0.0884 -0.0619 -0.1963
   20loPI    C2  306   6.287   1.461   9.699  0.0378 -0.0134 -0.1924
   20loPI    C3  307   6.392   1.078   9.651  0.0866 -0.0082 -0.1289
   20loPI   PO4  308   5.777   1.233   9.687 -0.0068  0.0556  0.0364
   20loPI   GL1  309   5.643   1.361   9.244  0.1401  0.1586  0.2418
   20loPI   GL2  310   5.480   1.123   9.345 -0.0233  0.3220 -0.1260
   20loPI   C1A  311   5.534   1.519   8.762 -0.5076  0.0234  0.0998
   20loPI   C2A  312   5.628   1.451   8.303  0.0301  0.2959 -0.4494
   20loPI   C3A  313   5.832   1.283   7.920 -0.1051  0.4063  0.1901
   20loPI   C4A  314   6.045   1.405   7.586 -0.1916 -0.1555  0.2440
   20loPI   C5A  315   6.286   1.172   7.163  0.0486  0.0001 -0.0197
   20loPI   C6A  316   6.115   1.113   6.768 -0.2481 -0.5042  0.5335
   20loPI   C1B  317   5.369   1.021   8.954 -0.0230  0.0004  0.2251
   20loPI   C2B  318   5.222   1.200   8.571 -0.2074 -0.0366  0.0234
   20loPI   C3B  319   5.223   1.118   8.228  0.0617  0.3124  0.1508
   20loPI   C4B  320   5.154   0.997   7.761  0.0179 -0.1518 -0.1728
   21loPI    C1  321  12.930   5.154   9.758 -0.0091  0.1877 -0.1027
   21loPI    C2  322  13.264   5.025   9.581 -0.1415  0.0307 -0.2409
   21loPI    C3  323  13.226   5.000   9.978  0.0145  0.0588 -0.2236
   21loPI   PO4  324  12.908   5.407   9.643  0.0252  0.0957 -0.0908
   21loPI   GL1  325  12.753   5.300   9.281  0.1118  0.0066  0.0352
   21loPI   GL2  326  12.602   5.544   9.216  0.1329  0.0812 -0.0498
   21loPI   C1A  327  12.867   5.386   8.819 -0.0777  0.0472 -0.3285
   21loPI   C2A  328  12.817   5.213   8.470 -0.2450 -0.1816  0.3837
   21loPI   C3A  329  12.649   5.223   8.115  0.0725  0.3667 -0.1919
   21loPI   C4A  330  12.448   5.362   7.753 -0.1797 -0.1677  0.2569
   21loPI   C5A  331  12.621   5.383   7.374  0.2832  0.0929  0.3180
   21loPI   C6A  332  12.432   5.430   6.891 -0.3712  0.1801 -0.1341
   21loPI   C1B  333  12.458   5.692   8.933 -0.0091  0.0364 -0.1555
   21loPI   C2B  334  12.155   5.898   8.686  0.2745  0.3318  0.1086
   21loPI   C3B  335  12.061   6.104   8.310  0.2346  0.0891 -0.5591
   21loPI   C4B  336  12.004   6.309   7.962  0.2282  0.0806  0.1075
   22loPI    C1  337   6.638  10.944  10.385 -0.0140 -0.1874 -0.1876
   22loPI    C2  338   7.018  11.062  10.424 -0.1509  0.2397 -0.0927
   22loPI    C3  339   6.839  10.864  10.721  0.0189 -0.0362 -0.1706
   22loPI   PO4  340   6.614  11.007  10.140 -0.0468 -0.1087  0.0442
   22loPI   GL1  341   6.547  11.371   9.903 -0.1793 -0.1374  0.2254
   22loPI   GL2  342   6.888  11.398   9.979 -0.2519 -0.1222  0.2848
   22loPI   C1A  343   6.612  11.350   9.571  0.5280 -0.1196 -0.2565
   22loPI   C2A  344   6.879  11.179   9.188 -0.1934 -0.2001 -0.2403
   22loPI   C3A  345   7.058  11.364   8.935 -0.0590 -0.0461  0.0957
   22loPI   C4A  346   6.915  11.563   8.545 -0.1082 -0.3824 -0.2828
   22loPI   C5A  347   6.788  11.828   8.306  0.1236 -0.4213 -0.0196
   22loPI   C6A  348   6.748  11.972   7.909 -0.5174  0.0751  0.0995
   22loPI   C1B  349   6.969  11.706   9.698  0.0634  0.2843 -0.0519
   22loPI   C2B  350   6.959  11.694   9.246  0.2882 -0.0032 -0.2144
   22loPI   C3B  351   6.931  11.947   8.900  0.0685  0.1784 -0.0078
   22loPI   C4B  352   7.145  11.983   8.566 -0.3340 -0.1603 -0.1973
   23loPI    C1  353   0.050  11.069   9.774 -0.0567 -0.0030  0.1229
   23loPI    C2  354  -0.253  11.225   9.567 -0.0760  0.3191  0.3856
   23loPI    C3  355  -0.324  10.949   9.847 -0.0528 -0.0949 -0.0044
   23loPI   PO4  356   0.227  11.142   9.738 -0.3172 -0.1116 -0.0647
   23loPI   GL1  357   0.427  11.231   9.352  0.4376 -0.2196  0.0713
   23loPI   GL2  358   0.284  10.873   9.277  0.1679 -0.2327 -0.0682
   23loPI   C1A  359   0.395  11.595   9.177  0.0380 -0.1126 -0.3884
   23loPI   C2A  360   0.555  11.712   8.717  0.2546 -0.2215  0.1639
   23loPI   C3A  361   0.783  11.842   8.353 -0.0410 -0.1217 -0.2399
   23loPI   C4A  362   0.867  11.784   7.874 -0.0229  0.1132  0.0202
   23loPI   C5A  363   0.936  11.516   7.517 -0.1084 -0.0161 -0.1494
   23loPI   C6A  364   0.971  11.346   7.178  0.0046  0.0052  0.2093
   23loPI   C1B  365   0.399  10.783   8.784  0.0269 -0.1372  0.1175
   23loPI   C2B  366   0.385  10.643   8.386  0.2190 -0.0093  0.1738
   23loPI   C3B  367   0.424  10.465   8.034 -0.0028 -0.0582 -0.0884
   23loPI   C4B  368   0.308  10.615   7.619 -0.1417  0.0573  0.1960
   24loPI    C1  369   0.695   4.633  10.707  0.2083 -0.0324  0.2669
   24loPI    C2  370   0.724   4.242  10.787  0.2722 -0.0364  0.2242
   24loPI    C3  371   0.585   4.492  11.065 -0.0254 -0.1264  0.1602
   24loPI   PO4  372   0.611   4.591  10.368  0.0108 -0.0775  0.0086
   24loPI   GL1  373   0.826   4.370   9.978  0.0211  0.3623  0.0291
   24loPI   GL2  374   0.882   4.084   9.897  0.0044  0.1475  0.0060
   24loPI   C1A  375   0.841   4.539   9.653  0.2347 -0.1165  0.2024
   24loPI   C2A  376   0.882   4.695   9.179 -0.3173  0.2023  0.1409
   24loPI   C3A  377   0.877   4.774   8.813  0.0289  0.1647 -0.0767
   24loPI   C4A  378   1.052   4.729   8.375  0.3100  0.0727  0.3832
   24loPI   C5A  379   0.891   4.936   7.944  0.2674 -0.0903  0.1456
   24loPI   C6A  380   0.864   5.305   7.845 -0.2286  0.2233 -0.0451
   24loPI   C1B  381   0.887   4.041   9.460 -0.0736  0.0323  0.1423
   24loPI   C2B  382   1.073   3.906   9.156  0.2333  0.0666 -0.0872
   24loPI   C3B  383   1.068   3.852   8.723 -0.2569 -0.1020 -0.0348
   24loPI   C4B  384   1.114   3.750   8.355  0.1852 -0.0087  0.0882
   25loPI    C1  385   9.983  11.463   9.671  0.1111 -0.1181  0.0981
   25loPI    C2  386   9.801  11.121   9.573  0.0116 -0.0531  0.0553
   25loPI    C3  387   9.980  11.158   9.929 -0.0195 -0.1331  0.0793
   25loPI   PO4  388  10.176  11.533   9.436 -0.1671 -0.3138 -0.0377
   25loPI   GL1  389  10.100  11.784   9.080  0.2202  0.1893  0.1277
   25loPI   GL2  390  10.486  11.776   9.041  0.0315  0.1018 -0.0631
   25loPI   C1A  391  10.062  12.039   8.697  0.3109 -0.1542 -0.1285
   25loPI   C2A  392   9.805  12.115   8.328 -0.0030  0.3750 -0.2188
   25loPI   C3A  393   9.508  12.080   7.935  0.2558 -0.0430 -0.0535
   25loPI   C4A  394   9.186  11.914   7.617 -0.0144 -0.1963  0.1089
   25loPI   C5A  395   9.038  11.625   7.426  0.1324 -0.2288  0.3596
   25loPI   C6A  396   8.612  11.590   7.517  0.3078  0.2625  0.1389
   25loPI   C1B  397  10.341  11.563   8.705  0.0276 -0.0326  0.2767
   25loPI   C2B  398  10.204  11.733   8.256 -0.2022  0.0013  0.4104
   25loPI   C3B  399  10.203  11.827   7.845  0.0661  0.1541  0.0202
   25loPI   C4B  400  10.123  11.952   7.432 -0.0567 -0.0227 -0.1019
   26loPI    C1  401  10.051  15.222   9.644  0.2161 -0.0521 -0.0892
   26loPI    C2  402   9.785  15.055   9.892  0.2185  0.0564 -0.0129
   26loPI    C3  403   9.939  15.414   9.977  0.0175  0.2162 -0.3066
   26loPI   PO4  404   9.950  15.190   9.390 -0.1282 -0.0857 -0.4801
   26loPI   GL1  405   9.894  15.164   8.954 -0.1690 -0.0450  0.1264
   26loPI   GL2  406   9.613  14.897   8.900 -0.3269 -0.0948  0.0659
   26loPI   C1A  407  10.060  14.976   8.543  0.0950 -0.4168 -0.0730
   26loPI   C2A  408  10.378  15.128   8.221  0.0321 -0.1850  0.0671
   26loPI   C3A  409  10.165  15.326   7.806 -0.0366  0.0834  0.0138
   26loPI   C4A  410  10.040  15.295   7.423 -0.0490 -0.0308  0.0484
   26loPI   C5A  411   9.895  15.177   7.000  0.0667  0.0702  0.1881
   26loPI   C6A  412  10.051  15.244   6.590 -0.1529  0.2613 -0.0259
   26loPI   C1B  413   9.563  14.859   8.457  0.2061 -0.1376  0.1441
   26loPI   C2B  414   9.872  14.842   8.124 -0.1533 -0.1099  0.0606
   26loPI   C3B  415   9.992  14.854   7.693  0.1968  0.2957 -0.0881
   26loPI   C4B  416   9.904  14.771   7.235 -0.1042 -0.1433  0.1634
   27loPI    C1  417   8.638  10.696   9.846  0.0072  0.5477 -0.1467
   27loPI    C2  418   8.591  10.858  10.208 -0.0845 -0.3694  0.2806
   27loPI    C3  419   8.942  10.698  10.105 -0.0314 -0.0346 -0.0842
   27loPI   PO4  420   8.490  10.750   9.637 -0.1635 -0.0002 -0.1514
   27loPI   GL1  421   8.440  10.500   9.421 -0.3094 -0.1873  0.0549
   27loPI   GL2  422   8.093  10.352   9.303  0.3025  0.3570 -0.0230
   27loPI   C1A  423   8.498  10.178   9.089 -0.1018  0.0799 -0.2885
   27loPI   C2A  424   8.474  10.147   8.641  0.2346 -0.2261 -0.3485
   27loPI   C3A  425   8.356  10.238   8.240  0.1457  0.3309  0.5160
   27loPI   C4A  426   8.406  10.094   7.717 -0.0124  0.0672  0.0443
   27loPI   C5A  427   8.261   9.962   7.380 -0.1395  0.0057  0.1297
   27loPI   C6A  428   8.409   9.694   7.047 -0.2239  0.1145  0.4717
   27loPI   C1B  429   8.067  10.355   8.841  0.1139  0.1583  0.2052
   27loPI   C2B  430   7.900  10.251   8.380 -0.1774 -0.0862  0.0223
   27loPI   C3B  431   7.787  10.100   7.921 -0.0705  0.0546  0.0137
   27loPI   C4B  432   7.786  10.114   7.483  0.1997  0.1783 -0.0249
   28loPI    C1  433  16.760  16.204   9.467  0.1752  0.3172 -0.3911
   28loPI    C2  434  16.395  16.344   9.549  0.1262 -0.0139 -0.0132
   28loPI    C3  435  16.690  16.388   9.816  0.1836 -0.3585 -0.0160
   28loPI   PO4  436  16.678  16.206   9.178 -0.3764  0.1228  0.0934
   28loPI   GL1  437  16.280  16.359   9.083  0.1245 -0.2130  0.2667
   28loPI   GL2  438  16.300  16.164   8.802 -0.5948 -0.0425  0.2299
   28loPI   C1A  439  16.226  16.635   8.654  0.2401 -0.0309 -0.0035
   28loPI   C2A  440  16.435  16.567   8.240 -0.0840 -0.0800 -0.0227
   28loPI   C3A  441  16.413  16.754   7.921  0.2860 -0.1282 -0.0147
   28loPI   C4A  442  16.507  16.675   7.622 -0.1167 -0.2243  0.1393
   28loPI   C5A  443  16.643  16.726   7.212  0.1636  0.3531  0.3915
   28loPI   C6A  444  16.387  17.004   7.058  0.2605 -0.1560  0.0669
   28loPI   C1B  445  16.120  16.159   8.338  0.2868 -0.0816 -0.2419
   28loPI   C2B  446  15.952  16.424   8.002  0.2975  0.2373  0.2116
   28loPI   C3B  447  16.017  16.580   7.600 -0.2655  0.2050 -0.4945
   28loPI   C4B  448  15.963  16.434   7.237  0.0493  0.0379  0.0014
   29loPI    C1  449   0.481  16.869   9.585  0.1424  0.2496 -0.0607
   29loPI    C2  450   0.641  16.688   9.266 -0.1164 -0.2432  0.0808
   29loPI    C3  451   0.863  16.750   9.592  0.0167 -0.1672 -0.0236
   29loPI   PO4  452   0.414  17.095   9.479  0.0268  0.1296  0.1282
   29loPI   GL1  453   0.436  17.326   9.076 -0.1141  0.1173  0.0515
   29loPI   GL2  454   0.096  17.369   8.782 -0.4144 -0.0027  0.0189
   29loPI   C1A  455   0.551  17.189   8.679  0.2031  0.1872 -0.0914
   29loPI   C2A  456   0.604  17.242   8.212 -0.2693 -0.1860 -0.0529
   29loPI   C3A  457   0.661  17.211   7.826  0.1767 -0.1666 -0.0122
   29loPI   C4A  458   0.690  17.378   7.396  0.0796 -0.1803 -0.0475
   29loPI   C5A  459   1.145  17.202   7.383 -0.1840  0.1013 -0.0844
   29loPI   C6A  460   1.507  17.098   7.094 -0.0585 -0.3890 -0.0806
   29loPI   C1B  461   0.090  17.310   8.326  0.2641  0.4130 -0.1177
   29loPI   C2B  462   0.107  17.389   7.850  0.0617 -0.0781 -0.2433
   29loPI   C3B  463   0.179  17.477   7.383 -0.2534  0.0911  0.0301
   29loPI   C4B  464   0.198  17.780   7.070 -0.2954 -0.1196 -0.1462
   30loPI    C1  465   1.018  12.082   9.928 -0.2345  0.0190 -0.2245
   30loPI    C2  466   1.302  12.282  10.127 -0.2754 -0.0090 -0.1374
   30loPI    C3  467   1.037  12.481   9.903 -0.3056  0.0331 -0.0646
   30loPI   PO4  468   1.074  11.910   9.813 -0.1833  0.2981 -0.0098
   30loPI   GL1  469   1.168  11.693   9.503  0.2999 -0.0822  0.4403
   30loPI   GL2  470   0.926  11.493   9.410 -0.2085 -0.0336  0.1722
   30loPI   C1A  471   1.303  11.485   9.138  0.1118  0.1790 -0.4998
   30loPI   C2A  472   1.396  11.309   8.796 -0.1021  0.0997  0.3108
   30loPI   C3A  473   1.299  11.105   8.503  0.2426 -0.0411 -0.1751
   30loPI   C4A  474   1.277  10.858   8.127 -0.1797 -0.3956 -0.0481
   30loPI   C5A  475   1.285  10.784   7.758  0.1097  0.1982  0.1865
   30loPI   C6A  476   1.069  10.914   7.381 -0.1194  0.2683  0.0532
   30loPI   C1B  477   0.816  11.335   8.999 -0.2604 -0.3063 -0.0104
   30loPI   C2B  478   0.781  11.295   8.529  0.0399  0.0506 -0.3692
   30loPI   C3B  479   0.936  11.337   8.167 -0.1268  0.2444  0.0459
   30loPI   C4B  480   0.910  11.127   7.801  0.1475 -0.0069 -0.2071
   31loPI    C1  481  14.281   6.916   9.634 -0.0563 -0.1307 -0.0268
   31loPI    C2  482  14.505   6.862   9.961 -0.0922 -0.0347  0.0141
   31loPI    C3  483  14.209   6.606   9.876 -0.1734  0.0188  0.1323
   31loPI   PO4  484  14.474   6.955   9.467  0.2373  0.0160 -0.1305
   31loPI   GL1  485  14.486   6.964   9.103 -0.2371 -0.0482 -0.0920
   31loPI   GL2  486  14.750   7.212   9.082 -0.0477  0.2866 -0.0675
   31loPI   C1A  487  14.536   6.891   8.680 -0.2069 -0.0933 -0.0434
   31loPI   C2A  488  14.492   6.881   8.219 -0.0196 -0.0883  0.1336
   31loPI   C3A  489  14.455   6.799   7.837  0.0657  0.0380  0.1519
   31loPI   C4A  490  14.656   6.869   7.482  0.2311 -0.2378 -0.0821
   31loPI   C5A  491  15.046   6.717   7.353  0.1466 -0.0113  0.0992
   31loPI   C6A  492  15.526   6.639   7.414  0.0032  0.1896 -0.0575
   31loPI   C1B  493  14.419   7.321   8.766  0.1880 -0.0602  0.1501
   31loPI   C2B  494  14.445   7.391   8.345  0.0911  0.0770 -0.6617
   31loPI   C3B  495  14.123   7.216   8.150 -0.2377 -0.0341  0.0223
   31loPI   C4B  496  13.808   7.022   8.331 -0.0311  0.2174 -0.1957
   32loPI    C1  497   7.742   1.865   9.963  0.0355 -0.0297 -0.0725
   32loPI    C2  498   7.749   1.589  10.253 -0.1768 -0.1167 -0.1479
   32loPI    C3  499   7.530   1.921  10.297 -0.3378 -0.2048 -0.2736
   32loPI   PO4  500   7.992   1.728   9.757 -0.1437  0.1695  0.1962
   32loPI   GL1  501   8.025   1.891   9.335 -0.4218 -0.4101  0.0989
   32loPI   GL2  502   7.983   2.208   9.131 -0.2293  0.0689  0.3363
   32loPI   C1A  503   8.255   1.875   8.886 -0.4035 -0.3659 -0.2443
   32loPI   C2A  504   8.369   1.970   8.401 -0.1066  0.0068 -0.2105
   32loPI   C3A  505   8.394   2.093   8.039  0.1490  0.0539  0.2079
   32loPI   C4A  506   8.145   2.058   7.669 -0.0026 -0.2775  0.1231
   32loPI   C5A  507   8.170   1.987   7.357 -0.1683  0.0376 -0.0974
   32loPI   C6A  508   8.082   1.745   6.972 -0.1858 -0.2782 -0.0731
   32loPI   C1B  509   8.018   2.248   8.643  0.0015  0.3149 -0.0682
   32loPI   C2B  510   7.911   2.202   8.291 -0.0280  0.0232  0.1264
   32loPI   C3B  511   7.722   2.141   7.898 -0.3403  0.1125 -0.1918
   32loPI   C4B  512   7.393   2.181   7.762  0.0579 -0.0286  0.0550
   33loPI    C1  513  12.929   3.767   9.571  0.1456 -0.2388  0.0970
   33loPI    C2  514  12.863   4.036   9.860  0.2494 -0.2098  0.0941
   33loPI    C3  515  13.205   4.044   9.653  0.0151  0.0185 -0.2984
   33loPI   PO4  516  12.685   3.737   9.366 -0.0460  0.0838  0.1222
   33loPI   GL1  517  12.676   3.936   8.943 -0.3626 -0.3449  0.0972
   33loPI   GL2  518  12.436   4.005   9.014 -0.0767  0.1011 -0.0778
   33loPI   C1A  519  12.790   4.147   8.582 -0.1704 -0.1237  0.1935
   33loPI   C2A  520  12.838   4.254   8.169 -0.1076  0.0601  0.4197
   33loPI   C3A  521  12.893   4.281   7.737 -0.2215  0.0569  0.3352
   33loPI   C4A  522  12.780   4.436   7.315 -0.1215  0.0796  0.1986
   33loPI   C5A  523  12.701   4.761   7.007 -0.0437  0.0618  0.0667
   33loPI   C6A  524  12.780   5.052   6.931  0.1442 -0.3211  0.2506
   33loPI   C1B  525  12.239   4.206   8.686  0.4134 -0.0138 -0.1203
   33loPI   C2B  526  12.160   4.394   8.361  0.1139 -0.0940  0.4470
   33loPI   C3B  527  12.026   4.507   7.968 -0.0167 -0.4135  0.0030
   33loPI   C4B  528  11.914   4.575   7.520 -0.0363 -0.1672 -0.1801
   34loPI    C1  529  12.463   3.237   9.720 -0.1698  0.0676  0.0162
   34loPI    C2  530  12.475   3.626   9.814  0.2993  0.1050 -0.1708
   34loPI    C3  531  12.538   3.350  10.096 -0.3379  0.1450  0.0276
   34loPI   PO4  532  12.446   3.226   9.470  0.1177 -0.0026 -0.0058
   34loPI   GL1  533  12.741   3.279   9.138 -0.2430  0.2421  0.0804
   34loPI   GL2  534  12.468   3.458   8.988  0.2155  0.0875 -0.1356
   34loPI   C1A  535  12.811   3.487   8.676 -0.0195 -0.1507  0.0531
   34loPI   C2A  536  12.826   3.716   8.335 -0.2748 -0.1985  0.1832
   34loPI   C3A  537  12.825   3.744   7.880  0.2302  0.0085  0.0104
   34loPI   C4A  538  12.556   3.833   7.474 -0.0264  0.1342 -0.0007
   34loPI   C5A  539  12.375   3.966   7.085  0.2646 -0.0789  0.3308
   34loPI   C6A  540  12.109   3.977   6.773  0.0307 -0.4401 -0.1557
   34loPI   C1B  541  12.359   3.721   8.635  0.3694  0.0659 -0.1333
   34loPI   C2B  542  12.428   3.951   8.257  0.0641 -0.2141  0.0630
   34loPI   C3B  543  12.356   4.171   7.970 -0.1237 -0.3574  0.1200
   34loPI   C4B  544  12.400   4.320   7.581  0.1407 -0.1279 -0.0290
   35loPI    C1  545  12.443  12.721   9.866  0.1710 -0.0056 -0.0372
   35loPI    C2  546  12.638  12.484   9.609 -0.1622 -0.2266 -0.0926
   35loPI    C3  547  12.269  12.613   9.523 -0.0881  0.0987  0.0589
   35loPI   PO4  548  12.653  12.966   9.929  0.0490 -0.2964  0.2030
   35loPI   GL1  549  12.763  13.296   9.544 -0.0633  0.0042  0.1005
   35loPI   GL2  550  12.743  12.952   9.453 -0.2240  0.1080 -0.1582
   35loPI   C1A  551  12.949  13.272   9.136  0.0651 -0.0651  0.2817
   35loPI   C2A  552  13.101  13.204   8.784 -0.0287  0.1203  0.0404
   35loPI   C3A  553  13.166  13.226   8.406 -0.0724 -0.0706 -0.0194
   35loPI   C4A  554  13.271  13.089   8.005  0.2175 -0.3639  0.5362
   35loPI   C5A  555  13.298  13.099   7.516  0.2477  0.0492 -0.0580
   35loPI   C6A  556  13.148  13.077   7.065 -0.2689  0.1781 -0.0546
   35loPI   C1B  557  12.584  12.825   9.060 -0.3743  0.2186 -0.0780
   35loPI   C2B  558  12.701  12.764   8.642  0.0290  0.2090 -0.0251
   35loPI   C3B  559  12.826  12.892   8.237  0.0974 -0.3122  0.1482
   35loPI   C4B  560  12.913  12.560   7.942 -0.2141 -0.0187  0.0613
   36loPI    C1  561  19.058   4.854  10.582 -0.1326  0.1007 -0.2022
   36loPI    C2  562  18.918   5.173  10.778  0.1205  0.1003 -0.0155
   36loPI    C3  563  18.762   4.812  10.847  0.0144  0.1431 -0.0294
   36loPI   PO4  564  19.009   4.930  10.288  0.0943  0.0866 -0.0606
   36loPI   GL1  565  19.235   5.186   9.988 -0.0904 -0.0766 -0.0659
   36loPI   GL2  566  19.037   5.409   9.689 -0.0212  0.2218  0.1093
   36loPI   C1A  567  19.443   5.077   9.593 -0.0544  0.2955  0.0399
   36loPI   C2A  568  19.218   4.850   9.300 -0.4714  0.2470 -0.0165
   36loPI   C3A  569  19.074   4.829   8.899  0.4454 -0.0628  0.0155
   36loPI   C4A  570  18.940   5.068   8.609 -0.2095  0.0050 -0.4091
   36loPI   C5A  571  18.812   5.185   8.174 -0.1106 -0.0241  0.0535
   36loPI   C6A  572  18.634   5.377   7.855  0.4210 -0.1764 -0.1158
   36loPI   C1B  573  19.189   5.366   9.146  0.1828  0.3311  0.4954
   36loPI   C2B  574  19.384   5.293   8.722 -0.2149 -0.0938  0.1641
   36loPI   C3B  575  19.369   5.608   8.350  0.1092 -0.0722  0.0297
   36loPI   C4B  576  19.656   5.973   8.227  0.0689 -0.1862  0.3916
   37loPI    C1  577  19.154  19.176   9.847  0.0226  0.1537  0.0715
   37loPI    C2  578  18.783  19.137   9.994 -0.1311  0.4915 -0.2130
   37loPI    C3  579  19.061  19.336  10.202 -0.0479  0.0687  0.0917
   37loPI   PO4  580  19.145  19.288   9.640  0.0060  0.2043 -0.2679
   37loPI   GL1  581  19.259  19.252   9.209 -0.0322  0.0881 -0.0622
   37loPI   GL2  582  19.448  19.080   9.077 -0.1229  0.3172 -0.1101
   37loPI   C1A  583  18.997  19.056   8.889 -0.0346  0.0425  0.1653
   37loPI   C2A  584  18.946  18.724   8.639  0.2568  0.1082 -0.1895
   37loPI   C3A  585  19.041  18.801   8.110  0.0106  0.0192  0.2578
   37loPI   C4A  586  19.209  19.055   7.766 -0.1188 -0.2778  0.0081
   37loPI   C5A  587  19.437  19.288   7.455  0.1737  0.3465  0.2940
   37loPI   C6A  588  19.770  19.511   7.270 -0.1993 -0.2516 -0.0078
   37loPI   C1B  589  19.765  19.068   8.703 -0.3880  0.0978  0.3983
   37loPI   C2B  590  19.925  19.145   8.187  0.1859  0.0217  0.0666
   37loPI   C3B  591  20.022  19.255   7.725  0.1772  0.3489 -0.1971
   37loPI   C4B  592  20.312  19.325   7.488  0.3458 -0.1089 -0.0235
   38loPI    C1  593  19.382  18.392   9.848  0.2406  0.1529  0.3587
   38loPI    C2  594  19.322  18.080  10.090 -0.2379  0.1176  0.2049
   38loPI    C3  595  19.171  18.438  10.184 -0.0980  0.1931  0.1453
   38loPI   PO4  596  19.725  18.438   9.718  0.2707  0.0990  0.0080
   38loPI   GL1  597  19.483  18.489   9.212 -0.1523 -0.1514 -0.4495
   38loPI   GL2  598  19.594  18.350   9.276  0.0250 -0.0315 -0.0865
   38loPI   C1A  599  19.524  18.653   8.713 -0.0604 -0.0951  0.1901
   38loPI   C2A  600  19.487  18.852   8.357  0.1271 -0.1269 -0.0046
   38loPI   C3A  601  19.680  18.800   7.929 -0.1151  0.2153  0.1994
   38loPI   C4A  602  19.931  18.629   7.544 -0.1683  0.0542  0.0020
   38loPI   C5A  603  20.368  18.714   7.243  0.2904 -0.0684  0.0637
   38loPI   C6A  604  20.699  18.499   7.145 -0.0770  0.2439 -0.0994
   38loPI   C1B  605  19.657  18.170   8.784 -0.3721  0.0042  0.2492
   38loPI   C2B  606  19.747  18.187   8.348  0.3284 -0.2786  0.0591
   38loPI   C3B  607  19.825  18.380   8.062 -0.0952  0.2455  0.0632
   38loPI   C4B  608  19.743  18.202   7.672  0.0919  0.0466 -0.1457
   39loPI    C1  609   0.230   0.026   9.789  0.1129 -0.0792 -0.0846
   39loPI    C2  610   0.583  -0.029   9.969  0.1219  0.1410 -0.0318
   39loPI    C3  611   0.253  -0.198  10.120  0.1498  0.2194  0.1193
   39loPI   PO4  612   0.239  -0.036   9.479  0.0888  0.2432 -0.1779
   39loPI   GL1  613   0.301   0.158   9.035  0.0339 -0.3168  0.1369
   39loPI   GL2  614   0.570  -0.012   9.046 -0.2690 -0.4197 -0.0056
   39loPI   C1A  615   0.464   0.182   8.601 -0.1918 -0.1027  0.3264
   39loPI   C2A  616   0.569   0.368   8.203  0.1416 -0.0636 -0.0832
   39loPI   C3A  617   0.766   0.750   8.118  0.1578  0.0788  0.0923
   39loPI   C4A  618   1.029   0.954   7.720  0.2154 -0.1662 -0.1848
   39loPI   C5A  619   1.230   1.288   7.566 -0.1089  0.0137 -0.1703
   39loPI   C6A  620   1.161   1.649   7.386  0.2173  0.2217 -0.2700
   39loPI   C1B  621   0.863   0.388   8.980  0.3411  0.1420 -0.0565
   39loPI   C2B  622   0.920   0.452   8.570  0.2324  0.1243 -0.0242
   39loPI   C3B  623   1.273   0.531   8.208  0.0204  0.0271 -0.1481
   39loPI   C4B  624   1.412   0.547   7.792 -0.0629  0.0205  0.1344
   40loPI    C1  625  17.782  14.139   9.740  0.1284 -0.1798 -0.0499
   40loPI    C2  626  17.417  14.037   9.869  0.0426  0.0888 -0.0748
   40loPI    C3  627  17.543  14.415   9.903  0.3327 -0.0088 -0.0362
   40loPI   PO4  628  17.824  14.097   9.446 -0.5376  0.3843  0.0288
   40loPI   GL1  629  17.991  14.229   9.136  0.0305 -0.4082  0.0779
   40loPI   GL2  630  17.734  14.447   8.938 -0.1993 -0.1168  0.0485
   40loPI   C1A  631  18.104  14.140   8.712  0.1629 -0.1572 -0.1076
   40loPI   C2A  632  18.089  14.384   8.310  0.1931 -0.0349 -0.1686
   40loPI   C3A  633  18.188  14.612   7.860 -0.2031  0.1811 -0.1400
   40loPI   C4A  634  18.039  14.481   7.520 -0.1449 -0.2403 -0.2887
   40loPI   C5A  635  17.985  14.711   7.171 -0.6051 -0.1079 -0.4513
   40loPI   C6A  636  18.086  14.945   6.836 -0.1924  0.0256  0.3699
   40loPI   C1B  637  17.566  14.515   8.514 -0.0965 -0.0053 -0.2051
   40loPI   C2B  638  17.622  14.317   8.128 -0.0526  0.3236  0.2883
   40loPI   C3B  639  17.743  14.170   7.751  0.1700 -0.1744  0.2912
   40loPI   C4B  640  17.665  14.299   7.351  0.1188 -0.0985 -0.0902
   41loPI    C1  641  16.437   4.929   9.791 -0.1081  0.1441  0.0586
   41loPI    C2  642  16.305   5.225  10.025  0.2144  0.2616  0.0968
   41loPI    C3  643  16.629   5.016  10.130  0.1445  0.0691 -0.0629
   41loPI   PO4  644  16.237   4.939   9.571 -0.2344 -0.0323  0.0597
   41loPI   GL1  645  16.189   4.915   9.121 -0.2457  0.0941 -0.2872
   41loPI   GL2  646  16.387   5.165   9.020  0.0931  0.2097 -0.0332
   41loPI   C1A  647  16.395   4.692   8.882  0.0979  0.1391 -0.0935
   41loPI   C2A  648  16.495   4.716   8.394 -0.1418  0.1095 -0.1785
   41loPI   C3A  649  16.463   4.642   7.922  0.4874  0.0028  0.1048
   41loPI   C4A  650  16.334   4.505   7.455  0.0624 -0.1880 -0.2315
   41loPI   C5A  651  16.181   4.665   7.138  0.0789  0.0551  0.0084
   41loPI   C6A  652  16.139   5.084   6.987  0.0093 -0.0789  0.1200
   41loPI   C1B  653  16.171   5.107   8.652  0.2358  0.2470  0.1205
   41loPI   C2B  654  16.175   5.243   8.173  0.0335 -0.0798  0.2650
   41loPI   C3B  655  16.065   5.450   7.812  0.2049 -0.0097  0.1004
   41loPI   C4B  656  16.371   5.379   7.414 -0.1102  0.0886 -0.0427
   42loPI    C1  657   3.599  12.888  10.606  0.1471 -0.0973  0.1329
   42loPI    C2  658   3.822  12.879  10.938  0.1175  0.0258  0.1570
   42loPI    C3  659   3.494  12.650  10.910  0.1862 -0.0742  0.1644
   42loPI   PO4  660   3.770  12.951  10.427  0.0380 -0.0660  0.0496
   42loPI   GL1  661   3.755  12.922   9.923 -0.0253 -0.0731 -0.1996
   42loPI   GL2  662   3.488  12.837   9.885 -0.1786 -0.1977 -0.1919
   42loPI   C1A  663   3.681  13.135   9.513 -0.3130 -0.0140 -0.1020
   42loPI   C2A  664   3.631  13.025   9.086  0.6206 -0.0255  0.2381
   42loPI   C3A  665   3.518  12.831   8.852 -0.1433  0.2367  0.0135
   42loPI   C4A  666   3.572  12.507   8.598 -0.0279  0.0504 -0.0615
   42loPI   C5A  667   3.840  12.390   8.250 -0.0335 -0.0702  0.1926
   42loPI   C6A  668   4.044  12.006   8.226  0.0420 -0.1285  0.0454
   42loPI   C1B  669   3.364  12.734   9.471  0.1859  0.1701  0.3594
   42loPI   C2B  670   3.094  12.667   9.234 -0.1094  0.1765 -0.0358
   42loPI   C3B  671   3.025  12.594   8.791 -0.0874 -0.1282 -0.2389
   42loPI   C4B  672   2.972  12.416   8.341 -0.0340  0.3994  0.0667
   43loPI    C1  673   6.951   1.105   9.690 -0.1525 -0.2996 -0.1493
   43loPI    C2  674   6.839   1.346   9.990  0.2422  0.0713 -0.2891
   43loPI    C3  675   6.818   0.949  10.033 -0.2892  0.1213 -0.0033
   43loPI   PO4  676   7.104   1.274   9.541 -0.1431  0.1950 -0.0667
   43loPI   GL1  677   7.265   1.379   9.110 -0.1989  0.0714  0.1769
   43loPI   GL2  678   7.208   1.131   8.993  0.2006  0.0317 -0.0198
   43loPI   C1A  679   7.313   1.598   8.754 -0.3197 -0.1827 -0.2247
   43loPI   C2A  680   7.296   1.683   8.434  0.2538  0.0855  0.4422
   43loPI   C3A  681   7.360   1.798   8.048  0.1256  0.3143  0.0533
   43loPI   C4A  682   7.351   1.704   7.622  0.4431  0.2129  0.0262
   43loPI   C5A  683   7.258   1.537   7.196 -0.1168  0.1688 -0.1081
   43loPI   C6A  684   7.168   1.378   6.693 -0.4173 -0.3848 -0.1672
   43loPI   C1B  685   7.135   0.971   8.676 -0.1252 -0.1514 -0.4013
   43loPI   C2B  686   7.248   1.137   8.279  0.1520  0.1980 -0.2956
   43loPI   C3B  687   7.405   1.322   7.956  0.1234 -0.1041 -0.0956
   43loPI   C4B  688   7.452   1.189   7.564 -0.1068 -0.1234  0.4022
   44loPI    C1  689   8.636  17.032   9.431 -0.0815  0.1265 -0.0996
   44loPI    C2  690   8.350  16.760   9.364  0.0598 -0.0282 -0.0796
   44loPI    C3  691   8.388  16.925   9.726  0.1305 -0.1669 -0.0229
   44loPI   PO4  692   8.647  17.208   9.228  0.3741  0.0865  0.1606
   44loPI   GL1  693   8.745  17.105   8.874 -0.0709  0.2301  0.1500
   44loPI   GL2  694   8.986  17.310   8.731  0.1888 -0.0638 -0.2651
   44loPI   C1A  695   8.585  16.880   8.512  0.0307  0.0662  0.2282
   44loPI   C2A  696   8.374  16.747   8.244 -0.1201  0.1376  0.1601
   44loPI   C3A  697   8.049  16.794   7.881  0.1953 -0.1175 -0.1036
   44loPI   C4A  698   8.059  17.074   7.568  0.1769  0.0826  0.0246
   44loPI   C5A  699   7.738  17.278   7.355  0.0776 -0.0115 -0.0494
   44loPI   C6A  700   7.649  17.219   6.931 -0.1247 -0.1091 -0.2660
   44loPI   C1B  701   8.885  17.376   8.451 -0.0488 -0.1239  0.0177
   44loPI   C2B  702   8.750  17.543   8.043  0.4924  0.3076 -0.1759
   44loPI   C3B  703   8.813  17.777   7.728 -0.2864  0.3171  0.2243
   44loPI   C4B  704   8.519  17.963   7.319  0.0234  0.2484 -0.1890
   45loPI    C1  705  10.246  10.395   9.997  0.3791  0.3162  0.0112
   45loPI    C2  706  10.175  10.158  10.311  0.0077  0.0621 -0.2550
   45loPI    C3  707  10.416  10.475  10.350  0.0642 -0.0339  0.2505
   45loPI   PO4  708  10.272  10.246   9.773 -0.0077 -0.1354  0.2646
   45loPI   GL1  709  10.006  10.257   9.450 -0.0479  0.0456  0.1676
   45loPI   GL2  710  10.128  10.172   9.271 -0.1383  0.2741  0.0174
   45loPI   C1A  711   9.628  10.239   9.075  0.4142 -0.0181 -0.1261
   45loPI   C2A  712   9.441  10.324   8.747  0.0711  0.1763 -0.0538
   45loPI   C3A  713   9.278  10.524   8.500 -0.2026 -0.0399 -0.0119
   45loPI   C4A  714   9.198  10.678   8.122  0.3523  0.1934  0.2038
   45loPI   C5A  715   9.035  10.666   7.753 -0.1608 -0.0778  0.0224
   45loPI   C6A  716   9.017  10.390   7.440  0.1216 -0.0245  0.3635
   45loPI   C1B  717  10.005  10.123   8.804 -0.0750  0.1719 -0.0482
   45loPI   C2B  718   9.841  10.208   8.362  0.0171  0.2978 -0.1084
   45loPI   C3B  719   9.560  10.234   8.092  0.1209 -0.3687 -0.2574
   45loPI   C4B  720   9.277  10.132   8.034 -0.1535  0.3133 -0.0756
   46loPI    C1  721   7.218   4.879  10.222 -0.0109  0.1076 -0.0605
   46loPI    C2  722   7.228   5.194  10.470 -0.2108 -0.0887  0.2032
   46loPI    C3  723   7.375   4.841  10.588  0.4285  0.0072 -0.2534
   46loPI   PO4  724   7.380   4.893   9.958 -0.2590  0.0749  0.3580
   46loPI   GL1  725   7.359   4.794   9.551 -0.0430  0.0658 -0.1267
   46loPI   GL2  726   7.217   4.466   9.575 -0.4406 -0.1207 -0.0301
   46loPI   C1A  727   7.096   5.070   9.314  0.4154  0.0885  0.0985
   46loPI   C2A  728   6.948   5.038   8.953 -0.1094 -0.0687  0.1093
   46loPI   C3A  729   6.996   5.039   8.602 -0.0004 -0.1020  0.0428
   46loPI   C4A  730   6.798   4.892   8.317  0.1285 -0.3321  0.2709
   46loPI   C5A  731   6.592   5.064   7.975  0.0296  0.0844 -0.0896
   46loPI   C6A  732   6.233   5.284   8.001 -0.4983 -0.0283 -0.1338
   46loPI   C1B  733   7.223   4.544   9.098 -0.3467 -0.1070 -0.0596
   46loPI   C2B  734   7.060   4.555   8.676 -0.0141 -0.1188 -0.2096
   46loPI   C3B  735   6.774   4.423   8.145  0.1616  0.1779 -0.0656
   46loPI   C4B  736   6.416   4.390   7.803 -0.0555 -0.1830  0.1043
   47loPI    C1  737   9.502  11.799   9.966  0.1490 -0.0970 -0.0600
   47loPI    C2  738   9.304  11.490  10.124 -0.2341  0.1734  0.0036
   47loPI    C3  739   9.585  11.678  10.338 -0.1320 -0.0102  0.0333
   47loPI   PO4  740   9.548  11.767   9.644 -0.4287 -0.0287 -0.3240
   47loPI   GL1  741   9.632  11.553   9.306 -0.0253 -0.1492 -0.1806
   47loPI   GL2  742   9.830  11.324   9.127 -0.2116 -0.1770  0.0230
   47loPI   C1A  743   9.696  11.663   8.825  0.1864  0.0685  0.0654
   47loPI   C2A  744   9.685  11.578   8.371  0.2801  0.1931  0.1342
   47loPI   C3A  745   9.727  11.682   7.942 -0.0474 -0.2242  0.2679
   47loPI   C4A  746   9.680  11.754   7.588  0.0357 -0.3156  0.0361
   47loPI   C5A  747   9.945  11.478   7.275 -0.1634 -0.0356 -0.2158
   47loPI   C6A  748  10.099  11.356   6.931  0.2459  0.0225 -0.3042
   47loPI   C1B  749   9.387  11.194   8.872  0.0938  0.0974 -0.2351
   47loPI   C2B  750   9.442  11.107   8.416  0.3353 -0.1447  0.0626
   47loPI   C3B  751   9.473  11.200   7.958  0.0721  0.0902  0.3843
   47loPI   C4B  752   9.385  11.406   7.653  0.3812 -0.2037  0.1731
   48loPI    C1  753   8.859   1.761   9.759  0.0991  0.0257 -0.2313
   48loPI    C2  754   9.193   1.562   9.854  0.0347  0.0122 -0.0269
   48loPI    C3  755   8.945   1.685  10.143 -0.2071 -0.0978 -0.1845
   48loPI   PO4  756   8.924   1.928   9.573  0.0392 -0.0246  0.1563
   48loPI   GL1  757   8.696   2.177   9.137 -0.0692 -0.0176  0.1757
   48loPI   GL2  758   8.653   1.802   9.172  0.2472 -0.0578  0.1436
   48loPI   C1A  759   8.542   2.357   8.804 -0.0621  0.0363  0.0722
   48loPI   C2A  760   8.610   2.547   8.320 -0.1081  0.3663 -0.0437
   48loPI   C3A  761   8.376   2.560   8.002  0.0766  0.1457 -0.4142
   48loPI   C4A  762   7.978   2.507   7.784  0.0661 -0.0954 -0.0995
   48loPI   C5A  763   7.818   2.367   7.431  0.0310  0.3950  0.1753
   48loPI   C6A  764   7.677   2.005   7.183 -0.1188 -0.1090 -0.0003
   48loPI   C1B  765   8.730   1.807   8.753 -0.1071  0.0318 -0.1653
   48loPI   C2B  766   8.659   1.530   8.292  0.2621 -0.2615  0.4718
   48loPI   C3B  767   8.745   1.604   7.902 -0.0759  0.0445  0.1603
   48loPI   C4B  768   8.667   1.844   7.469  0.3114 -0.0188 -0.2510
   49loPI    C1  769  15.344   4.520   9.664 -0.3164  0.1866  0.3595
   49loPI    C2  770  15.455   4.166   9.815 -0.0910  0.0216 -0.1694
   49loPI    C3  771  15.611   4.504   9.962 -0.0297 -0.1191  0.0952
   49loPI   PO4  772  15.380   4.470   9.366 -0.3966 -0.1434  0.2497
   49loPI   GL1  773  15.529   4.212   8.958  0.1852 -0.3823  0.2425
   49loPI   GL2  774  15.634   3.905   8.700 -0.1984 -0.1656 -0.0200
   49loPI   C1A  775  15.345   4.335   8.599 -0.1079 -0.0138  0.0951
   49loPI   C2A  776  15.531   4.416   8.200 -0.0628  0.2737 -0.6824
   49loPI   C3A  777  15.548   4.646   7.822  0.1408  0.0409  0.0723
   49loPI   C4A  778  15.770   4.624   7.505 -0.0494 -0.0056  0.0071
   49loPI   C5A  779  15.727   4.306   7.068  0.0281  0.0899 -0.0673
   49loPI   C6A  780  15.550   4.472   6.642  0.1892  0.0682  0.0720
   49loPI   C1B  781  15.870   3.985   8.256  0.2708 -0.0076 -0.5710
   49loPI   C2B  782  15.891   4.218   7.821 -0.0191  0.3606 -0.0353
   49loPI   C3B  783  15.989   4.067   7.361 -0.2619  0.1159 -0.3140
   49loPI   C4B  784  16.139   3.669   7.210  0.3152  0.0048 -0.0588
   50loPI    C1  785   9.305   0.172   9.624 -0.0593  0.0315  0.2520
   50loPI    C2  786   9.601  -0.091   9.684  0.0747  0.1021 -0.0773
   50loPI    C3  787   9.640   0.287   9.810 -0.0095  0.0330  0.1620
   50loPI   PO4  788   9.277   0.127   9.408 -0.1933 -0.1463 -0.2777
   50loPI   GL1  789   9.203   0.294   8.952 -0.1024 -0.1091 -0.3638
   50loPI   GL2  790   9.498   0.431   8.937 -0.0511  0.1209  0.0896
   50loPI   C1A  791   9.330   0.438   8.497 -0.0126  0.1224  0.2427
   50loPI   C2A  792   9.278   0.429   8.046 -0.0480 -0.1833 -0.2492
   50loPI   C3A  793   9.168   0.296   7.633  0.3649 -0.2834  0.1813
   50loPI   C4A  794   9.082  -0.052   7.298 -0.1909  0.1837  0.0525
   50loPI   C5A  795   9.154  -0.347   6.949  0.1855  0.0946 -0.1044
   50loPI   C6A  796   9.298  -0.692   6.818 -0.0027 -0.0548  0.4181
   50loPI   C1B  797   9.802   0.561   8.509 -0.0717  0.0155 -0.2178
   50loPI   C2B  798   9.818   0.494   8.067  0.1066 -0.0578 -0.0051
   50loPI   C3B  799  10.031   0.803   7.841 -0.0920  0.5816 -0.4672
   50loPI   C4B  800  10.073   0.730   7.312  0.2820 -0.3125  0.1015
   51loPI    C1  801   1.407  11.749  10.252 -0.2090 -0.2082 -0.1972
   51loPI    C2  802   1.647  11.653  10.557 -0.0789  0.0791 -0.2053
   51loPI    C3  803   1.321  11.875  10.621 -0.1406  0.0024 -0.2512
   51loPI   PO4  804   1.511  11.571  10.078  0.0943 -0.2779 -0.0024
   51loPI   GL1  805   1.606  11.562   9.698 -0.2319 -0.0613 -0.0958
   51loPI   GL2  806   1.654  11.928   9.678 -0.4241 -0.5098 -0.0332
   51loPI   C1A  807   1.687  11.283   9.381  0.0275  0.0174  0.0009
   51loPI   C2A  808   1.770  11.085   9.018 -0.1024  0.1414 -0.1872
   51loPI   C3A  809   1.746  10.828   8.561  0.2733 -0.0887 -0.1582
   51loPI   C4A  810   1.975  10.843   8.228  0.0499 -0.3394 -0.1797
   51loPI   C5A  811   2.186  10.626   7.867  0.0400  0.0775  0.0574
   51loPI   C6A  812   2.155  10.162   7.820 -0.0335  0.0101 -0.0881
   51loPI   C1B  813   1.722  11.805   9.246 -0.3221 -0.3245  0.0103
   51loPI   C2B  814   1.675  11.686   8.850  0.3988  0.1364 -0.1029
   51loPI   C3B  815   1.781  11.454   8.449 -0.2831 -0.3122 -0.0006
   51loPI   C4B  816   1.699  11.211   8.101  0.2311 -0.2518  0.2647
   52loPI    C1  817   5.086  11.250  11.013 -0.1691  0.0534 -0.1027
   52loPI    C2  818   5.051  11.648  11.003 -0.3210  0.0419 -0.0500
   52loPI    C3  819   5.273  11.473  11.287 -0.3380  0.0838 -0.0108
   52loPI   PO4  820   5.051  11.162  10.806 -0.0287 -0.1947  0.2107
   52loPI   GL1  821   4.936  11.204  10.392 -0.1681 -0.1576  0.0415
   52loPI   GL2  822   4.628  11.054  10.337 -0.0088 -0.1009  0.2760
   52loPI   C1A  823   4.906  11.493   9.968 -0.1822  0.1499 -0.0683
   52loPI   C2A  824   4.801  11.596   9.512 -0.0586 -0.0060 -0.3216
   52loPI   C3A  825   4.753  11.446   9.110  0.3208 -0.4038 -0.2068
   52loPI   C4A  826   4.850  11.320   8.753 -0.1013  0.2583 -0.0337
   52loPI   C5A  827   5.060  11.418   8.293  0.0677 -0.0084  0.1821
   52loPI   C6A  828   5.025  11.320   7.894 -0.0645  0.2083 -0.0446
   52loPI   C1B  829   4.268  11.185  10.115  0.1977 -0.0127  0.2572
   52loPI   C2B  830   4.285  11.318   9.705 -0.1199  0.3709 -0.0155
   52loPI   C3B  831   4.476  11.172   9.456 -0.1056  0.2065  0.0065
   52loPI   C4B  832   4.586  10.968   9.096 -0.0831 -0.2886 -0.0811
   53loPI    C1  833   0.373  16.454   9.774 -0.1007 -0.1145  0.0726
   53loPI    C2  834   0.418  16.178  10.060  0.1408 -0.1125  0.0380
   53loPI    C3  835   0.643  16.509  10.064 -0.0115 -0.0071 -0.0301
   53loPI   PO4  836   0.357  16.275   9.535 -0.2137 -0.0443  0.1828
   53loPI   GL1  837   0.451  16.213   9.032  0.3250  0.0336  0.0298
   53loPI   GL2  838   0.724  16.070   9.079  0.0927  0.0252  0.0284
   53loPI   C1A  839   0.502  16.259   8.641  0.0231  0.0373 -0.5668
   53loPI   C2A  840   0.391  16.153   8.164 -0.4733 -0.4035  0.0059
   53loPI   C3A  841   0.421  15.945   7.758 -0.2053  0.0517 -0.0240
   53loPI   C4A  842   0.493  15.718   7.330 -0.0501 -0.1369 -0.4096
   53loPI   C5A  843   0.661  15.540   6.943  0.0946 -0.0616  0.0895
   53loPI   C6A  844   0.445  15.745   6.549  0.1843  0.0099  0.1474
   53loPI   C1B  845   0.706  15.760   8.746 -0.0389  0.3098  0.2505
   53loPI   C2B  846   0.853  15.763   8.336  0.0255 -0.2729 -0.0468
   53loPI   C3B  847   1.150  15.946   8.167  0.1581  0.0418 -0.2556
   53loPI   C4B  848   1.451  16.057   7.757  0.1361 -0.3880 -0.1463
   54loPI    C1  849  13.363   6.811   9.379 -0.0565  0.0175  0.0078
   54loPI    C2  850  13.155   6.915   9.705  0.0742 -0.1636  0.1512
   54loPI    C3  851  13.320   6.551   9.680  0.1347 -0.1220 -0.0827
   54loPI   PO4  852  13.226   6.828   9.172 -0.0187 -0.1584 -0.3037
   54loPI   GL1  853  13.185   6.546   8.816  0.2069  0.0008  0.3277
   54loPI   GL2  854  13.153   6.725   8.703  0.1008  0.3289 -0.1906
   54loPI   C1A  855  13.154   6.304   8.426  0.0055  0.1507 -0.2846
   54loPI   C2A  856  13.117   6.164   8.023  0.2320 -0.1701 -0.1113
   54loPI   C3A  857  12.899   6.220   7.666  0.1589  0.2114 -0.0522
   54loPI   C4A  858  12.740   6.246   7.241 -0.1994 -0.1689 -0.1277
   54loPI   C5A  859  12.662   5.872   6.899  0.0140  0.2651 -0.1939
   54loPI   C6A  860  12.501   5.937   6.474  0.1324 -0.0510  0.0974
   54loPI   C1B  861  12.844   6.686   8.330  0.1180 -0.0350 -0.3351
   54loPI   C2B  862  12.895   6.771   7.983 -0.1782 -0.0954  0.1454
   54loPI   C3B  863  12.818   6.762   7.553  0.0625  0.1213 -0.0905
   54loPI   C4B  864  13.185   6.515   7.237  0.1685 -0.3792  0.0640
   55loPI    C1  865  11.309   4.085   9.754  0.1359 -0.1375  0.0106
   55loPI    C2  866  11.506   3.750   9.847  0.0536 -0.1991 -0.0360
   55loPI    C3  867  11.156   3.831  10.023 -0.0305 -0.2433 -0.1818
   55loPI   PO4  868  11.314   4.117   9.515  0.3151  0.0569  0.0443
   55loPI   GL1  869  11.002   4.047   9.280  0.3757 -0.0241  0.0713
   55loPI   GL2  870  11.076   3.775   9.053  0.0757 -0.0781 -0.1263
   55loPI   C1A  871  11.016   4.284   8.925 -0.0962  0.0801 -0.1251
   55loPI   C2A  872  11.065   4.551   8.589 -0.0842  0.3544 -0.1029
   55loPI   C3A  873  11.137   4.539   8.105 -0.0016  0.0163  0.1440
   55loPI   C4A  874  10.888   4.655   7.683 -0.0584  0.2712  0.0534
   55loPI   C5A  875  10.727   4.950   7.423  0.3827 -0.0669 -0.2059
   55loPI   C6A  876  10.606   4.991   6.962 -0.1592 -0.1943 -0.2575
   55loPI   C1B  877  10.847   3.907   8.704  0.0378 -0.1219  0.2345
   55loPI   C2B  878  10.765   4.030   8.288 -0.1834  0.1849  0.0963
   55loPI   C3B  879  10.766   4.174   7.852  0.4730 -0.0412  0.0513
   55loPI   C4B  880  11.055   4.221   7.595 -0.1055  0.0015  0.2293
   56loPI    C1  881   8.258   4.619  10.148  0.0732 -0.2543 -0.3099
   56loPI    C2  882   8.504   4.306  10.108  0.1486 -0.2543  0.1085
   56loPI    C3  883   8.504   4.518  10.447  0.0415  0.1536 -0.1398
   56loPI   PO4  884   8.188   4.567   9.862  0.1161 -0.4097  0.0141
   56loPI   GL1  885   8.055   4.295   9.547  0.3536 -0.0226 -0.1054
   56loPI   GL2  886   7.848   4.612   9.430  0.1020  0.2253 -0.0687
   56loPI   C1A  887   8.079   4.190   9.150  0.1896  0.1435 -0.0851
   56loPI   C2A  888   7.744   4.339   8.785  0.0058  0.1830  0.1653
   56loPI   C3A  889   7.519   4.262   8.432 -0.1937 -0.0014  0.0047
   56loPI   C4A  890   7.248   4.226   7.999 -0.3388 -0.0912 -0.2661
   56loPI   C5A  891   7.253   4.350   7.625  0.3996 -0.2426  0.0163
   56loPI   C6A  892   7.412   4.354   7.268 -0.1281 -0.3213 -0.3251
   56loPI   C1B  893   7.724   4.764   9.018 -0.2523  0.1111  0.0549
   56loPI   C2B  894   7.550   4.816   8.688  0.2535 -0.0756 -0.1101
   56loPI   C3B  895   7.330   4.709   8.290  0.1354 -0.0447 -0.3197
   56loPI   C4B  896   7.573   4.639   7.929  0.1187 -0.2287  0.1142
   57loPI    C1  897   4.628   1.477   9.883 -0.0671  0.2848 -0.0834
   57loPI    C2  898   4.328   1.627  10.100  0.0236  0.1576  0.1337
   57loPI    C3  899   4.645   1.467  10.282  0.1073  0.0593 -0.0946
   57loPI   PO4  900   4.684   1.646   9.762  0.1939 -0.2796  0.0989
   57loPI   GL1  901   4.602   1.967   9.418 -0.1418  0.0420  0.2696
   57loPI   GL2  902   4.831   2.310   9.537 -0.0386 -0.1090 -0.1251
   57loPI   C1A  903   4.617   1.986   8.905 -0.1932  0.0832  0.3564
   57loPI   C2A  904   4.594   2.219   8.515  0.2357  0.1765 -0.2570
   57loPI   C3A  905   4.550   2.270   8.138 -0.1402  0.1712 -0.0490
   57loPI   C4A  906   4.187   2.333   7.895  0.2288 -0.2600  0.2734
   57loPI   C5A  907   3.933   2.149   7.489  0.1126  0.1983  0.2933
   57loPI   C6A  908   3.633   1.944   7.210  0.1904 -0.3184  0.4243
   57loPI   C1B  909   4.702   2.418   9.108 -0.0987  0.2537  0.2379
   57loPI   C2B  910   4.459   2.671   8.800 -0.3294  0.1729 -0.0837
   57loPI   C3B  911   4.140   2.539   8.456  0.0276 -0.3875  0.5512
   57loPI   C4B  912   3.776   2.420   8.362  0.2118 -0.1127  0.2325
   58loPI    C1  913   1.344  16.372   9.758  0.1780 -0.0344 -0.0019
   58loPI    C2  914   1.524  16.450  10.106 -0.2769 -0.0670  0.2488
   58loPI    C3  915   1.130  16.506  10.068 -0.2526 -0.1770 -0.2285
   58loPI   PO4  916   1.370  16.456   9.540 -0.0950  0.0831  0.1783
   58loPI   GL1  917   1.259  16.709   9.239 -0.1487  0.1797  0.0850
   58loPI   GL2  918   1.077  16.451   9.164 -0.0936  0.2049 -0.0382
   58loPI   C1A  919   1.415  16.829   8.820  0.2886  0.0571  0.0259
   58loPI   C2A  920   1.339  16.601   8.440 -0.3908  0.2833  0.3075
   58loPI   C3A  921   1.286  16.522   7.953 -0.1121 -0.0174  0.1338
   58loPI   C4A  922   1.017  16.270   7.567  0.2214  0.1298 -0.1706
   58loPI   C5A  923   0.832  16.100   7.231  0.0489  0.0344 -0.0808
   58loPI   C6A  924   0.629  16.153   6.835  0.2383  0.1556 -0.0203
   58loPI   C1B  925   0.914  16.690   8.783  0.2339 -0.1440  0.0580
   58loPI   C2B  926   0.835  16.843   8.481  0.1475 -0.2438 -0.1059
   58loPI   C3B  927   1.126  16.993   8.090 -0.1953 -0.2753 -0.2012
   58loPI   C4B  928   0.924  16.818   7.655 -0.1299 -0.1466  0.0516
   59loPI    C1  929  13.535  10.373   9.738 -0.0041  0.1220 -0.0326
   59loPI    C2  930  13.807  10.080   9.724 -0.0466  0.0780  0.0566
   59loPI    C3  931  13.868  10.398   9.958 -0.0882  0.0513  0.1038
   59loPI   PO4  932  13.476  10.326   9.418  0.3792  0.1647 -0.0551
   59loPI   GL1  933  13.391  10.500   9.000 -0.0610  0.5030  0.0626
   59loPI   GL2  934  13.323  10.321   8.811  0.0787  0.2226  0.2717
   59loPI   C1A  935  13.571  10.786   8.675  0.1204  0.2376  0.0602
   59loPI   C2A  936  13.732  10.996   8.285  0.1105  0.0694  0.0267
   59loPI   C3A  937  13.830  11.286   7.904  0.1493 -0.1742  0.1388
   59loPI   C4A  938  13.766  11.249   7.456  0.0299  0.3013 -0.1222
   59loPI   C5A  939  13.715  11.273   7.070  0.1055 -0.2634 -0.0583
   59loPI   C6A  940  13.826  11.470   6.626  0.0918  0.0169 -0.0605
   59loPI   C1B  941  13.306  10.430   8.437 -0.1002  0.1021 -0.0909
   59loPI   C2B  942  13.532  10.600   8.105 -0.4134 -0.0479  0.1471
   59loPI   C3B  943  13.580  10.724   7.553  0.1900  0.0176  0.0403
   59loPI   C4B  944  13.460  10.815   7.068 -0.0588  0.1241  0.1859
   60loPI    C1  945   2.797   8.357  10.432 -0.0084  0.0575 -0.0853
   60loPI    C2  946   3.090   8.129  10.580 -0.2344 -0.2310 -0.0722
   60loPI    C3  947   2.783   8.233  10.813 -0.1131  0.1262 -0.0665
   60loPI   PO4  948   2.817   8.251  10.163  0.0230 -0.0846 -0.0263
   60loPI   GL1  949   2.695   7.883   9.971  0.2296  0.1785 -0.0099
   60loPI   GL2  950   2.278   7.739  10.007 -0.4326 -0.0037  0.0414
   60loPI   C1A  951   2.598   7.956   9.615  0.0499 -0.1426  0.1663
   60loPI   C2A  952   2.432   8.093   9.170 -0.3201  0.3228 -0.2526
   60loPI   C3A  953   2.251   8.229   8.811  0.2512  0.0669  0.4160
   60loPI   C4A  954   2.157   7.992   8.428 -0.0030  0.1936 -0.2789
   60loPI   C5A  955   1.994   7.655   8.078 -0.0149 -0.2853 -0.0999
   60loPI   C6A  956   1.718   7.522   7.706  0.0071 -0.4335  0.1264
   60loPI   C1B  957   2.019   8.069   9.822  0.1225  0.1300 -0.0832
   60loPI   C2B  958   2.015   8.216   9.406  0.2455  0.0371  0.3060
   60loPI   C3B  959   1.811   8.227   9.019  0.1508 -0.1000  0.1481
   60loPI   C4B  960   1.549   8.038   8.670  0.0105 -0.0251 -0.0878
   61loPI    C1  961  15.085  11.894   9.469 -0.1996 -0.0496  0.1755
   61loPI    C2  962  15.346  11.593   9.501 -0.1793 -0.0795 -0.2279
   61loPI    C3  963  15.324  11.869   9.789  0.0977 -0.2328 -0.0554
   61loPI   PO4  964  14.877  11.830   9.290  0.3212 -0.1038  0.0950
   61loPI   GL1  965  14.673  11.893   8.944 -0.0632  0.1098  0.2494
   61loPI   GL2  966  14.838  11.643   8.705  0.0309  0.0248 -0.1257
   61loPI   C1A  967  14.539  12.127   8.645  0.1336 -0.0849 -0.2351
   61loPI   C2A  968  14.776  12.244   8.317  0.0331  0.2117  0.1116
   61loPI   C3A  969  14.934  12.146   7.848 -0.2965 -0.0044 -0.3825
   61loPI   C4A  970  14.884  11.956   7.523 -0.1932  0.1865  0.1301
   61loPI   C5A  971  15.277  11.684   7.263  0.0121 -0.3401 -0.2742
   61loPI   C6A  972  15.666  11.378   7.069  0.0288  0.0962 -0.1553
   61loPI   C1B  973  14.805  11.754   8.305  0.2890 -0.0188  0.0798
   61loPI   C2B  974  14.614  11.721   7.937 -0.5829  0.1925  0.0499
   61loPI   C3B  975  14.611  11.369   7.581 -0.2317  0.1210 -0.1846
   61loPI   C4B  976  14.481  11.132   7.223  0.3069 -0.1469  0.1990
   62loPI    C1  977   0.594  17.881   9.938 -0.0314  0.2063  0.0765
   62loPI    C2  978   0.658  17.659  10.265 -0.0090  0.0217 -0.0518
   62loPI    C3  979   0.690  18.057  10.285  0.0948  0.0050  0.1460
   62loPI   PO4  980   0.739  17.669   9.769  0.0628 -0.4235  0.0089
   62loPI   GL1  981   0.880  17.670   9.326 -0.1220  0.0435 -0.0057
   62loPI   GL2  982   1.138  17.751   9.186 -0.2579 -0.3829 -0.1650
   62loPI   C1A  983   0.820  17.577   8.819  0.0841 -0.0188  0.0134
   62loPI   C2A  984   0.847  17.607   8.436 -0.1710  0.1537  0.1246
   62loPI   C3A  985   0.851  17.741   8.026  0.1763 -0.0097 -0.2575
   62loPI   C4A  986   1.010  17.666   7.610  0.3397  0.0484  0.0855
   62loPI   C5A  987   1.141  17.683   7.161 -0.1820 -0.0965  0.1252
   62loPI   C6A  988   1.052  17.398   6.925 -0.1278 -0.0182  0.1926
   62loPI   C1B  989   1.306  17.812   8.764 -0.0737  0.1029  0.0018
   62loPI   C2B  990   1.362  18.022   8.309  0.0044  0.3103 -0.2212
   62loPI   C3B  991   1.436  18.092   7.784  0.1299  0.0767  0.1633
   62loPI   C4B  992   1.615  18.167   7.407 -0.0993  0.0205  0.0451
   63loPI    C1  993   8.251  15.558   9.511  0.2237  0.0634  0.0885
   63loPI    C2  994   8.577  15.607   9.737  0.1315  0.0932  0.2161
   63loPI    C3  995   8.217  15.704   9.882  0.0901  0.2787 -0.0067
   63loPI   PO4  996   8.405  15.657   9.226  0.0093  0.1927  0.0115
   63loPI   GL1  997   8.377  15.391   8.941  0.0506  0.1557  0.2692
   63loPI   GL2  998   8.168  15.060   8.872  0.0546 -0.0971  0.0703
   63loPI   C1A  999   8.304  15.459   8.490  0.0277  0.1770 -0.1144
   63loPI   C2A 1000   8.109  15.460   8.045 -0.0672 -0.4048 -0.1510
   63loPI   C3A 1001   7.896  15.364   7.630  0.1502 -0.0061  0.2078
   63loPI   C4A 1002   7.861  15.320   7.077  0.2871 -0.0763  0.0795
   63loPI   C5A 1003   7.476  15.019   6.853 -0.1110  0.0634 -0.0655
   63loPI   C6A 1004   7.257  14.604   6.945 -0.2414 -0.0757  0.1497
   63loPI   C1B 1005   8.060  14.982   8.358  0.0857 -0.1837 -0.2759
   63loPI   C2B 1006   7.853  15.009   8.033 -0.0216 -0.0719  0.4882
   63loPI   C3B 1007   7.574  14.902   7.679  0.3561 -0.2516 -0.2106
   63loPI   C4B 1008   7.609  14.755   7.324 -0.1379  0.0579 -0.2118
   64loPI    C1 1009   2.908   8.937  10.422  0.0926 -0.1146  0.2012
   64loPI    C2 1010   3.159   8.700  10.624 -0.0392 -0.2412  0.2184
   64loPI    C3 1011   2.786   8.758  10.758 -0.0910 -0.2340  0.0730
   64loPI   PO4 1012   2.965   8.834  10.189  0.0562  0.2236  0.1378
   64loPI   GL1 1013   2.767   8.860   9.775 -0.3059  0.1067  0.1422
   64loPI   GL2 1014   2.482   8.956   9.638 -0.0214 -0.0004 -0.2068
   64loPI   C1A 1015   2.775   8.600   9.385 -0.0420 -0.0518  0.2805
   64loPI   C2A 1016   2.715   8.552   8.968 -0.0847 -0.1169  0.1701
   64loPI   C3A 1017   2.602   8.577   8.567 -0.0353 -0.1835 -0.1792
   64loPI   C4A 1018   2.338   8.485   8.279  0.2641  0.1177  0.0652
   64loPI   C5A 1019   1.929   8.470   8.000  0.1293  0.0060  0.0009
   64loPI   C6A 1020   1.495   8.427   7.765  0.0136  0.1357  0.0839
   64loPI   C1B 1021   2.548   8.997   9.182 -0.1256  0.1293  0.2220
   64loPI   C2B 1022   2.456   9.035   8.676  0.4798  0.1138  0.0628
   64loPI   C3B 1023   2.330   9.005   8.235  0.0370 -0.2973  0.0141
   64loPI   C4B 1024   2.175   8.901   7.840 -0.3175  0.0068 -0.1618
   65loPI    C1 1025  14.728   1.786   9.460 -0.4255 -0.2435 -0.1296
   65loPI    C2 1026  15.008   1.500   9.470 -0.0975  0.0727 -0.0726
   65loPI    C3 1027  14.750   1.539   9.774 -0.0392 -0.0585 -0.0059
   65loPI   PO4 1028  14.682   1.815   9.144 -0.2864  0.2082 -0.3906
   65loPI   GL1 1029  14.529   2.107   8.820 -0.2077  0.0696 -0.2499
   65loPI   GL2 1030  14.644   2.457   8.868 -0.1174  0.1593 -0.0790
   65loPI   C1A 1031  14.673   2.276   8.382 -0.0946  0.1187  0.0396
   65loPI   C2A 1032  14.795   2.326   7.916 -0.1221 -0.1205  0.0628
   65loPI   C3A 1033  14.959   2.394   7.513  0.2205  0.1688  0.2429
   65loPI   C4A 1034  15.169   2.521   7.069  0.0965  0.1879  0.0634
   65loPI   C5A 1035  15.142   2.537   6.681  0.1879 -0.0740 -0.0190
   65loPI   C6A 1036  15.284   2.333   6.338  0.2191 -0.0061  0.0942
   65loPI   C1B 1037  14.643   2.819   8.569  0.3791 -0.1999  0.3665
   65loPI   C2B 1038  14.584   2.710   8.167 -0.0253 -0.1178 -0.0443
   65loPI   C3B 1039  14.578   2.824   7.786  0.4096  0.0041  0.4110
   65loPI   C4B 1040  14.308   2.945   7.478 -0.1021  0.1732  0.0461
   66loPI    C1 1041   7.727   0.990   9.604 -0.1417 -0.0347  0.0607
   66loPI    C2 1042   7.710   1.322   9.827 -0.0323  0.0390 -0.0397
   66loPI    C3 1043   7.869   0.988   9.978  0.0700  0.0976 -0.0170
   66loPI   PO4 1044   7.665   1.162   9.351  0.0601  0.4027  0.0403
   66loPI   GL1 1045   7.816   1.290   8.952 -0.2891 -0.0070  0.2103
   66loPI   GL2 1046   7.751   1.540   9.044  0.0613 -0.1102  0.2344
   66loPI   C1A 1047   7.639   1.303   8.605 -0.1460  0.1212 -0.2395
   66loPI   C2A 1048   7.817   1.136   8.328 -0.2137  0.1499  0.0122
   66loPI   C3A 1049   7.943   1.195   7.982  0.1828 -0.2665 -0.1484
   66loPI   C4A 1050   8.116   1.046   7.558  0.2868 -0.0918  0.1274
   66loPI   C5A 1051   7.799   0.960   7.250  0.1145 -0.2650 -0.1633
   66loPI   C6A 1052   7.376   0.992   7.008  0.2252  0.2747 -0.1823
   66loPI   C1B 1053   7.812   1.749   8.657  0.5740  0.1729 -0.2960
   66loPI   C2B 1054   7.775   1.714   8.277  0.0439 -0.0426 -0.0458
   66loPI   C3B 1055   7.775   1.634   7.789  0.0690 -0.1437  0.1527
   66loPI   C4B 1056   7.760   1.505   7.316  0.3391 -0.0441 -0.0409
   67loPI    C1 1057  13.780   5.284   9.463 -0.0818  0.0704  0.0849
   67loPI    C2 1058  13.994   5.019   9.673 -0.2322 -0.1016  0.0233
   67loPI    C3 1059  13.668   5.185   9.834 -0.1497  0.0322  0.0543
   67loPI   PO4 1060  13.955   5.336   9.258 -0.2520 -0.0394 -0.2903
   67loPI   GL1 1061  13.858   5.133   8.828 -0.0507 -0.0613 -0.0038
   67loPI   GL2 1062  13.549   5.109   9.052 -0.1307  0.0650 -0.0755
   67loPI   C1A 1063  14.047   5.153   8.443  0.4632  0.0064  0.2744
   67loPI   C2A 1064  14.027   4.991   8.043  0.0807  0.0924 -0.0178
   67loPI   C3A 1065  13.916   4.778   7.598  0.2054 -0.0009 -0.3557
   67loPI   C4A 1066  14.246   4.565   7.220 -0.1271  0.2946 -0.1887
   67loPI   C5A 1067  14.679   4.556   6.961  0.3053 -0.0058  0.2821
   67loPI   C6A 1068  15.026   4.429   6.766 -0.2037  0.1494 -0.1285
   67loPI   C1B 1069  13.279   5.055   8.698 -0.0848 -0.0725 -0.0203
   67loPI   C2B 1070  13.120   4.816   8.363 -0.3274 -0.1928 -0.1085
   67loPI   C3B 1071  13.029   4.738   7.980 -0.2783  0.2311  0.0668
   67loPI   C4B 1072  12.854   4.881   7.616 -0.0655  0.1269 -0.0873
   68loPI    C1 1073   0.820  10.629  10.336 -0.0263 -0.1023 -0.1309
   68loPI    C2 1074   0.438  10.633  10.457 -0.0430  0.1443 -0.1867
   68loPI    C3 1075   0.733  10.679  10.723 -0.0519 -0.0226 -0.1468
   68loPI   PO4 1076   0.879  10.379  10.198 -0.1779  0.1895  0.0286
   68loPI   GL1 1077   0.984  10.200   9.708  0.1318  0.4097 -0.0870
   68loPI   GL2 1078   0.704  10.371   9.574 -0.3805 -0.0783 -0.1816
   68loPI   C1A 1079   1.156  10.201   9.312 -0.1249 -0.0037  0.2366
   68loPI   C2A 1080   0.978  10.372   8.775  0.3413 -0.1423 -0.0398
   68loPI   C3A 1081   0.838  10.361   8.454  0.1200 -0.0214  0.0693
   68loPI   C4A 1082   0.850  10.139   8.026 -0.0380 -0.1615 -0.1702
   68loPI   C5A 1083   0.902  10.017   7.589 -0.1910 -0.1627 -0.2515
   68loPI   C6A 1084   0.818   9.784   7.231  0.2527 -0.1123  0.4232
   68loPI   C1B 1085   0.573  10.481   9.103  0.1070 -0.0476  0.2032
   68loPI   C2B 1086   0.527  10.095   8.754 -0.0919 -0.0000  0.2211
   68loPI   C3B 1087   0.458  10.087   8.333  0.2375 -0.0611  0.1255
   68loPI   C4B 1088   0.317   9.970   7.972 -0.0380  0.1065  0.0472
   69loPI    C1 1089   7.488   7.927   9.821  0.2109  0.0203 -0.0483
   69loPI    C2 1090   7.573   7.973  10.209  0.1319 -0.0778 -0.0189
   69loPI    C3 1091   7.650   8.269   9.951 -0.1520  0.1302  0.1287
   69loPI   PO4 1092   7.258   7.761   9.786 -0.0758 -0.2571  0.2787
   69loPI   GL1 1093   7.195   7.595   9.485 -0.1249  0.0879 -0.3593
   69loPI   GL2 1094   6.985   7.571   9.336 -0.1586 -0.1347 -0.1277
   69loPI   C1A 1095   7.429   7.543   9.057  0.0148 -0.1609 -0.1403
   69loPI   C2A 1096   7.368   7.728   8.693  0.1534  0.0878 -0.2104
   69loPI   C3A 1097   7.129   8.053   8.418 -0.0003 -0.2065 -0.1008
   69loPI   C4A 1098   7.199   8.453   8.137 -0.3560  0.3563 -0.1836
   69loPI   C5A 1099   7.219   8.855   8.033 -0.1034 -0.1372 -0.2293
   69loPI   C6A 1100   7.115   9.294   8.145  0.1061 -0.2735  0.2026
   69loPI   C1B 1101   6.965   7.384   8.884 -0.0180 -0.0149 -0.2717
   69loPI   C2B 1102   6.968   7.543   8.468 -0.0914  0.0738  0.0483
   69loPI   C3B 1103   6.951   7.706   8.135 -0.2743 -0.1508 -0.0339
   69loPI   C4B 1104   7.039   7.674   7.671  0.1146  0.0491 -0.0333
   70loPI    C1 1105   6.365  13.182  10.262  0.1558  0.2505 -0.1101
   70loPI    C2 1106   6.071  13.449  10.310  0.0553  0.0629  0.3840
   70loPI    C3 1107   5.983  13.071  10.214  0.1614  0.0837  0.2006
   70loPI   PO4 1108   6.518  13.403  10.061 -0.0497  0.2437  0.2619
   70loPI   GL1 1109   6.631  13.436   9.698  0.0061 -0.3685 -0.1772
   70loPI   GL2 1110   6.896  13.304   9.552  0.0631  0.2324 -0.0857
   70loPI   C1A 1111   6.400  13.273   9.302  0.0100  0.0872  0.0329
   70loPI   C2A 1112   6.264  13.084   8.896  0.0118 -0.0697  0.2835
   70loPI   C3A 1113   6.346  13.155   8.399  0.1174  0.3728  0.2154
   70loPI   C4A 1114   6.066  13.034   7.989 -0.1360  0.0976 -0.0983
   70loPI   C5A 1115   5.721  13.112   7.720  0.0501 -0.1036  0.0854
   70loPI   C6A 1116   5.613  12.903   7.294  0.1071  0.1289  0.3372
   70loPI   C1B 1117   6.846  13.282   9.073  0.0593  0.1302  0.2259
   70loPI   C2B 1118   6.715  13.248   8.677 -0.2108 -0.1060 -0.1734
   70loPI   C3B 1119   6.854  13.337   8.215  0.1814 -0.2599 -0.1093
   70loPI   C4B 1120   6.962  13.051   7.941  0.1952 -0.2135 -0.1112
   71loPI    C1 1121   1.294   2.856  10.326 -0.0769  0.0891 -0.0940
   71loPI    C2 1122   1.599   2.897  10.070 -0.0054 -0.0402 -0.0307
   71loPI    C3 1123   1.608   3.083  10.424 -0.0260  0.0006 -0.0515
   71loPI   PO4 1124   1.097   2.740  10.104 -0.0198 -0.0772 -0.0815
   71loPI   GL1 1125   1.118   2.454   9.823 -0.0729 -0.1543 -0.0588
   71loPI   GL2 1126   1.419   2.224   9.693 -0.1511 -0.1749  0.2331
   71loPI   C1A 1127   0.884   2.351   9.423 -0.1322  0.2437 -0.1708
   71loPI   C2A 1128   0.727   2.292   9.017 -0.0396 -0.1062 -0.2600
   71loPI   C3A 1129   0.737   2.352   8.571 -0.1836  0.2535  0.0096
   71loPI   C4A 1130   0.626   2.514   8.157  0.1394  0.1922 -0.1610
   71loPI   C5A 1131   0.566   2.369   7.825 -0.1259 -0.3416 -0.2147
   71loPI   C6A 1132   0.581   2.349   7.372 -0.0046  0.1314 -0.0680
   71loPI   C1B 1133   1.443   2.634   9.456  0.2135 -0.0042 -0.0386
   71loPI   C2B 1134   1.500   2.717   9.150 -0.1459  0.2310 -0.1862
   71loPI   C3B 1135   1.396   2.818   8.733  0.1905 -0.0149  0.3291
   71loPI   C4B 1136   1.500   2.919   8.409  0.1711 -0.4466 -0.1895
   72loPI    C1 1137  12.818  11.817   9.308  0.0327  0.0974  0.0078
   72loPI    C2 1138  13.193  11.958   9.303  0.0702  0.0022  0.0839
   72loPI    C3 1139  12.954  12.036   9.614  0.0592 -0.0207  0.0814
   72loPI   PO4 1140  12.873  11.551   9.321  0.1347 -0.0618  0.0206
   72loPI   GL1 1141  13.012  11.118   9.093 -0.3684 -0.2822  0.0159
   72loPI   GL2 1142  13.219  10.986   8.993 -0.2899  0.2831  0.0539
   72loPI   C1A 1143  12.875  11.336   8.724  0.2245 -0.1562  0.1691
   72loPI   C2A 1144  12.837  11.418   8.306  0.2093  0.0701  0.0396
   72loPI   C3A 1145  12.815  11.312   7.904  0.0478 -0.1151  0.1856
   72loPI   C4A 1146  12.758  11.272   7.481  0.0846 -0.1706  0.2483
   72loPI   C5A 1147  12.478  11.416   7.130  0.3116  0.0054  0.1364
   72loPI   C6A 1148  12.221  11.207   6.855  0.2297 -0.0588  0.1577
   72loPI   C1B 1149  13.341  11.250   8.574  0.0337  0.1514 -0.0730
   72loPI   C2B 1150  13.347  11.352   8.052  0.2217  0.1108 -0.0451
   72loPI   C3B 1151  13.466  11.622   7.682 -0.0112 -0.1546  0.2837
   72loPI   C4B 1152  13.579  11.682   7.322  0.1116  0.0852 -0.1174
   73loPI    C1 1153   5.327  18.092   9.548 -0.0622 -0.0136  0.1230
   73loPI    C2 1154   5.259  17.846   9.240 -0.1118  0.2248 -0.0591
   73loPI    C3 1155   5.010  17.848   9.553 -0.1063  0.0388 -0.0523
   73loPI   PO4 1156   5.429  18.276   9.432  0.3731  0.0272 -0.0839
   73loPI   GL1 1157   5.478  18.269   8.941 -0.1907  0.0310 -0.2273
   73loPI   GL2 1158   5.751  18.142   8.943 -0.1111  0.0661  0.3067
   73loPI   C1A 1159   5.594  18.257   8.474  0.2370  0.4391 -0.0442
   73loPI   C2A 1160   5.538  18.135   8.072 -0.2318  0.0578 -0.0165
   73loPI   C3A 1161   5.389  18.339   7.746  0.0420 -0.1976 -0.2064
   73loPI   C4A 1162   5.023  18.452   7.551 -0.0703 -0.3248 -0.1216
   73loPI   C5A 1163   4.732  18.399   7.274  0.0378  0.0000  0.0824
   73loPI   C6A 1164   4.249  18.257   7.167  0.0964 -0.0157  0.0671
   73loPI   C1B 1165   5.413  17.871   8.730  0.0825  0.2711 -0.0138
   73loPI   C2B 1166   5.268  17.756   8.235 -0.1172 -0.0223  0.3046
   73loPI   C3B 1167   5.291  17.781   7.679 -0.4033  0.0104 -0.2911
   73loPI   C4B 1168   5.313  18.064   7.348 -0.2016  0.0033  0.3338
   74loPI    C1 1169  17.549   0.667   9.793 -0.1243 -0.0106 -0.1197
   74loPI    C2 1170  17.222   0.502   9.952 -0.0251  0.1314  0.2407
   74loPI    C3 1171  17.584   0.373  10.061  0.0439  0.0279 -0.0987
   74loPI   PO4 1172  17.417   0.708   9.558 -0.2219  0.0919 -0.0892
   74loPI   GL1 1173  17.117   0.404   9.407 -0.3867  0.0299 -0.1771
   74loPI   GL2 1174  17.216   0.292   9.150  0.1183  0.1013  0.1985
   74loPI   C1A 1175  17.008   0.674   8.919  0.1209 -0.1376 -0.4788
   74loPI   C2A 1176  17.127   0.939   8.569 -0.0872  0.2662  0.0212
   74loPI   C3A 1177  17.099   1.005   8.119  0.2027  0.0288  0.0093
   74loPI   C4A 1178  17.234   1.088   7.712 -0.0099  0.1764 -0.3001
   74loPI   C5A 1179  17.369   1.128   7.205 -0.1167  0.4072 -0.3501
   74loPI   C6A 1180  17.534   1.462   7.150 -0.0643  0.1629 -0.0892
   74loPI   C1B 1181  17.169   0.222   8.634  0.0656 -0.1248 -0.0075
   74loPI   C2B 1182  17.223   0.484   8.304  0.0065 -0.3023 -0.0719
   74loPI   C3B 1183  17.299   0.619   7.859  0.1240  0.2121 -0.0942
   74loPI   C4B 1184  17.340   0.483   7.525  0.2817  0.2555 -0.1170
   75loPI    C1 1185   9.571   1.876   9.665  0.1167  0.0355 -0.0742
   75loPI    C2 1186   9.286   2.053   9.882  0.0516 -0.0414 -0.0963
   75loPI    C3 1187   9.579   1.848  10.064  0.1980  0.1929 -0.0640
   75loPI   PO4 1188   9.350   1.763   9.413 -0.1686  0.2758 -0.0657
   75loPI   GL1 1189   9.221   1.994   8.942  0.4840 -0.0980 -0.1578
   75loPI   GL2 1190   9.429   1.984   8.944  0.4003 -0.2104  0.1031
   75loPI   C1A 1191   9.025   2.139   8.578  0.0237 -0.0806 -0.1258
   75loPI   C2A 1192   8.847   2.087   8.223  0.0806  0.0092  0.1483
   75loPI   C3A 1193   8.825   2.191   7.844  0.2105 -0.2906 -0.1165
   75loPI   C4A 1194   8.632   2.335   7.586  0.2941  0.1350  0.0237
   75loPI   C5A 1195   8.295   2.467   7.284 -0.2856 -0.1657 -0.1508
   75loPI   C6A 1196   8.030   2.429   6.901  0.2647  0.1453  0.1557
   75loPI   C1B 1197   9.468   2.291   8.603 -0.1688  0.1969 -0.1692
   75loPI   C2B 1198   9.359   2.217   8.209  0.0339  0.2337 -0.4859
   75loPI   C3B 1199   9.356   2.336   7.844 -0.0991  0.3963  0.2063
   75loPI   C4B 1200   9.128   2.481   7.411  0.1913 -0.2222  0.0709
   76loPI    C1 1201   7.232  18.709   9.437 -0.0243  0.1281  0.3205
   76loPI    C2 1202   7.064  18.909   9.741 -0.2769 -0.1906  0.3964
   76loPI    C3 1203   7.265  18.570   9.811  0.1667  0.0380  0.2712
   76loPI   PO4 1204   7.115  18.663   9.242  0.0128  0.0234 -0.1094
   76loPI   GL1 1205   7.086  18.486   8.880  0.1337  0.0835  0.2069
   76loPI   GL2 1206   7.240  18.227   8.896 -0.0264 -0.5557  0.2107
   76loPI   C1A 1207   6.976  18.522   8.457 -0.0539 -0.0677  0.3095
   76loPI   C2A 1208   7.063  18.375   8.084  0.0760  0.0935 -0.1393
   76loPI   C3A 1209   7.052  18.542   7.733  0.2492  0.1564  0.0115
   76loPI   C4A 1210   7.296  18.594   7.383 -0.0531 -0.0744  0.1588
   76loPI   C5A 1211   7.314  18.256   7.049  0.0496 -0.1419 -0.2410
   76loPI   C6A 1212   7.067  18.056   6.715  0.1276  0.1180  0.0429
   76loPI   C1B 1213   7.341  17.973   8.482 -0.3458 -0.0391 -0.0304
   76loPI   C2B 1214   7.405  17.866   8.018  0.1501 -0.3867  0.1123
   76loPI   C3B 1215   7.315  17.695   7.755 -0.1240  0.2203  0.0365
   76loPI   C4B 1216   7.234  17.440   7.391 -0.2564 -0.1167 -0.1756
   77loPI    C1 1217   7.595  12.140  10.449  0.2193 -0.0797 -0.0344
   77loPI    C2 1218   7.436  11.784  10.535 -0.0767  0.0528 -0.0206
   77loPI    C3 1219   7.585  12.012  10.828 -0.3247  0.1447  0.0368
   77loPI   PO4 1220   7.611  12.071  10.116  0.3543 -0.2734 -0.0528
   77loPI   GL1 1221   7.488  11.813   9.816 -0.1147 -0.1285  0.0466
   77loPI   GL2 1222   7.801  11.826   9.737 -0.1599  0.2000  0.2065
   77loPI   C1A 1223   7.374  11.399   9.684 -0.1434 -0.1476 -0.0462
   77loPI   C2A 1224   7.066  10.980   9.594  0.1256 -0.1311 -0.2319
   77loPI   C3A 1225   6.889  10.691   9.387 -0.0154 -0.0823  0.0502
   77loPI   C4A 1226   6.762  10.821   8.887  0.1769  0.2469  0.1636
   77loPI   C5A 1227   6.694  11.137   8.615 -0.3151  0.0219  0.0427
   77loPI   C6A 1228   6.647  11.314   8.204  0.3499 -0.0299  0.0651
   77loPI   C1B 1229   7.625  11.719   9.276  0.2674  0.0737  0.2530
   77loPI   C2B 1230   7.444  11.959   8.973 -0.1460 -0.1289 -0.2054
   77loPI   C3B 1231   7.455  12.367   9.015  0.1146  0.2829 -0.1097
   77loPI   C4B 1232   7.170  12.548   9.307 -0.3398 -0.0230 -0.2091
   78loPI    C1 1233   0.973   4.981  10.483 -0.2219 -0.1557  0.1225
   78loPI    C2 1234   1.101   4.741  10.190  0.1159  0.1574  0.0072
   78loPI    C3 1235   1.181   4.651  10.571  0.1911  0.0562 -0.0320
   78loPI   PO4 1236   1.032   5.235  10.387 -0.2993 -0.1358 -0.2852
   78loPI   GL1 1237   1.138   5.391   9.940 -0.3382  0.1760  0.0428
   78loPI   GL2 1238   0.891   5.563   9.706 -0.2030  0.3868  0.1062
   78loPI   C1A 1239   1.376   5.494   9.561  0.0648  0.0202 -0.0282
   78loPI   C2A 1240   1.449   5.424   9.162 -0.0943  0.1882  0.1171
   78loPI   C3A 1241   1.714   5.547   8.890 -0.2817 -0.2283 -0.0713
   78loPI   C4A 1242   1.832   5.751   8.498  0.0112  0.0119  0.0846
   78loPI   C5A 1243   1.809   6.089   8.169 -0.0013 -0.0141 -0.0930
   78loPI   C6A 1244   1.960   6.212   7.737  0.2473  0.0176  0.0616
   78loPI   C1B 1245   0.988   5.676   9.288 -0.0455 -0.2730 -0.0053
   78loPI   C2B 1246   1.035   5.864   8.798  0.1976 -0.0147  0.0057
   78loPI   C3B 1247   1.182   5.766   8.421 -0.1986  0.5104 -0.1575
   78loPI   C4B 1248   1.261   5.834   8.016  0.4140 -0.2083  0.1678
   79loPI    C1 1249  16.424   0.153   9.346 -0.0840  0.0590  0.0155
   79loPI    C2 1250  16.537  -0.016   9.690  0.0804  0.1804  0.0225
   79loPI    C3 1251  16.149   0.036   9.611  0.0272 -0.1826  0.0272
   79loPI   PO4 1252  16.505   0.393   9.319 -0.3252 -0.0464  0.3944
   79loPI   GL1 1253  16.509   0.634   8.951 -0.2868  0.1754  0.1163
   79loPI   GL2 1254  16.550   0.948   8.794  0.0845 -0.2232 -0.4469
   79loPI   C1A 1255  16.752   0.578   8.520 -0.1567  0.0950 -0.0849
   79loPI   C2A 1256  16.713   0.721   8.182 -0.1401  0.0715 -0.1312
   79loPI   C3A 1257  16.573   0.699   7.760 -0.1380  0.1848 -0.3021
   79loPI   C4A 1258  16.343   0.522   7.485  0.2131  0.1080  0.2326
   79loPI   C5A 1259  15.993   0.235   7.345 -0.0064 -0.1922 -0.0257
   79loPI   C6A 1260  15.637   0.118   7.237  0.0276 -0.2444  0.0333
   79loPI   C1B 1261  16.408   0.973   8.422 -0.2073  0.1653 -0.0248
   79loPI   C2B 1262  16.200   0.855   8.040 -0.4063  0.0912 -0.3322
   79loPI   C3B 1263  15.920   0.752   7.706 -0.1178 -0.0620 -0.1433
   79loPI   C4B 1264  15.719   0.732   7.398  0.0038  0.2366  0.2757
   80loPI    C1 1265   1.696   4.116  10.586 -0.2256 -0.0873 -0.0478
   80loPI    C2 1266   1.780   3.910  10.254 -0.2022  0.0270 -0.1129
   80loPI    C3 1267   1.743   3.719  10.603 -0.5179 -0.1328 -0.2306
   80loPI   PO4 1268   1.660   4.381  10.461 -0.0357  0.0427  0.2618
   80loPI   GL1 1269   1.609   4.518  10.158  0.1806 -0.1631  0.3820
   80loPI   GL2 1270   1.876   4.481   9.885  0.1186  0.2526 -0.3618
   80loPI   C1A 1271   1.320   4.511   9.832 -0.0992  0.5375 -0.0609
   80loPI   C2A 1272   1.253   4.436   9.363  0.1512  0.3057 -0.2490
   80loPI   C3A 1273   1.256   4.420   8.873  0.1066  0.0887 -0.2285
   80loPI   C4A 1274   1.324   4.202   8.486  0.2367  0.2552 -0.2935
   80loPI   C5A 1275   1.419   4.303   8.100  0.1426  0.0330  0.2783
   80loPI   C6A 1276   1.716   4.341   7.864  0.0415  0.3634 -0.1023
   80loPI   C1B 1277   1.923   4.700   9.550  0.0559  0.2105  0.0299
   80loPI   C2B 1278   1.770   4.551   9.146 -0.0840 -0.3100  0.0492
   80loPI   C3B 1279   1.971   4.370   8.746 -0.2860  0.2929  0.0856
   80loPI   C4B 1280   1.888   4.269   8.294 -0.3383  0.0838 -0.1468
   81loPI    C1 1281  15.786  15.967   9.546  0.1900  0.0946  0.1811
   81loPI    C2 1282  15.871  16.330   9.690  0.3449  0.1689 -0.0901
   81loPI    C3 1283  15.867  16.014   9.935  0.5026  0.3064  0.0940
   81loPI   PO4 1284  15.887  16.073   9.275 -0.2450  0.1295  0.1979
   81loPI   GL1 1285  15.738  16.050   8.830  0.2427  0.0459 -0.2844
   81loPI   GL2 1286  15.806  16.358   8.726  0.2608 -0.0903  0.1922
   81loPI   C1A 1287  15.737  15.760   8.458  0.2179 -0.2372  0.1764
   81loPI   C2A 1288  15.662  15.606   8.003  0.2927 -0.0025  0.2368
   81loPI   C3A 1289  15.443  15.734   7.546  0.0051 -0.2560  0.1421
   81loPI   C4A 1290  15.158  15.953   7.301  0.0895 -0.0373 -0.0095
   81loPI   C5A 1291  14.758  15.842   7.006  0.3695 -0.1610  0.2669
   81loPI   C6A 1292  14.395  16.105   6.981  0.1135  0.0700  0.5186
   81loPI   C1B 1293  15.389  16.265   8.458  0.2542  0.0231 -0.0239
   81loPI   C2B 1294  15.457  16.080   8.075 -0.3145 -0.0560  0.1639
   81loPI   C3B 1295  15.790  16.020   7.746  0.2458 -0.3967  0.2063
   81loPI   C4B 1296  15.860  15.939   7.220 -0.0746  0.1954  0.1167
   82loPI    C1 1297  17.329  18.384   9.634  0.0085  0.2128 -0.0272
   82loPI    C2 1298  17.670  18.303   9.826  0.0521  0.0114 -0.1862
   82loPI    C3 1299  17.325  18.310  10.027  0.1379  0.1295 -0.0408
   82loPI   PO4 1300  17.433  18.245   9.393  0.1183  0.1863  0.2475
   82loPI   GL1 1301  17.441  18.379   8.959  0.0504 -0.0623 -0.0252
   82loPI   GL2 1302  17.105  18.266   9.043 -0.0646  0.0306 -0.1980
   82loPI   C1A 1303  17.683  18.533   8.501  0.0758 -0.0587 -0.0705
   82loPI   C2A 1304  18.053  18.541   8.312  0.2326 -0.0557 -0.3258
   82loPI   C3A 1305  18.387  18.518   8.015 -0.4497 -0.0012 -0.1937
   82loPI   C4A 1306  18.772  18.556   7.746 -0.3477 -0.1950 -0.4518
   82loPI   C5A 1307  18.705  18.630   7.361  0.0538 -0.0939 -0.0429
   82loPI   C6A 1308  18.501  19.055   7.202 -0.2420 -0.3296 -0.2055
   82loPI   C1B 1309  17.115  18.234   8.605  0.0077  0.1105  0.0569
   82loPI   C2B 1310  17.209  18.403   8.230  0.0830 -0.1145 -0.0463
   82loPI   C3B 1311  17.507  18.636   8.025  0.3492 -0.1229 -0.1033
   82loPI   C4B 1312  17.527  19.047   7.855  0.1094  0.0495 -0.0943
   83loPI    C1 1313  14.971   9.127  10.125  0.0119  0.0265 -0.1276
   83loPI    C2 1314  15.183   9.438   9.992 -0.0633  0.1234 -0.0221
   83loPI    C3 1315  15.316   9.224  10.303  0.0402 -0.0145 -0.1600
   83loPI   PO4 1316  14.936   8.903   9.839  0.0592  0.0870  0.2000
   83loPI   GL1 1317  15.088   8.741   9.391 -0.1561 -0.1488  0.0199
   83loPI   GL2 1318  15.414   8.872   9.307  0.1313  0.3278 -0.0484
   83loPI   C1A 1319  15.004   8.449   9.040  0.0045  0.2815  0.1455
   83loPI   C2A 1320  15.262   8.385   8.655  0.1688  0.0384 -0.1667
   83loPI   C3A 1321  15.446   8.508   8.227 -0.1962  0.1758 -0.0838
   83loPI   C4A 1322  15.394   8.584   7.797 -0.1824 -0.5219 -0.0278
   83loPI   C5A 1323  15.296   8.559   7.341 -0.0630 -0.0850  0.0547
   83loPI   C6A 1324  15.594   8.517   7.077 -0.5067  0.2218  0.0170
   83loPI   C1B 1325  15.254   8.944   8.928 -0.3455  0.0521  0.0099
   83loPI   C2B 1326  15.099   8.903   8.442  0.1413  0.0299 -0.1243
   83loPI   C3B 1327  15.042   8.776   8.034  0.0410 -0.1082 -0.0709
   83loPI   C4B 1328  14.950   8.846   7.605 -0.2964 -0.1537  0.0055
   84loPI    C1 1329  10.906   9.166   9.324 -0.1493  0.1621 -0.1030
   84loPI    C2 1330  10.748   9.410   9.599 -0.0842  0.1229 -0.0303
   84loPI    C3 1331  10.999   9.119   9.710 -0.2114 -0.0186 -0.1090
   84loPI   PO4 1332  10.699   9.129   9.132  0.3168 -0.0548 -0.2701
   84loPI   GL1 1333  10.732   8.769   8.855 -0.0569  0.0348 -0.1270
   84loPI   GL2 1334  10.534   8.580   9.043 -0.0104  0.0298 -0.1466
   84loPI   C1A 1335  10.952   8.882   8.404  0.1321 -0.0462 -0.3087
   84loPI   C2A 1336  11.151   8.684   8.117  0.1865 -0.0591 -0.0694
   84loPI   C3A 1337  11.444   8.715   7.783  0.4068  0.3339 -0.0095
   84loPI   C4A 1338  11.485   8.763   7.377 -0.2384  0.3001 -0.0279
   84loPI   C5A 1339  11.564   8.894   7.087  0.0425  0.0437  0.0673
   84loPI   C6A 1340  11.800   9.223   6.841  0.3078 -0.0853 -0.1381
   84loPI   C1B 1341  10.219   8.404   8.842  0.0137  0.1118 -0.0007
   84loPI   C2B 1342  10.166   8.195   8.404  0.1478  0.1427  0.0686
   84loPI   C3B 1343   9.921   7.858   8.024  0.0684 -0.0323 -0.1280
   84loPI   C4B 1344   9.992   7.988   7.630 -0.1033  0.1593  0.0220
   85loPI    C1 1345   0.660  15.902   9.627  0.2855  0.0861  0.1764
   85loPI    C2 1346   0.869  16.241   9.583 -0.1189  0.3145 -0.0419
   85loPI    C3 1347   0.870  16.049   9.934  0.1127  0.5411  0.0844
   85loPI   PO4 1348   0.770  15.756   9.498 -0.2758  0.0295  0.1995
   85loPI   GL1 1349   0.532  15.421   9.137 -0.5668 -0.0594  0.2500
   85loPI   GL2 1350   0.264  15.612   8.871 -0.0743 -0.2617 -0.2977
   85loPI   C1A 1351   0.383  15.125   8.840 -0.0323 -0.2235  0.2457
   85loPI   C2A 1352   0.283  15.031   8.373 -0.2313 -0.0897  0.0629
   85loPI   C3A 1353   0.442  15.013   8.071  0.1392  0.0131  0.1567
   85loPI   C4A 1354   0.480  15.232   7.651 -0.1992 -0.0197  0.0687
   85loPI   C5A 1355   0.353  15.201   7.232  0.1836  0.1282  0.2208
   85loPI   C6A 1356   0.122  15.511   6.964 -0.4284  0.1928  0.0605
   85loPI   C1B 1357   0.324  15.546   8.468  0.3572  0.0293 -0.2833
   85loPI   C2B 1358   0.444  15.523   8.075  0.0627 -0.0106  0.1982
   85loPI   C3B 1359   0.787  15.633   7.744 -0.0721 -0.1380  0.1389
   85loPI   C4B 1360   1.114  15.772   7.491  0.0467 -0.0098  0.0934
   86loPI    C1 1361   8.771   7.394  10.125 -0.3692 -0.2311 -0.1402
   86loPI    C2 1362   8.641   7.519  10.482  0.0630 -0.0161 -0.0512
   86loPI    C3 1363   8.966   7.287  10.457  0.0901  0.0464 -0.3111
   86loPI   PO4 1364   8.624   7.262   9.996 -0.0767 -0.1648  0.0448
   86loPI   GL1 1365   8.467   7.026   9.639 -0.0716  0.3665  0.2817
   86loPI   GL2 1366   8.295   7.050   9.410 -0.4797  0.0833 -0.1364
   86loPI   C1A 1367   8.764   6.807   9.257  0.0683 -0.1284 -0.0038
   86loPI   C2A 1368   8.606   6.773   8.769  0.1173 -0.1374  0.2355
   86loPI   C3A 1369   8.340   6.830   8.350  0.2581 -0.1064  0.1575
   86loPI   C4A 1370   8.294   6.918   7.904 -0.1247  0.3017 -0.2192
   86loPI   C5A 1371   8.478   7.288   7.869 -0.1043  0.0968  0.3616
   86loPI   C6A 1372   8.394   7.675   7.994  0.4999  0.2076  0.0329
   86loPI   C1B 1373   8.136   6.957   8.996  0.0751  0.0378 -0.0744
   86loPI   C2B 1374   7.969   7.040   8.601 -0.0707  0.0387  0.2894
   86loPI   C3B 1375   7.834   6.989   8.183  0.2334  0.1549  0.2696
   86loPI   C4B 1376   7.682   7.062   7.687  0.3928 -0.0424 -0.0201
   87loPI    C1 1377  17.966   7.014   9.765 -0.0520 -0.5190  0.3016
   87loPI    C2 1378  17.581   7.120   9.733  0.0605 -0.1811  0.0037
   87loPI    C3 1379  17.807   7.270  10.027  0.1202  0.1164 -0.1898
   87loPI   PO4 1380  18.013   6.988   9.554 -0.1001  0.1600  0.1586
   87loPI   GL1 1381  18.078   6.796   9.204  0.6457  0.1237  0.5930
   87loPI   GL2 1382  18.082   7.051   8.974 -0.0892  0.1735  0.0537
   87loPI   C1A 1383  18.047   6.616   8.780 -0.0562 -0.1643  0.0155
   87loPI   C2A 1384  17.992   6.911   8.441 -0.0338 -0.0759 -0.1765
   87loPI   C3A 1385  18.176   7.140   8.145  0.1877 -0.1172  0.0425
   87loPI   C4A 1386  18.193   7.380   7.784 -0.0242  0.0072  0.4966
   87loPI   C5A 1387  17.859   7.480   7.400  0.3533 -0.1932 -0.0692
   87loPI   C6A 1388  17.916   7.720   6.934 -0.0980  0.2293  0.0021
   87loPI   C1B 1389  18.149   7.328   8.606  0.0428  0.2252 -0.1432
   87loPI   C2B 1390  18.606   7.370   8.399  0.1568 -0.1796 -0.0756
   87loPI   C3B 1391  18.659   7.615   8.039  0.1804  0.1273 -0.1684
   87loPI   C4B 1392  18.822   7.504   7.640  0.2429  0.2366 -0.1768
   88loPI    C1 1393   7.879   9.756  10.418 -0.3257  0.0660  0.3219
   88loPI    C2 1394   7.803  10.090  10.211  0.0924 -0.1050 -0.1284
   88loPI    C3 1395   8.015  10.109  10.550 -0.2020  0.1233  0.0487
   88loPI   PO4 1396   7.908   9.577  10.215  0.0300  0.0904  0.2585
   88loPI   GL1 1397   7.985   9.649   9.739  0.2329  0.0044  0.0210
   88loPI   GL2 1398   8.180   9.303   9.691 -0.1457 -0.4041 -0.2590
   88loPI   C1A 1399   7.770   9.553   9.413 -0.1621  0.1226  0.0257
   88loPI   C2A 1400   7.658   9.681   8.983 -0.0180  0.3876  0.2524
   88loPI   C3A 1401   7.538  10.021   8.722  0.0825  0.1720  0.0328
   88loPI   C4A 1402   7.339  10.066   8.413 -0.0027 -0.3469  0.1629
   88loPI   C5A 1403   7.173   9.785   8.080  0.2440 -0.0444  0.4843
   88loPI   C6A 1404   6.816   9.745   8.094  0.0453 -0.0585 -0.0917
   88loPI   C1B 1405   7.841   9.102   9.470 -0.3334 -0.0060  0.0122
   88loPI   C2B 1406   7.809   8.677   9.309 -0.1556  0.0549 -0.1988
   88loPI   C3B 1407   7.562   8.364   9.401  0.1186  0.1157  0.2760
   88loPI   C4B 1408   7.450   8.001   9.242 -0.1908 -0.1630  0.1639
   89loPI    C1 1409  12.088   9.790   9.586 -0.0602 -0.2426  0.0162
   89loPI    C2 1410  12.396   9.751   9.837  0.0355 -0.1962 -0.0929
   89loPI    C3 1411  12.084   9.979   9.939 -0.0627 -0.4167  0.1101
   89loPI   PO4 1412  12.226   9.895   9.357 -0.2903 -0.0281  0.0063
   89loPI   GL1 1413  12.108  10.117   9.060 -0.0652  0.1373 -0.2326
   89loPI   GL2 1414  12.382  10.162   8.909  0.1347 -0.1245  0.2455
   89loPI   C1A 1415  11.836   9.936   8.669  0.0495 -0.1845 -0.2361
   89loPI   C2A 1416  11.600  10.239   8.382 -0.3530  0.0565  0.3804
   89loPI   C3A 1417  11.698  10.300   7.882 -0.1491 -0.1620  0.4915
   89loPI   C4A 1418  11.585  10.208   7.496 -0.2287  0.0373  0.1765
   89loPI   C5A 1419  11.588   9.984   7.098  0.1810 -0.1904 -0.2958
   89loPI   C6A 1420  11.562   9.799   6.664  0.3985  0.0634 -0.2042
   89loPI   C1B 1421  12.252  10.142   8.391  0.0581 -0.2970 -0.2546
   89loPI   C2B 1422  12.243  10.292   7.892  0.0247 -0.2313  0.0185
   89loPI   C3B 1423  12.549  10.233   7.598  0.1741 -0.0445 -0.2145
   89loPI   C4B 1424  12.674  10.315   7.239 -0.0414  0.0967  0.0446
   90loPI    C1 1425  18.202   3.403   9.941  0.2325 -0.2339 -0.0818
   90loPI    C2 1426  18.048   3.227  10.265  0.0600 -0.2565 -0.1753
   90loPI    C3 1427  17.809   3.421  10.009  0.2088 -0.1498 -0.2351
   90loPI   PO4 1428  18.306   3.271   9.838 -0.2082  0.0295  0.4765
   90loPI   GL1 1429  18.179   3.110   9.423  0.4971  0.1893  0.0711
   90loPI   GL2 1430  18.341   3.389   9.292 -0.4611 -0.0301 -0.0785
   90loPI   C1A 1431  18.147   3.093   8.989 -0.0957  0.0046  0.3232
   90loPI   C2A 1432  18.422   3.277   8.681  0.1781  0.1460  0.0917
   90loPI   C3A 1433  18.412   3.357   8.250  0.0858  0.1152  0.0320
   90loPI   C4A 1434  18.495   3.402   7.830 -0.1373 -0.0427 -0.0947
   90loPI   C5A 1435  18.715   3.660   7.532  0.2235 -0.1208  0.0940
   90loPI   C6A 1436  18.941   3.693   7.106 -0.1294 -0.2530 -0.1752
   90loPI   C1B 1437  18.625   3.447   9.163 -0.1059  0.1373  0.2366
   90loPI   C2B 1438  18.963   3.333   8.822  0.2411 -0.0595 -0.3555
   90loPI   C3B 1439  18.943   3.450   8.363 -0.1599  0.1022  0.0376
   90loPI   C4B 1440  18.962   3.642   7.947  0.0065 -0.1400 -0.1553
   91loPI    C1 1441  18.144   3.802   9.588  0.1129 -0.2336  0.2561
   91loPI    C2 1442  17.918   3.916   9.897  0.0660 -0.0746  0.1640
   91loPI    C3 1443  18.317   3.913   9.931  0.0725  0.2085  0.1393
   91loPI   PO4 1444  17.936   3.569   9.548  0.2339 -0.2912  0.0575
   91loPI   GL1 1445  17.788   3.445   9.283 -0.1850  0.0637  0.2665
   91loPI   GL2 1446  17.698   3.098   9.165 -0.0463  0.0354  0.2349
   91loPI   C1A 1447  18.004   3.551   8.958 -0.1233 -0.1052  0.1440
   91loPI   C2A 1448  17.978   3.565   8.457 -0.1709  0.1516 -0.1706
   91loPI   C3A 1449  18.041   3.723   8.037 -0.1032  0.0061  0.1689
   91loPI   C4A 1450  18.217   4.014   7.790  0.1140 -0.1453  0.2298
   91loPI   C5A 1451  18.578   4.162   7.624  0.1393  0.2895 -0.1140
   91loPI   C6A 1452  18.807   4.466   7.668 -0.1454 -0.0453  0.2672
   91loPI   C1B 1453  17.650   3.210   8.748 -0.2405 -0.1194 -0.0741
   91loPI   C2B 1454  18.012   3.037   8.476  0.1334  0.3064 -0.2296
   91loPI   C3B 1455  18.121   2.580   8.649 -0.0231  0.0726  0.2848
   91loPI   C4B 1456  18.294   2.425   8.895 -0.2692 -0.0658  0.3567
   92loPI    C1 1457  17.863  16.778   9.828  0.3162  0.0144 -0.3443
   92loPI    C2 1458  18.141  16.603  10.055  0.1644  0.0049 -0.1636
   92loPI    C3 1459  17.805  16.407   9.965 -0.0961  0.2678  0.2052
   92loPI   PO4 1460  18.008  16.857   9.520 -0.0264  0.0697 -0.1576
   92loPI   GL1 1461  17.978  16.875   8.975 -0.1083  0.1393  0.0132
   92loPI   GL2 1462  18.063  17.091   8.788  0.2026 -0.1343  0.2669
   92loPI   C1A 1463  17.846  16.601   8.596 -0.3199  0.2808 -0.3574
   92loPI   C2A 1464  17.730  16.460   8.219 -0.2249  0.1123  0.3830
   92loPI   C3A 1465  17.831  16.786   7.863 -0.1532 -0.0071  0.0950
   92loPI   C4A 1466  18.009  16.809   7.480  0.1800 -0.0568 -0.0656
   92loPI   C5A 1467  18.177  16.966   7.268 -0.1720 -0.0069 -0.2474
   92loPI   C6A 1468  17.987  17.174   7.008 -0.4382 -0.1322  0.4238
   92loPI   C1B 1469  18.129  17.033   8.324  0.3838  0.3659 -0.0864
   92loPI   C2B 1470  18.290  16.739   8.112  0.1297 -0.0062  0.3316
   92loPI   C3B 1471  18.465  16.483   7.853 -0.1122 -0.1898  0.0541
   92loPI   C4B 1472  18.402  16.468   7.501  0.2293  0.1166  0.2954
   93loPI    C1 1473   0.554   0.886  10.105 -0.0631  0.0198 -0.0705
   93loPI    C2 1474   0.251   0.749  10.326 -0.2226  0.3178 -0.0985
   93loPI    C3 1475   0.595   0.856  10.501 -0.2570  0.3093 -0.0253
   93loPI   PO4 1476   0.436   1.037   9.961 -0.0046 -0.0924  0.3304
   93loPI   GL1 1477   0.285   1.229   9.449  0.0822 -0.3268 -0.3689
   93loPI   GL2 1478   0.480   1.137   9.427  0.1935 -0.1095 -0.1488
   93loPI   C1A 1479   0.303   1.569   9.284  0.1718 -0.1137 -0.0056
   93loPI   C2A 1480   0.202   1.741   8.876 -0.3892  0.1633  0.3180
   93loPI   C3A 1481   0.582   1.829   8.593  0.0581  0.3008 -0.1441
   93loPI   C4A 1482   0.674   1.923   8.113 -0.0158 -0.3274 -0.1543
   93loPI   C5A 1483   0.774   1.888   7.629 -0.1096  0.2594  0.0931
   93loPI   C6A 1484   0.720   1.863   7.186  0.0050  0.3226 -0.2095
   93loPI   C1B 1485   0.637   1.347   9.031 -0.2038  0.1866  0.2316
   93loPI   C2B 1486   0.872   1.422   8.659  0.3241 -0.1322 -0.0173
   93loPI   C3B 1487   1.055   1.561   8.299  0.2162 -0.5717  0.0624
   93loPI   C4B 1488   0.961   1.571   7.909 -0.1172 -0.3199 -0.0316
   94loPI    C1 1489   8.753   0.931   9.672 -0.1744  0.3366 -0.2382
   94loPI    C2 1490   9.125   1.068   9.728 -0.1473  0.2512 -0.2077
   94loPI    C3 1491   8.819   1.233   9.926 -0.0976  0.1802 -0.0699
   94loPI   PO4 1492   8.710   0.993   9.420 -0.3268  0.0603  0.1804
   94loPI   GL1 1493   8.648   1.300   9.012  0.1265  0.0618 -0.0346
   94loPI   GL2 1494   8.401   1.422   8.910 -0.0041  0.1056  0.3067
   94loPI   C1A 1495   8.773   1.169   8.680  0.0158 -0.2678 -0.3044
   94loPI   C2A 1496   8.871   1.113   8.240 -0.1762  0.0425  0.0468
   94loPI   C3A 1497   9.164   1.140   7.801  0.2054  0.0954 -0.1747
   94loPI   C4A 1498   9.184   1.000   7.429  0.0038  0.2506 -0.1897
   94loPI   C5A 1499   9.262   1.065   7.071 -0.1012 -0.0342  0.4942
   94loPI   C6A 1500   9.682   1.043   6.908  0.2101  0.0090 -0.0643
   94loPI   C1B 1501   8.167   1.496   8.455 -0.1942 -0.0533  0.0651
   94loPI   C2B 1502   8.234   1.629   8.028 -0.5521  0.0938  0.1217
   94loPI   C3B 1503   8.288   1.550   7.653 -0.0498 -0.1430  0.1554
   94loPI   C4B 1504   8.446   1.486   7.177  0.0536 -0.1769 -0.3952
   95loPI    C1 1505  10.387  15.637   9.817 -0.0757 -0.2327 -0.3593
   95loPI    C2 1506  10.469  15.269   9.950  0.0733 -0.1415 -0.1928
   95loPI    C3 1507  10.728  15.566  10.014 -0.0107 -0.0227 -0.3935
   95loPI   PO4 1508  10.368  15.556   9.552 -0.2081 -0.2309  0.3386
   95loPI   GL1 1509  10.331  15.431   9.077  0.1473 -0.0312 -0.0709
   95loPI   GL2 1510  10.391  15.205   8.869  0.1490 -0.0673 -0.0462
   95loPI   C1A 1511  10.233  15.728   8.710  0.0546  0.3372  0.0332
   95loPI   C2A 1512  10.015  15.741   8.303 -0.4756  0.0628 -0.1887
   95loPI   C3A 1513   9.808  15.929   7.921  0.0178 -0.3620  0.0422
   95loPI   C4A 1514   9.675  15.761   7.643 -0.1591  0.0274 -0.0791
   95loPI   C5A 1515   9.588  15.616   7.218  0.1334  0.1950 -0.1851
   95loPI   C6A 1516   9.412  15.505   6.824  0.0511 -0.3381 -0.2577
   95loPI   C1B 1517  10.551  14.871   8.704  0.0573  0.0330  0.1017
   95loPI   C2B 1518  10.856  14.742   8.347  0.1924 -0.1077 -0.0841
   95loPI   C3B 1519  10.996  14.775   7.913 -0.1856  0.2182 -0.3318
   95loPI   C4B 1520  10.874  14.524   7.561 -0.5382  0.0507  0.1815
   96loPI    C1 1521   9.963  17.390   9.663 -0.1359  0.0514 -0.1014
   96loPI    C2 1522  10.148  17.300  10.005 -0.0779 -0.2929 -0.2202
   96loPI    C3 1523   9.768  17.423  10.010  0.0472  0.0999 -0.0020
   96loPI   PO4 1524  10.089  17.216   9.470 -0.1752  0.2086 -0.2521
   96loPI   GL1 1525  10.307  17.101   9.215 -0.0071 -0.1489 -0.1142
   96loPI   GL2 1526  10.392  16.801   9.093  0.1754 -0.3764  0.1096
   96loPI   C1A 1527  10.314  17.243   8.819 -0.1755 -0.0558 -0.2213
   96loPI   C2A 1528  10.302  17.426   8.455  0.2161 -0.1817  0.0583
   96loPI   C3A 1529  10.256  17.694   8.061 -0.0663 -0.1511  0.0367
   96loPI   C4A 1530  10.339  17.843   7.705 -0.1117  0.2897  0.1116
   96loPI   C5A 1531  10.416  18.160   7.189  0.0670 -0.3271 -0.0093
   96loPI   C6A 1532  10.737  18.268   6.865 -0.2981 -0.1902  0.0788
   96loPI   C1B 1533  10.465  16.782   8.680 -0.0820 -0.1320  0.4016
   96loPI   C2B 1534  10.480  16.556   8.253 -0.2163 -0.1038  0.0299
   96loPI   C3B 1535  10.404  16.775   7.792  0.5326  0.1249 -0.2431
   96loPI   C4B 1536  10.603  16.694   7.450  0.1340  0.0184  0.3788
   97loPI    C1 1537  16.936   3.671   9.690  0.0743  0.2094  0.0164
   97loPI    C2 1538  16.663   3.508   9.932  0.0373 -0.0661 -0.2046
   97loPI    C3 1539  16.984   3.692  10.086 -0.1925  0.1266  0.0546
   97loPI   PO4 1540  16.787   3.626   9.445  0.3626  0.1674 -0.1577
   97loPI   GL1 1541  16.703   3.778   9.124 -0.0968  0.3283  0.1758
   97loPI   GL2 1542  16.977   3.903   8.887 -0.0070  0.2753  0.1348
   97loPI   C1A 1543  16.585   3.838   8.608  0.1248 -0.0158  0.0592
   97loPI   C2A 1544  16.704   3.857   8.219  0.1023  0.1160 -0.1289
   97loPI   C3A 1545  17.015   3.937   7.915  0.0262 -0.2406  0.0066
   97loPI   C4A 1546  17.141   4.000   7.388 -0.0677  0.1460 -0.0980
   97loPI   C5A 1547  17.489   4.181   7.250  0.0790  0.0322  0.1108
   97loPI   C6A 1548  17.694   4.519   7.066 -0.0646 -0.1227 -0.0347
   97loPI   C1B 1549  17.208   4.024   8.456  0.4066 -0.0183 -0.0322
   97loPI   C2B 1550  17.369   4.327   8.125  0.2290  0.1410 -0.1251
   97loPI   C3B 1551  17.272   4.370   7.705 -0.2242 -0.2796  0.0330
   97loPI   C4B 1552  17.210   4.568   7.189  0.0671  0.1667  0.1071
   98loPI    C1 1553  18.154  14.512   9.727  0.1532 -0.1503  0.0971
   98loPI    C2 1554  18.282  14.799   9.973  0.1605  0.1240 -0.2188
   98loPI    C3 1555  17.897  14.784   9.867  0.1370 -0.0554 -0.1133
   98loPI   PO4 1556  18.237  14.572   9.517  0.0448  0.1048 -0.0413
   98loPI   GL1 1557  18.194  14.728   9.120  0.1881  0.1185 -0.2631
   98loPI   GL2 1558  18.038  14.913   9.042 -0.1827  0.1828 -0.0581
   98loPI   C1A 1559  18.252  14.743   8.592  0.4471  0.1954  0.0180
   98loPI   C2A 1560  18.265  14.919   8.250 -0.1407 -0.1498 -0.2554
   98loPI   C3A 1561  18.395  15.012   7.896 -0.2332 -0.3288 -0.3633
   98loPI   C4A 1562  18.257  14.984   7.459 -0.2284 -0.2091 -0.0910
   98loPI   C5A 1563  17.912  15.225   7.332 -0.3461  0.1474 -0.1983
   98loPI   C6A 1564  17.606  15.483   7.064  0.3269 -0.1477  0.1110
   98loPI   C1B 1565  17.809  14.919   8.618 -0.1668  0.0330 -0.1182
   98loPI   C2B 1566  17.767  14.858   8.127 -0.1555  0.0838 -0.1299
   98loPI   C3B 1567  17.687  14.808   7.618 -0.4694 -0.1952  0.1497
   98loPI   C4B 1568  17.333  14.769   7.340 -0.2719 -0.6195 -0.0180
   99loPI    C1 1569  16.273  10.399   9.675  0.0360  0.1901  0.2096
   99loPI    C2 1570  16.304  10.062   9.888  0.3079  0.0867  0.0133
   99loPI    C3 1571  16.250  10.412  10.074  0.0658 -0.0571  0.2210
   99loPI   PO4 1572  16.500  10.478   9.459  0.3346  0.0249  0.0456
   99loPI   GL1 1573  16.670  10.573   9.031 -0.1626 -0.0596  0.0825
   99loPI   GL2 1574  16.303  10.418   8.995  0.1187 -0.1864 -0.0269
   99loPI   C1A 1575  16.858  10.543   8.607 -0.4134 -0.1160  0.0817
   99loPI   C2A 1576  16.839  10.720   8.190 -0.2203  0.1324 -0.1233
   99loPI   C3A 1577  17.028  10.435   7.833  0.1979  0.1659 -0.4842
   99loPI   C4A 1578  17.204  10.085   7.657  0.1019  0.0362 -0.3688
   99loPI   C5A 1579  17.288   9.765   7.434  0.1982 -0.0455 -0.2954
   99loPI   C6A 1580  17.596   9.523   7.290  0.4907 -0.2573 -0.1371
   99loPI   C1B 1581  16.234  10.173   8.789 -0.2202  0.1000  0.2024
   99loPI   C2B 1582  16.041  10.116   8.380 -0.3220  0.0319 -0.0263
   99loPI   C3B 1583  15.915  10.473   8.115 -0.1828  0.0036  0.0624
   99loPI   C4B 1584  15.721  10.763   8.349  0.3362  0.2139  0.1299
  100loPI    C1 1585  17.862   2.741   9.482 -0.1610 -0.1750 -0.0438
  100loPI    C2 1586  17.640   2.721   9.813 -0.2102  0.0337 -0.0625
  100loPI    C3 1587  17.766   3.076   9.679  0.1083 -0.0790 -0.0700
  100loPI   PO4 1588  17.831   2.589   9.330 -0.1128  0.1510 -0.0694
  100loPI   GL1 1589  17.681   2.609   8.888 -0.1585  0.3695 -0.1611
  100loPI   GL2 1590  17.766   2.332   8.919 -0.1068 -0.2931  0.0893
  100loPI   C1A 1591  17.623   2.739   8.520  0.1628 -0.0392 -0.1001
  100loPI   C2A 1592  17.735   2.635   8.118 -0.2533 -0.0547 -0.1740
  100loPI   C3A 1593  17.838   2.666   7.727  0.2491 -0.1123  0.0907
  100loPI   C4A 1594  18.143   2.521   7.425 -0.1696 -0.1623 -0.0171
  100loPI   C5A 1595  18.291   2.476   7.023 -0.0612  0.1227  0.0170
  100loPI   C6A 1596  18.676   2.245   6.727 -0.0629 -0.0991 -0.0421
  100loPI   C1B 1597  17.758   2.252   8.464  0.3569  0.1762 -0.0447
  100loPI   C2B 1598  17.571   2.100   8.107  0.0418  0.2534 -0.0584
  100loPI   C3B 1599  17.359   1.981   7.760 -0.0852 -0.3111  0.0570
  100loPI   C4B 1600  17.584   1.748   7.594 -0.3866  0.2665  0.0311
  101loPI    C1 1601   2.378  15.336  10.089 -0.0405 -0.1363  0.1192
  101loPI    C2 1602   2.104  15.504  10.327 -0.0693  0.0086 -0.0148
  101loPI    C3 1603   2.493  15.550  10.407 -0.0822 -0.1633  0.1525
  101loPI   PO4 1604   2.257  15.400   9.824  0.0823 -0.2778 -0.1897
  101loPI   GL1 1605   2.222  15.338   9.356 -0.1196  0.0063 -0.4185
  101loPI   GL2 1606   2.373  15.516   9.145  0.2040 -0.3288  0.4102
  101loPI   C1A 1607   2.039  15.085   9.026  0.1626  0.1984 -0.0358
  101loPI   C2A 1608   1.964  14.905   8.691 -0.0243 -0.1764 -0.0930
  101loPI   C3A 1609   2.170  14.731   8.317 -0.0479  0.0997 -0.0856
  101loPI   C4A 1610   2.144  14.764   7.914  0.1592  0.1884 -0.0738
  101loPI   C5A 1611   2.244  14.882   7.545  0.1804  0.3171 -0.0372
  101loPI   C6A 1612   2.094  14.729   7.208 -0.0624 -0.1235  0.3961
  101loPI   C1B 1613   2.314  15.333   8.650 -0.1527 -0.2824 -0.0560
  101loPI   C2B 1614   2.341  15.208   8.241  0.2031  0.1610  0.2320
  101loPI   C3B 1615   2.147  15.323   7.820 -0.0711 -0.1280  0.2002
  101loPI   C4B 1616   2.062  15.483   7.407  0.0116 -0.0752  0.1280
  102loPI    C1 1617   4.369   2.519  10.414  0.0858  0.0707 -0.0132
  102loPI    C2 1618   4.700   2.674  10.578  0.0251  0.2247 -0.0341
  102loPI    C3 1619   4.662   2.277  10.539  0.1805  0.2036  0.0243
  102loPI   PO4 1620   4.294   2.658  10.173  0.1082  0.0928  0.0656
  102loPI   GL1 1621   4.453   2.580   9.760 -0.2411  0.0661 -0.0972
  102loPI   GL2 1622   4.824   2.796   9.646  0.2254 -0.0890  0.0022
  102loPI   C1A 1623   4.194   2.459   9.343 -0.0152 -0.4661 -0.1567
  102loPI   C2A 1624   4.175   2.298   8.918 -0.1000 -0.1441 -0.0056
  102loPI   C3A 1625   4.171   1.965   8.570 -0.1350 -0.5133 -0.1131
  102loPI   C4A 1626   3.964   1.894   8.224  0.4071  0.0907  0.0741
  102loPI   C5A 1627   3.708   1.862   7.824  0.1118 -0.0454  0.1471
  102loPI   C6A 1628   3.429   2.179   7.671  0.0008  0.1342 -0.2502
  102loPI   C1B 1629   4.621   2.874   9.306 -0.0517 -0.2249 -0.0620
  102loPI   C2B 1630   4.260   3.126   9.068  0.1728 -0.0042  0.2046
  102loPI   C3B 1631   4.236   3.154   8.658  0.1058  0.0535 -0.0477
  102loPI   C4B 1632   4.505   2.921   8.379  0.2137 -0.1674 -0.0521
  103loPI    C1 1633   3.707  11.884  10.609  0.0684 -0.1251 -0.5024
  103loPI    C2 1634   3.426  11.622  10.720  0.0483  0.0938 -0.0119
  103loPI    C3 1635   3.812  11.521  10.740  0.0364  0.0663  0.0845
  103loPI   PO4 1636   3.581  11.950  10.288  0.3282 -0.2255 -0.1674
  103loPI   GL1 1637   3.636  12.122   9.865  0.1966 -0.0273 -0.1081
  103loPI   GL2 1638   3.663  12.360   9.797  0.1079  0.2483 -0.1188
  103loPI   C1A 1639   3.915  12.090   9.445  0.0194  0.1660  0.0559
  103loPI   C2A 1640   3.939  11.914   9.076 -0.1107  0.1092 -0.0007
  103loPI   C3A 1641   4.060  11.760   8.739  0.0416 -0.2089  0.2389
  103loPI   C4A 1642   4.085  11.490   8.296 -0.4029  0.3656 -0.0768
  103loPI   C5A 1643   4.168  11.559   7.850 -0.2131  0.2672 -0.1356
  103loPI   C6A 1644   4.457  11.517   7.427  0.2468 -0.2256  0.0149
  103loPI   C1B 1645   3.433  12.257   9.399 -0.0730  0.1950  0.0680
  103loPI   C2B 1646   3.345  12.341   9.051 -0.0392  0.3423 -0.0206
  103loPI   C3B 1647   3.106  12.072   8.710 -0.0386 -0.3293 -0.0671
  103loPI   C4B 1648   2.880  11.949   8.394 -0.0828  0.2288 -0.0623
  104loPI    C1 1649  13.903  14.158   9.446  0.0621 -0.0086 -0.0660
  104loPI    C2 1650  14.137  14.036   9.747  0.0685 -0.0627 -0.0927
  104loPI    C3 1651  13.902  14.356   9.794  0.1557 -0.0016 -0.0694
  104loPI   PO4 1652  14.163  14.157   9.249  0.1772 -0.1421 -0.0517
  104loPI   GL1 1653  14.074  14.030   8.853 -0.2764 -0.1079 -0.2082
  104loPI   GL2 1654  14.216  14.249   8.640 -0.2368 -0.1869  0.2940
  104loPI   C1A 1655  14.018  13.769   8.511  0.0623 -0.3711  0.1353
  104loPI   C2A 1656  14.025  13.566   8.110 -0.1952  0.1660  0.0190
  104loPI   C3A 1657  14.259  13.367   7.695  0.0355  0.1077  0.2750
  104loPI   C4A 1658  14.232  13.222   7.330  0.4011 -0.0917  0.3280
  104loPI   C5A 1659  14.225  12.953   7.016 -0.0364 -0.3548  0.0202
  104loPI   C6A 1660  14.615  12.800   6.987 -0.1868  0.2277  0.2699
  104loPI   C1B 1661  14.405  14.256   8.304 -0.0540  0.1486 -0.1964
  104loPI   C2B 1662  14.474  14.321   7.823 -0.2639 -0.0478  0.1774
  104loPI   C3B 1663  14.515  14.375   7.466 -0.2765  0.4631 -0.2389
  104loPI   C4B 1664  14.668  14.623   7.211  0.0823 -0.0260  0.3118
  105loPI    C1 1665   1.088  13.916  10.160  0.0723  0.3188  0.1404
  105loPI    C2 1666   0.810  14.085  10.394 -0.0633 -0.0183  0.2278
  105loPI    C3 1667   0.896  13.696  10.434  0.0484 -0.0371 -0.1553
  105loPI   PO4 1668   1.023  13.984   9.934  0.1970 -0.0081 -0.1406
  105loPI   GL1 1669   0.828  13.975   9.573  0.0464 -0.0171  0.1751
  105loPI   GL2 1670   0.527  13.783   9.672  0.1330  0.0768  0.3781
  105loPI   C1A 1671   1.021  13.797   9.083 -0.5705  0.1658  0.1479
  105loPI   C2A 1672   0.982  13.631   8.636 -0.1257 -0.3212  0.0077
  105loPI   C3A 1673   1.175  13.293   8.396 -0.1422 -0.0049 -0.1508
  105loPI   C4A 1674   1.378  13.078   7.996 -0.1150  0.1096 -0.3523
  105loPI   C5A 1675   1.549  12.682   7.717 -0.0727 -0.3453 -0.1164
  105loPI   C6A 1676   1.778  12.361   7.648  0.1694  0.1804  0.3966
  105loPI   C1B 1677   0.525  13.647   9.338  0.1439  0.4182 -0.1635
  105loPI   C2B 1678   0.494  13.793   8.903 -0.0712 -0.1997  0.1423
  105loPI   C3B 1679   0.425  13.649   8.549 -0.4122  0.2756  0.0878
  105loPI   C4B 1680   0.722  13.541   8.170  0.0256  0.1647 -0.0062
  106loPI    C1 1681  12.816   4.722   9.582 -0.2157 -0.1092 -0.0056
  106loPI    C2 1682  13.132   4.529   9.431 -0.1968 -0.0584 -0.0310
  106loPI    C3 1683  13.058   4.515   9.824 -0.0409  0.1044  0.0055
  106loPI   PO4 1684  12.616   4.744   9.343 -0.3671 -0.0526 -0.2206
  106loPI   GL1 1685  12.573   4.930   8.899 -0.1738  0.1121 -0.2999
  106loPI   GL2 1686  12.357   5.098   9.073 -0.2443  0.0154  0.1555
  106loPI   C1A 1687  12.626   4.788   8.591 -0.1495 -0.0937 -0.0339
  106loPI   C2A 1688  12.610   4.689   8.217 -0.1089  0.0182 -0.0860
  106loPI   C3A 1689  12.464   4.746   7.846  0.3294 -0.4482  0.0446
  106loPI   C4A 1690  12.367   4.777   7.402 -0.0694  0.3019  0.1165
  106loPI   C5A 1691  12.246   4.444   7.103 -0.3225  0.1167 -0.0559
  106loPI   C6A 1692  12.042   4.498   6.720 -0.0189  0.1248 -0.1297
  106loPI   C1B 1693  12.321   5.328   8.599 -0.1016 -0.0778 -0.0634
  106loPI   C2B 1694  12.229   5.575   8.203 -0.0544  0.3376  0.0451
  106loPI   C3B 1695  12.285   5.922   7.885  0.3902  0.3184 -0.1371
  106loPI   C4B 1696  12.428   6.080   7.585 -0.1928 -0.2109 -0.1965
  107loPI    C1 1697   3.331   7.891  10.265 -0.0874  0.0867 -0.0635
  107loPI    C2 1698   3.188   7.643  10.544 -0.1705 -0.1531 -0.3150
  107loPI    C3 1699   3.575   7.629  10.444 -0.0673  0.1622  0.0201
  107loPI   PO4 1700   3.135   7.830  10.090 -0.0748  0.0895 -0.0522
  107loPI   GL1 1701   3.069   7.899   9.625  0.1859 -0.3399  0.2897
  107loPI   GL2 1702   3.034   8.194   9.674 -0.3228 -0.3560 -0.5937
  107loPI   C1A 1703   2.960   7.634   9.336 -0.1582  0.0021 -0.3375
  107loPI   C2A 1704   2.934   7.579   8.848 -0.1415 -0.1062 -0.2705
  107loPI   C3A 1705   2.994   7.397   8.376  0.1141 -0.2207 -0.1213
  107loPI   C4A 1706   3.135   7.543   7.950  0.2435 -0.2922 -0.1662
  107loPI   C5A 1707   3.459   7.546   7.646  0.0596 -0.0776  0.1030
  107loPI   C6A 1708   3.526   7.685   7.238 -0.4425  0.1389 -0.2069
  107loPI   C1B 1709   2.965   8.108   9.199  0.0260  0.1239 -0.0377
  107loPI   C2B 1710   2.798   8.129   8.724 -0.2580  0.1204 -0.1482
  107loPI   C3B 1711   2.968   7.920   8.353 -0.1671  0.1219  0.0584
  107loPI   C4B 1712   3.160   8.028   7.973  0.2900 -0.0478 -0.0111
  108loPI    C1 1713  14.511  18.676   9.652 -0.1439  0.0472  0.1628
  108loPI    C2 1714  14.170  18.497   9.542 -0.0756  0.0334 -0.0294
  108loPI    C3 1715  14.204  18.654   9.908 -0.2394 -0.0871  0.0387
  108loPI   PO4 1716  14.557  18.801   9.400  0.2782 -0.0986 -0.3624
  108loPI   GL1 1717  14.246  18.648   9.075  0.0880  0.0937  0.2922
  108loPI   GL2 1718  14.527  18.588   8.951  0.0811  0.0301  0.2671
  108loPI   C1A 1719  14.164  18.830   8.739 -0.1262 -0.0156 -0.1472
  108loPI   C2A 1720  13.916  19.033   8.442 -0.1056  0.3022 -0.1892
  108loPI   C3A 1721  13.921  19.010   7.955  0.1437  0.1072  0.2107
  108loPI   C4A 1722  13.837  19.286   7.470 -0.0736  0.1741  0.0624
  108loPI   C5A 1723  13.883  19.467   7.023 -0.0817  0.2237 -0.1618
  108loPI   C6A 1724  14.301  19.599   6.955 -0.2652 -0.1580  0.1687
  108loPI   C1B 1725  14.341  18.263   8.723 -0.1618 -0.1208 -0.1114
  108loPI   C2B 1726  14.137  18.016   8.484  0.1472  0.1315 -0.1128
  108loPI   C3B 1727  14.310  17.948   8.157  0.0331 -0.2656 -0.3619
  108loPI   C4B 1728  14.381  18.255   7.813 -0.2976  0.1416  0.0324
  109loPI    C1 1729  14.775   0.425   9.648  0.2199 -0.0316 -0.0429
  109loPI    C2 1730  14.870   0.073   9.811  0.2883  0.0827  0.1681
  109loPI    C3 1731  14.736   0.370  10.042 -0.4605 -0.0269 -0.0964
  109loPI   PO4 1732  14.662   0.245   9.375  0.2260 -0.2138 -0.1521
  109loPI   GL1 1733  14.375   0.306   9.016 -0.1677 -0.2131  0.1414
  109loPI   GL2 1734  14.553   0.576   8.956 -0.5640  0.1219  0.0179
  109loPI   C1A 1735  14.394   0.074   8.625 -0.0888 -0.3133 -0.0587
  109loPI   C2A 1736  14.380  -0.156   8.252  0.1458  0.0621 -0.0495
  109loPI   C3A 1737  14.360  -0.403   7.933 -0.2077  0.0404  0.5141
  109loPI   C4A 1738  14.151  -0.479   7.575  0.0953 -0.1041 -0.0586
  109loPI   C5A 1739  14.409  -0.551   7.262  0.0536  0.1092 -0.0191
  109loPI   C6A 1740  14.234  -0.275   6.942  0.1132 -0.1865  0.0771
  109loPI   C1B 1741  14.737   0.558   8.585 -0.0039  0.0837  0.0629
  109loPI   C2B 1742  14.667   0.872   8.305  0.0231  0.0186  0.1849
  109loPI   C3B 1743  14.358   0.914   7.928  0.1819 -0.0447 -0.3426
  109loPI   C4B 1744  14.319   0.596   7.770  0.0227  0.0183  0.0040
  110loPI    C1 1745  18.484   2.252   9.940  0.0085 -0.0131 -0.0929
  110loPI    C2 1746  18.814   2.133  10.132 -0.0518  0.1976  0.1459
  110loPI    C3 1747  18.474   1.926  10.172  0.0681 -0.0703 -0.1699
  110loPI   PO4 1748  18.512   2.279   9.724 -0.2276  0.0036  0.1446
  110loPI   GL1 1749  18.721   2.629   9.459  0.0567  0.1886 -0.1833
  110loPI   GL2 1750  18.403   2.689   9.311  0.1058 -0.1160 -0.0615
  110loPI   C1A 1751  19.043   2.967   9.214  0.0456 -0.0085  0.0677
  110loPI   C2A 1752  19.377   2.976   8.908 -0.2738 -0.0125  0.4687
  110loPI   C3A 1753  19.492   3.120   8.476  0.1899 -0.3371  0.1849
  110loPI   C4A 1754  19.351   3.215   8.088  0.2230  0.1750  0.0790
  110loPI   C5A 1755  19.026   3.204   7.764  0.1899 -0.0179  0.3329
  110loPI   C6A 1756  19.112   2.959   7.582 -0.2343 -0.1172 -0.0307
  110loPI   C1B 1757  18.657   2.750   8.957  0.1420 -0.3964  0.1344
  110loPI   C2B 1758  18.543   2.789   8.509 -0.2633  0.0801 -0.0824
  110loPI   C3B 1759  18.322   2.849   8.128  0.2036 -0.0992 -0.0973
  110loPI   C4B 1760  18.028   3.210   7.951  0.1625 -0.0163  0.1725
  111loPI    C1 1761   9.777   2.304   9.461 -0.2652  0.0861  0.1103
  111loPI    C2 1762  10.139   2.247   9.622 -0.1922 -0.0761 -0.1059
  111loPI    C3 1763   9.817   2.275   9.858 -0.0132  0.2945  0.1030
  111loPI   PO4 1764   9.799   2.123   9.293 -0.5777  0.1542 -0.2896
  111loPI   GL1 1765  10.278   2.263   9.112 -0.0921  0.1309 -0.0831
  111loPI   GL2 1766  10.517   2.178   8.935 -0.0019 -0.4086 -0.0262
  111loPI   C1A 1767  10.055   2.433   8.725 -0.1374  0.3689  0.1534
  111loPI   C2A 1768   9.996   2.580   8.292 -0.0610  0.1116  0.2632
  111loPI   C3A 1769   9.820   2.537   7.970  0.1862 -0.2488 -0.0558
  111loPI   C4A 1770   9.742   2.629   7.591 -0.0285 -0.2493 -0.1672
  111loPI   C5A 1771   9.499   2.700   7.175  0.2388 -0.0653  0.2662
  111loPI   C6A 1772   9.090   2.980   7.041  0.2752  0.2100 -0.0333
  111loPI   C1B 1773  10.360   2.099   8.450 -0.2337 -0.1415  0.0863
  111loPI   C2B 1774  10.250   2.246   8.054 -0.0431  0.1712  0.0101
  111loPI   C3B 1775  10.137   2.147   7.520  0.3562  0.2440  0.0162
  111loPI   C4B 1776  10.109   2.397   7.200  0.0371  0.0723  0.2330
  112loPI    C1 1777  16.267  11.789   9.762 -0.1823  0.1646  0.0470
  112loPI    C2 1778  15.877  11.717   9.814 -0.1525 -0.1114 -0.0927
  112loPI    C3 1779  16.147  11.444   9.926 -0.0028  0.0412 -0.0773
  112loPI   PO4 1780  16.240  11.887   9.415  0.4952  0.0154  0.2017
  112loPI   GL1 1781  16.422  11.827   8.988  0.1758 -0.1105  0.3504
  112loPI   GL2 1782  16.336  11.453   9.003  0.0818  0.1569 -0.0072
  112loPI   C1A 1783  16.308  12.233   8.783  0.0377 -0.0829 -0.2462
  112loPI   C2A 1784  16.591  12.526   8.610 -0.0880  0.2228 -0.2349
  112loPI   C3A 1785  17.007  12.634   8.361 -0.1853  0.0827 -0.1807
  112loPI   C4A 1786  17.292  12.916   8.211  0.0847 -0.0436 -0.1873
  112loPI   C5A 1787  17.535  12.958   7.827  0.1075  0.1512  0.3279
  112loPI   C6A 1788  17.740  13.097   7.451  0.0487  0.0548 -0.0853
  112loPI   C1B 1789  16.313  11.480   8.536 -0.1624 -0.0686  0.3640
  112loPI   C2B 1790  16.484  11.447   8.115  0.0180  0.0875  0.1567
  112loPI   C3B 1791  16.564  11.060   7.827 -0.0441 -0.0432  0.1231
  112loPI   C4B 1792  16.844  10.780   7.552 -0.0732 -0.1139 -0.0816
  113loPI    C1 1793   9.156  17.329   9.293 -0.1690  0.0328 -0.0127
  113loPI    C2 1794   9.389  17.515   9.559  0.0026  0.0761 -0.1905
  113loPI    C3 1795   8.999  17.603   9.538  0.0130  0.1627 -0.0394
  113loPI   PO4 1796   9.349  17.392   9.068 -0.0859 -0.0111  0.1458
  113loPI   GL1 1797   9.776  17.519   9.040 -0.1384  0.0169 -0.0337
  113loPI   GL2 1798   9.892  17.303   9.054 -0.1876  0.0488 -0.1072
  113loPI   C1A 1799   9.874  17.623   8.558 -0.0991 -0.1495  0.1299
  113loPI   C2A 1800   9.747  17.482   8.175 -0.0462 -0.0395 -0.1381
  113loPI   C3A 1801   9.761  17.387   7.760 -0.0710  0.0272 -0.0978
  113loPI   C4A 1802   9.440  17.146   7.621  0.1608 -0.2114  0.0716
  113loPI   C5A 1803   9.231  16.939   7.321 -0.1420  0.2260  0.0673
  113loPI   C6A 1804   9.079  16.908   6.918  0.0882 -0.1759 -0.3536
  113loPI   C1B 1805   9.700  17.195   8.609  0.0143  0.2564  0.2711
  113loPI   C2B 1806   9.625  17.010   8.174 -0.0364  0.0964 -0.3792
  113loPI   C3B 1807   9.386  16.803   8.026 -0.0280 -0.2264 -0.2578
  113loPI   C4B 1808   9.053  16.534   7.773  0.2455  0.0298 -0.0209
  114loPI    C1 1809   1.992   8.284  10.456 -0.0684 -0.0716  0.0987
  114loPI    C2 1810   2.312   8.201  10.231 -0.1368  0.0117 -0.0307
  114loPI    C3 1811   2.322   8.134  10.626  0.0103 -0.0644 -0.0465
  114loPI   PO4 1812   1.981   8.507  10.360 -0.0177 -0.1364  0.0558
  114loPI   GL1 1813   1.972   8.496   9.961  0.2671  0.0679 -0.1697
  114loPI   GL2 1814   1.966   8.676   9.630 -0.2600  0.0140 -0.3846
  114loPI   C1A 1815   2.356   8.467   9.691 -0.4240  0.3129 -0.0375
  114loPI   C2A 1816   2.265   8.598   9.227 -0.0094  0.1249 -0.0333
  114loPI   C3A 1817   2.169   8.663   8.817  0.2992 -0.3537  0.2145
  114loPI   C4A 1818   1.878   8.458   8.539 -0.0530 -0.1079  0.0727
  114loPI   C5A 1819   1.407   8.453   8.438 -0.0018  0.1258 -0.3220
  114loPI   C6A 1820   1.103   8.506   8.051  0.0384  0.1127  0.1573
  114loPI   C1B 1821   1.762   8.691   9.293 -0.1292 -0.0852 -0.0909
  114loPI   C2B 1822   1.667   8.728   8.910  0.3012 -0.1950 -0.2333
  114loPI   C3B 1823   1.389   8.933   8.583 -0.0054 -0.0686  0.4024
  114loPI   C4B 1824   1.153   8.938   8.319  0.2552  0.0427 -0.2153
  115loPI    C1 1825  10.275  12.135  10.071 -0.1027 -0.2170  0.0831
  115loPI    C2 1826  10.413  11.799   9.903 -0.1699 -0.1563 -0.0964
  115loPI    C3 1827  10.042  11.811  10.051 -0.0763 -0.2404  0.1509
  115loPI   PO4 1828  10.310  12.352   9.772  0.0383 -0.0814 -0.2936
  115loPI   GL1 1829  10.346  12.523   9.456  0.0095  0.1158 -0.1600
  115loPI   GL2 1830  10.044  12.512   9.329 -0.0404 -0.0075 -0.1662
  115loPI   C1A 1831  10.436  12.831   9.182  0.0432  0.2541 -0.0324
  115loPI   C2A 1832  10.524  13.161   8.830  0.0526  0.2339 -0.1781
  115loPI   C3A 1833  10.573  13.185   8.375  0.0709  0.2373 -0.0721
  115loPI   C4A 1834  10.367  13.154   7.976  0.0543  0.2284  0.2470
  115loPI   C5A 1835  10.468  13.258   7.592  0.3074 -0.2194  0.2695
  115loPI   C6A 1836  10.374  13.097   7.154  0.0183  0.2050  0.3087
  115loPI   C1B 1837   9.865  12.395   9.079 -0.1366  0.1203 -0.0356
  115loPI   C2B 1838   9.889  12.496   8.640  0.2437  0.2404 -0.0266
  115loPI   C3B 1839   9.668  12.563   8.226 -0.0716  0.3372 -0.0244
  115loPI   C4B 1840   9.318  12.759   7.966  0.3511 -0.1190  0.1393
  116loPI    C1 1841   8.265  11.220  10.376 -0.1236 -0.0391 -0.1932
  116loPI    C2 1842   8.410  11.481  10.643 -0.1232 -0.0856 -0.1477
  116loPI    C3 1843   8.538  11.102  10.643 -0.3114 -0.1504 -0.0473
  116loPI   PO4 1844   8.192  11.384  10.151 -0.2050  0.2326 -0.4077
  116loPI   GL1 1845   8.109  11.346   9.778 -0.0046  0.1106  0.0689
  116loPI   GL2 1846   8.270  11.613   9.587 -0.0442 -0.2030 -0.1584
  116loPI   C1A 1847   7.803  11.221   9.488 -0.4508 -0.3661  0.0711
  116loPI   C2A 1848   7.548  11.245   9.133 -0.1744  0.0495  0.1023
  116loPI   C3A 1849   7.574  11.430   8.787  0.1691 -0.1308 -0.2870
  116loPI   C4A 1850   7.397  11.583   8.335 -0.1491 -0.0604 -0.1432
  116loPI   C5A 1851   7.028  11.535   7.962 -0.2660  0.1180 -0.2023
  116loPI   C6A 1852   7.000  11.417   7.529 -0.1442 -0.3288  0.1358
  116loPI   C1B 1853   8.138  11.893   9.303  0.1309  0.1073  0.0292
  116loPI   C2B 1854   7.932  11.801   8.930  0.1361 -0.0726  0.0192
  116loPI   C3B 1855   7.729  11.969   8.581  0.0321 -0.0994  0.0236
  116loPI   C4B 1856   7.674  12.322   8.404 -0.1234 -0.2523  0.2936
  117loPI    C1 1857  15.117  18.513   9.371  0.0603  0.4094  0.0541
  117loPI    C2 1858  14.958  18.442   9.731  0.1128  0.1732  0.0323
  117loPI    C3 1859  15.347  18.375   9.667  0.0300 -0.1395 -0.1669
  117loPI   PO4 1860  14.995  18.662   9.203 -0.1014  0.0835 -0.0922
  117loPI   GL1 1861  14.955  18.619   8.733 -0.1689 -0.2379 -0.2105
  117loPI   GL2 1862  15.114  18.909   8.790 -0.0467  0.1350 -0.1075
  117loPI   C1A 1863  14.648  18.522   8.342 -0.0080 -0.1121  0.1143
  117loPI   C2A 1864  14.748  18.540   7.986 -0.1243 -0.2317 -0.3806
  117loPI   C3A 1865  14.658  18.682   7.619  0.0391  0.0495 -0.3832
  117loPI   C4A 1866  14.738  18.470   7.236 -0.2457 -0.1332 -0.2848
  117loPI   C5A 1867  14.526  18.158   6.949 -0.4258  0.0480  0.2268
  117loPI   C6A 1868  14.653  17.964   6.527 -0.1109 -0.2983 -0.1040
  117loPI   C1B 1869  15.237  18.804   8.289  0.0854  0.1268  0.0968
  117loPI   C2B 1870  15.233  18.644   7.878 -0.0183 -0.2677  0.1058
  117loPI   C3B 1871  15.197  18.545   7.505 -0.3269  0.2568  0.1479
  117loPI   C4B 1872  15.261  18.459   7.058 -0.0772 -0.3782  0.1923
  118loPI    C1 1873   2.062   0.888   9.740  0.0770  0.1153  0.2241
  118loPI    C2 1874   2.059   0.950  10.135 -0.2317  0.1029  0.2264
  118loPI    C3 1875   1.729   1.018   9.920 -0.0952  0.0133 -0.0155
  118loPI   PO4 1876   2.211   0.643   9.760 -0.0294 -0.0595  0.0010
  118loPI   GL1 1877   2.363   0.602   9.345 -0.4383 -0.1482  0.5357
  118loPI   GL2 1878   2.480   0.981   9.437  0.0843 -0.4260  0.1521
  118loPI   C1A 1879   2.430   0.285   9.019 -0.0855  0.1447 -0.0374
  118loPI   C2A 1880   2.484   0.252   8.619  0.2891  0.1572 -0.0754
  118loPI   C3A 1881   2.579   0.370   8.176 -0.2373 -0.1873 -0.4107
  118loPI   C4A 1882   2.542   0.379   7.787  0.0995 -0.0258 -0.2347
  118loPI   C5A 1883   2.600   0.680   7.419  0.0597 -0.1254 -0.0187
  118loPI   C6A 1884   2.404   0.923   7.058  0.0966 -0.1110 -0.1030
  118loPI   C1B 1885   2.494   0.954   8.979  0.3013  0.1140 -0.3621
  118loPI   C2B 1886   2.536   0.824   8.630  0.0052  0.2311  0.0476
  118loPI   C3B 1887   2.624   0.913   8.212  0.1915  0.0993 -0.0871
  118loPI   C4B 1888   2.727   1.028   7.768 -0.2547  0.1959 -0.0988
  119loPI    C1 1889   4.243  13.114  10.102  0.0919  0.3368  0.0196
  119loPI    C2 1890   4.054  13.370  10.345  0.2181  0.3060  0.1518
  119loPI    C3 1891   4.358  13.150  10.484  0.0899  0.0590  0.0485
  119loPI   PO4 1892   4.369  13.366   9.923  0.1738 -0.0165 -0.1841
  119loPI   GL1 1893   4.333  13.609   9.622 -0.3500 -0.2958  0.3802
  119loPI   GL2 1894   4.041  13.841   9.886  0.0579  0.1174  0.1182
  119loPI   C1A 1895   4.440  13.486   9.171 -0.0915  0.2558  0.1861
  119loPI   C2A 1896   4.447  13.348   8.692 -0.1259  0.2117  0.0654
  119loPI   C3A 1897   4.631  13.455   8.302  0.3987 -0.2515 -0.0903
  119loPI   C4A 1898   4.805  13.320   8.006  0.2152  0.3810 -0.0469
  119loPI   C5A 1899   5.069  13.022   7.722 -0.0058  0.2646 -0.1807
  119loPI   C6A 1900   5.321  12.700   7.681  0.0931  0.0976  0.0615
  119loPI   C1B 1901   4.069  13.959   9.435 -0.0345  0.1470  0.1813
  119loPI   C2B 1902   3.855  14.056   9.144 -0.2171  0.3091 -0.1289
  119loPI   C3B 1903   3.567  13.962   8.873  0.0310 -0.1333  0.1903
  119loPI   C4B 1904   3.519  13.804   8.500 -0.2556  0.0471  0.1484
  120loPI    C1 1905   5.519   0.015   9.229 -0.0561 -0.0609  0.1172
  120loPI    C2 1906   5.859  -0.195   9.225  0.0623  0.1314 -0.0253
  120loPI    C3 1907   5.856   0.179   9.368 -0.0377  0.2125 -0.2351
  120loPI   PO4 1908   5.331  -0.142   9.230  0.0106 -0.0074 -0.3125
  120loPI   GL1 1909   5.060  -0.352   8.890  0.0620  0.1549  0.1474
  120loPI   GL2 1910   4.775  -0.508   8.907  0.0243  0.0950  0.0647
  120loPI   C1A 1911   5.099  -0.233   8.486 -0.0500 -0.0076  0.1801
  120loPI   C2A 1912   5.285  -0.108   8.083  0.0034 -0.2919 -0.1098
  120loPI   C3A 1913   5.122   0.064   7.625 -0.2163  0.3946  0.0878
  120loPI   C4A 1914   4.871  -0.099   7.439  0.0638  0.3464  0.1205
  120loPI   C5A 1915   4.923  -0.315   7.138 -0.0235  0.0555 -0.1483
  120loPI   C6A 1916   5.110  -0.727   7.003  0.0567  0.1098  0.1890
  120loPI   C1B 1917   4.733  -0.560   8.525  0.0229 -0.2888 -0.0586
  120loPI   C2B 1918   4.700  -0.811   8.218  0.0135 -0.1012 -0.5311
  120loPI   C3B 1919   4.625  -0.910   7.856 -0.1912  0.1759 -0.0567
  120loPI   C4B 1920   4.175  -1.020   7.618 -0.2261  0.1972  0.0089
  121loPI    C1 1921   4.391   8.245  10.690  0.0218  0.4000 -0.0786
  121loPI    C2 1922   4.060   8.079  10.841  0.0520  0.1239 -0.3081
  121loPI    C3 1923   4.081   8.476  10.793 -0.0832  0.1847  0.0966
  121loPI   PO4 1924   4.579   8.080  10.428  0.0949  0.3676 -0.0648
  121loPI   GL1 1925   4.646   8.034  10.113 -0.1101  0.3869 -0.0259
  121loPI   GL2 1926   4.451   8.234   9.910  0.0159  0.0729 -0.0040
  121loPI   C1A 1927   4.605   7.805   9.718  0.1149 -0.0330 -0.0343
  121loPI   C2A 1928   4.488   7.428   9.509 -0.0646  0.0325 -0.0948
  121loPI   C3A 1929   4.464   7.214   9.065  0.0259 -0.0116  0.1673
  121loPI   C4A 1930   4.256   7.142   8.759 -0.1185  0.0861  0.3636
  121loPI   C5A 1931   4.192   7.066   8.354 -0.1072  0.2857 -0.0591
  121loPI   C6A 1932   3.832   6.904   8.041 -0.3769  0.5040  0.3061
  121loPI   C1B 1933   4.507   8.241   9.515 -0.0727 -0.2086  0.2822
  121loPI   C2B 1934   4.513   7.941   9.228 -0.4747  0.1797 -0.0444
  121loPI   C3B 1935   4.247   7.666   8.953  0.0255 -0.3261 -0.3099
  121loPI   C4B 1936   3.907   7.406   9.039 -0.1953 -0.0034 -0.1172
  122loPI    C1 1937   6.899   5.580  10.052  0.2121  0.0696  0.0390
  122loPI    C2 1938   6.988   5.870   9.792 -0.0438  0.2265  0.1230
  122loPI    C3 1939   6.915   5.960  10.175 -0.3931  0.0873  0.0927
  122loPI   PO4 1940   7.087   5.402  10.059 -0.3078  0.1164 -0.1146
  122loPI   GL1 1941   7.250   5.373   9.698 -0.4243  0.4376 -0.1700
  122loPI   GL2 1942   7.516   5.266   9.578  0.1062 -0.0753  0.2544
  122loPI   C1A 1943   7.174   5.564   9.252 -0.1097 -0.2297  0.3892
  122loPI   C2A 1944   7.051   5.633   8.849  0.3168  0.0819  0.3564
  122loPI   C3A 1945   7.165   5.819   8.430  0.0273  0.2260  0.0699
  122loPI   C4A 1946   7.210   5.826   8.019 -0.1081  0.0060  0.0043
  122loPI   C5A 1947   7.232   5.621   7.729 -0.1230  0.2662  0.4139
  122loPI   C6A 1948   7.424   5.389   7.418 -0.3018 -0.2081  0.3553
  122loPI   C1B 1949   7.639   5.360   9.269 -0.1758  0.2203  0.1288
  122loPI   C2B 1950   7.437   5.272   8.910  0.1206  0.1555  0.0475
  122loPI   C3B 1951   7.363   5.347   8.626 -0.3017 -0.0242 -0.0687
  122loPI   C4B 1952   7.481   5.180   8.341 -0.0188 -0.1587 -0.0363
  123loPI    C1 1953  17.735   9.653  10.315  0.0461  0.1326  0.0143
  123loPI    C2 1954  17.352   9.545  10.269  0.0165  0.2800 -0.0883
  123loPI    C3 1955  17.469   9.729  10.604 -0.0195  0.3064 -0.0902
  123loPI   PO4 1956  17.755   9.594   9.965 -0.1749  0.3736  0.0402
  123loPI   GL1 1957  17.688   9.252   9.615  0.3881 -0.0848 -0.1714
  123loPI   GL2 1958  17.394   9.425   9.465  0.3728 -0.4065  0.0654
  123loPI   C1A 1959  17.757   9.092   9.197 -0.1303  0.0105 -0.0841
  123loPI   C2A 1960  18.075   9.125   8.888 -0.0110  0.1036 -0.2494
  123loPI   C3A 1961  18.161   8.839   8.542  0.1227 -0.0743 -0.0322
  123loPI   C4A 1962  18.120   8.662   8.032 -0.0858  0.0372 -0.0424
  123loPI   C5A 1963  18.108   8.268   7.828  0.0207  0.5052 -0.1003
  123loPI   C6A 1964  18.276   7.902   7.795 -0.3889  0.2549 -0.1201
  123loPI   C1B 1965  17.367   9.285   8.919 -0.3023 -0.2727 -0.0074
  123loPI   C2B 1966  17.277   9.289   8.466 -0.4110 -0.1627  0.1388
  123loPI   C3B 1967  17.082   9.135   8.107  0.2379  0.1533  0.2288
  123loPI   C4B 1968  16.656   8.996   8.087 -0.1335 -0.0884  0.2161
  124loPI    C1 1969   3.557   8.747  10.365 -0.0069 -0.3336 -0.0852
  124loPI    C2 1970   3.938   8.822  10.462 -0.1576  0.0448  0.2393
  124loPI    C3 1971   3.667   8.756  10.749 -0.3770 -0.0287  0.0189
  124loPI   PO4 1972   3.477   8.880  10.174 -0.3254  0.0672 -0.0660
  124loPI   GL1 1973   3.281   8.877   9.735 -0.0013 -0.4752 -0.3171
  124loPI   GL2 1974   3.479   9.125   9.672 -0.2529 -0.0263 -0.1663
  124loPI   C1A 1975   3.254   8.553   9.428 -0.1947  0.1045  0.1016
  124loPI   C2A 1976   3.235   8.554   9.005  0.1612 -0.1398  0.1697
  124loPI   C3A 1977   3.126   8.569   8.626  0.0893 -0.2683 -0.0751
  124loPI   C4A 1978   2.951   8.434   8.240  0.1732 -0.0865 -0.0091
  124loPI   C5A 1979   2.689   8.213   8.141  0.2111  0.1976  0.2775
  124loPI   C6A 1980   2.615   7.842   7.960  0.1593  0.1262 -0.1161
  124loPI   C1B 1981   3.664   9.069   9.367  0.2438  0.1074  0.2141
  124loPI   C2B 1982   3.626   9.125   8.959  0.0450  0.3512 -0.0493
  124loPI   C3B 1983   3.427   9.067   8.558  0.0773  0.0897  0.2949
  124loPI   C4B 1984   3.395   9.049   8.123 -0.2163  0.2017  0.2375
  125loPI    C1 1985  10.793  19.247   9.475 -0.1303 -0.0299  0.0629
  125loPI    C2 1986  11.005  19.269   9.813  0.0951 -0.0622 -0.0748
  125loPI    C3 1987  10.861  19.602   9.645  0.2503 -0.0135 -0.1136
  125loPI   PO4 1988  10.950  19.176   9.297  0.1126  0.1744  0.1362
  125loPI   GL1 1989  11.067  18.774   9.185  0.2197  0.1793  0.2462
  125loPI   GL2 1990  10.720  18.773   9.197  0.0122 -0.0348 -0.1783
  125loPI   C1A 1991  10.974  18.425   8.971  0.2579 -0.1873 -0.2128
  125loPI   C2A 1992  10.854  18.242   8.688  0.2277  0.0376 -0.1256
  125loPI   C3A 1993  10.892  18.205   8.312 -0.0589 -0.0973  0.0222
  125loPI   C4A 1994  10.819  17.992   8.022  0.1073  0.0578  0.3439
  125loPI   C5A 1995  10.905  17.781   7.656  0.2170 -0.0617 -0.3543
  125loPI   C6A 1996  10.922  17.499   7.484 -0.2440  0.2617  0.1576
  125loPI   C1B 1997  10.674  18.810   8.748  0.0230 -0.2173 -0.1134
  125loPI   C2B 1998  10.597  18.614   8.392  0.1527 -0.2334  0.1406
  125loPI   C3B 1999  10.333  18.760   7.995  0.2033 -0.4115 -0.2045
  125loPI   C4B 2000  10.451  18.810   7.526 -0.0323 -0.3795 -0.2255
  126loPI    C1 2001  13.350   0.149   9.672  0.0354  0.1237  0.1362
  126loPI    C2 2002  13.120  -0.137   9.832  0.1674 -0.0493  0.0206
  126loPI    C3 2003  13.403   0.038  10.053  0.1171 -0.0401  0.0781
  126loPI   PO4 2004  13.476   0.096   9.470  0.1140  0.2334  0.3163
  126loPI   GL1 2005  13.578   0.136   9.034 -0.1019 -0.0934  0.3205
  126loPI   GL2 2006  13.359   0.302   8.907  0.2528  0.0683  0.1083
  126loPI   C1A 2007  13.436  -0.128   8.661  0.0563 -0.0410 -0.0704
  126loPI   C2A 2008  13.484  -0.264   8.222 -0.2536 -0.1425  0.1870
  126loPI   C3A 2009  13.415  -0.111   7.726  0.1050  0.0594 -0.0264
  126loPI   C4A 2010  13.286  -0.074   7.324  0.2737  0.1622  0.0682
  126loPI   C5A 2011  13.046  -0.056   6.961  0.1066 -0.1050  0.0161
  126loPI   C6A 2012  12.619  -0.114   6.913 -0.2332 -0.1825 -0.0330
  126loPI   C1B 2013  13.495   0.340   8.395 -0.0099 -0.1689  0.0744
  126loPI   C2B 2014  13.446   0.355   8.039 -0.2964 -0.0177  0.1766
  126loPI   C3B 2015  13.448   0.378   7.567  0.1386  0.1302  0.2426
  126loPI   C4B 2016  13.495   0.402   7.113  0.2855  0.1286  0.3961
  127loPI    C1 2017   4.436  15.945   9.834  0.0431  0.0157 -0.0630
  127loPI    C2 2018   4.113  15.775   9.999  0.0626 -0.0266 -0.0680
  127loPI    C3 2019   4.250  16.124  10.140  0.1075 -0.0861  0.0367
  127loPI   PO4 2020   4.344  15.888   9.596  0.1199  0.1440  0.3002
  127loPI   GL1 2021   3.990  15.954   9.260  0.0584  0.3437 -0.1318
  127loPI   GL2 2022   3.836  16.250   9.269 -0.0681  0.0937  0.1054
  127loPI   C1A 2023   4.108  15.862   8.819  0.0116  0.0709  0.1952
  127loPI   C2A 2024   4.160  15.835   8.388 -0.0731 -0.1411 -0.0735
  127loPI   C3A 2025   3.858  15.935   8.057  0.1015 -0.0859  0.0636
  127loPI   C4A 2026   3.396  15.701   7.898 -0.0453 -0.1224  0.0959
  127loPI   C5A 2027   2.950  15.797   7.827  0.3209  0.2829  0.2580
  127loPI   C6A 2028   2.486  15.719   7.601 -0.4821 -0.1595 -0.0514
  127loPI   C1B 2029   3.594  16.131   8.977 -0.2053  0.0687  0.2333
  127loPI   C2B 2030   3.567  15.902   8.496 -0.1160  0.2019  0.2385
  127loPI   C3B 2031   3.661  15.574   8.340  0.1946  0.1586  0.1716
  127loPI   C4B 2032   3.637  15.265   8.055  0.0630  0.1652  0.0113
  128loPI    C1 2033   3.937   4.358  10.571 -0.2157 -0.0894 -0.2790
  128loPI    C2 2034   3.552   4.460  10.540 -0.1394  0.3512  0.1080
  128loPI    C3 2035   3.701   4.348  10.894  0.0388 -0.0548 -0.0883
  128loPI   PO4 2036   4.031   4.262  10.363  0.0349 -0.1002 -0.2362
  128loPI   GL1 2037   3.948   4.138  10.044 -0.0688  0.2885 -0.3048
  128loPI   GL2 2038   3.609   4.305  10.073 -0.1254  0.1431 -0.1165
  128loPI   C1A 2039   4.167   4.294   9.660 -0.0071  0.1912  0.2167
  128loPI   C2A 2040   4.256   4.443   9.211 -0.2497 -0.0150 -0.0571
  128loPI   C3A 2041   4.091   4.673   8.913  0.0060 -0.0923  0.2516
  128loPI   C4A 2042   4.058   4.938   8.552 -0.1966  0.1944  0.0990
  128loPI   C5A 2043   4.079   5.225   8.084  0.0071 -0.1209 -0.0386
  128loPI   C6A 2044   3.853   5.448   7.756  0.0007 -0.1494  0.2684
  128loPI   C1B 2045   3.642   4.459   9.746  0.0034  0.1553  0.6244
  128loPI   C2B 2046   3.773   4.515   9.228  0.0929 -0.2191  0.0495
  128loPI   C3B 2047   3.609   4.757   8.811  0.0168  0.0394  0.1189
  128loPI   C4B 2048   3.615   4.887   8.374 -0.0072 -0.1597  0.0898
  129loPI    C1 2049   2.083  12.008  10.438  0.1299  0.2679 -0.2316
  129loPI    C2 2050   1.754  12.161  10.269 -0.1765  0.1295  0.2221
  129loPI    C3 2051   1.780  12.133  10.667  0.1037 -0.4809  0.1714
  129loPI   PO4 2052   2.274  12.129  10.192  0.0475 -0.1461 -0.2945
  129loPI   GL1 2053   2.212  12.403   9.895  0.1927  0.1187  0.0820
  129loPI   GL2 2054   1.951  12.296   9.838  0.0112  0.1752  0.3815
  129loPI   C1A 2055   2.470  12.644   9.551  0.0721  0.1455  0.2273
  129loPI   C2A 2056   2.445  12.471   9.143 -0.2501  0.0071 -0.0618
  129loPI   C3A 2057   2.498  12.269   8.654 -0.2522 -0.0376  0.1643
  129loPI   C4A 2058   2.423  12.101   8.274  0.0037 -0.2215  0.3930
  129loPI   C5A 2059   2.567  11.814   7.915  0.0765  0.0246 -0.3553
  129loPI   C6A 2060   2.853  11.472   8.022  0.0099  0.1757  0.0250
  129loPI   C1B 2061   1.982  12.303   9.391 -0.1389 -0.1829 -0.1335
  129loPI   C2B 2062   1.661  12.527   9.137  0.1433 -0.2814 -0.1226
  129loPI   C3B 2063   1.739  12.956   9.172  0.1524  0.1015  0.1778
  129loPI   C4B 2064   1.877  13.233   8.902  0.2038 -0.2014  0.0296
  130loPI    C1 2065   9.006  15.368   9.600  0.3538 -0.1636  0.1540
  130loPI    C2 2066   8.770  15.078   9.743 -0.1923  0.1806 -0.0163
  130loPI    C3 2067   8.920  15.355   9.990 -0.1322  0.0779  0.0631
  130loPI   PO4 2068   8.854  15.387   9.342 -0.6018  0.0294 -0.3967
  130loPI   GL1 2069   8.725  15.093   8.991  0.1480  0.3285  0.0894
  130loPI   GL2 2070   9.025  15.062   8.867  0.0084 -0.0674 -0.2481
  130loPI   C1A 2071   8.667  14.756   8.803 -0.1758 -0.1392 -0.1191
  130loPI   C2A 2072   8.604  14.188   8.608 -0.0935 -0.0918 -0.0505
  130loPI   C3A 2073   8.768  13.968   8.251  0.1679  0.1140  0.1429
  130loPI   C4A 2074   8.702  13.717   7.922 -0.0438 -0.1959  0.1923
  130loPI   C5A 2075   8.843  13.573   7.589  0.1780  0.1785 -0.1257
  130loPI   C6A 2076   8.784  13.325   7.207  0.0191  0.0086 -0.0331
  130loPI   C1B 2077   9.222  15.148   8.471 -0.0634  0.0198 -0.5720
  130loPI   C2B 2078   9.046  15.136   8.153 -0.1287  0.0533 -0.0164
  130loPI   C3B 2079   8.958  15.161   7.747 -0.1949  0.1861 -0.0242
  130loPI   C4B 2080   8.690  15.397   7.497 -0.6828 -0.0108  0.0699
  131loPI    C1 2081  12.531  13.919  10.077  0.1012  0.0117 -0.1131
  131loPI    C2 2082  12.692  14.259  10.211 -0.2052  0.1113  0.0112
  131loPI    C3 2083  12.296  14.204  10.231 -0.1540 -0.2716  0.0335
  131loPI   PO4 2084  12.623  13.924   9.781 -0.2549  0.2133  0.0655
  131loPI   GL1 2085  12.776  13.826   9.308 -0.0183  0.0593  0.2948
  131loPI   GL2 2086  13.109  13.850   9.149  0.2206  0.1331  0.0743
  131loPI   C1A 2087  12.718  14.143   8.949 -0.0945  0.0503 -0.0465
  131loPI   C2A 2088  12.815  14.518   8.614  0.2520  0.2239  0.1241
  131loPI   C3A 2089  12.919  14.569   8.133  0.1914  0.2121 -0.2689
  131loPI   C4A 2090  13.041  14.550   7.603 -0.2127 -0.5773 -0.0291
  131loPI   C5A 2091  12.841  14.804   7.158  0.1009 -0.1019 -0.0420
  131loPI   C6A 2092  12.699  14.946   6.751 -0.2003 -0.0716  0.2321
  131loPI   C1B 2093  13.149  14.083   8.739  0.2452 -0.0536 -0.0894
  131loPI   C2B 2094  13.244  14.107   8.293  0.0312 -0.3014 -0.0602
  131loPI   C3B 2095  13.345  14.240   7.937 -0.2391 -0.1025  0.3921
  131loPI   C4B 2096  13.639  14.140   7.649  0.1795 -0.1774  0.0905
  132loPI    C1 2097  18.972   6.373  10.107  0.0266  0.1132  0.2350
  132loPI    C2 2098  18.654   6.407  10.347 -0.2843  0.2416 -0.1842
  132loPI    C3 2099  19.010   6.543  10.467 -0.4058  0.1913  0.2490
  132loPI   PO4 2100  18.886   6.293   9.914 -0.1714  0.2722  0.1860
  132loPI   GL1 2101  18.679   6.183   9.429  0.0764 -0.1337 -0.1990
  132loPI   GL2 2102  18.764   5.930   9.521  0.1532 -0.0226  0.1959
  132loPI   C1A 2103  18.935   6.112   9.068  0.1358  0.1207 -0.1183
  132loPI   C2A 2104  18.973   6.510   8.660  0.0152 -0.1677  0.0131
  132loPI   C3A 2105  19.039   6.569   8.271 -0.1002 -0.0874 -0.4560
  132loPI   C4A 2106  19.032   6.652   7.852  0.2644  0.0516 -0.0929
  132loPI   C5A 2107  18.830   6.678   7.446 -0.1542 -0.0945  0.1903
  132loPI   C6A 2108  18.845   6.771   7.069 -0.0577  0.1778  0.1029
  132loPI   C1B 2109  19.231   5.881   9.373 -0.0097 -0.4256  0.0899
  132loPI   C2B 2110  19.456   5.828   9.074  0.1836  0.2074 -0.1404
  132loPI   C3B 2111  19.417   6.010   8.664 -0.0422  0.0617 -0.0541
  132loPI   C4B 2112  19.189   6.085   8.298  0.0167  0.0057 -0.0327
  133loPI    C1 2113  18.523   9.399  10.208 -0.0257 -0.4891  0.1020
  133loPI    C2 2114  18.290   9.561  10.489  0.0816 -0.1254 -0.0135
  133loPI    C3 2115  18.146   9.274  10.251 -0.0297 -0.3927  0.3654
  133loPI   PO4 2116  18.574   9.570  10.082 -0.2284  0.0614 -0.1026
  133loPI   GL1 2117  18.424   9.689   9.785  0.0803 -0.4040 -0.3072
  133loPI   GL2 2118  18.237   9.369   9.673 -0.0006  0.2057 -0.0118
  133loPI   C1A 2119  18.631   9.708   9.374  0.1284  0.0930  0.1211
  133loPI   C2A 2120  18.994   9.696   9.063 -0.2308 -0.0194  0.1768
  133loPI   C3A 2121  19.353   9.461   8.997  0.0180 -0.3018 -0.2332
  133loPI   C4A 2122  19.433   9.206   8.669 -0.0810  0.3085  0.0430
  133loPI   C5A 2123  19.593   8.828   8.468 -0.1453  0.3372  0.0305
  133loPI   C6A 2124  19.873   8.768   8.123 -0.1683 -0.0390  0.1363
  133loPI   C1B 2125  18.165   9.464   9.325  0.0606  0.0678 -0.1150
  133loPI   C2B 2126  18.243   9.592   8.955 -0.0245 -0.2821 -0.1719
  133loPI   C3B 2127  18.572   9.666   8.743 -0.0408  0.0911  0.0200
  133loPI   C4B 2128  18.952   9.386   8.593 -0.2625  0.0558 -0.0024
  134loPI    C1 2129  11.827   4.992   9.820 -0.2953 -0.0277 -0.2166
  134loPI    C2 2130  12.027   5.339   9.828 -0.1171 -0.1322 -0.0331
  134loPI    C3 2131  11.845   5.205  10.158  0.0626 -0.3548 -0.0223
  134loPI   PO4 2132  11.888   4.920   9.613  0.5322  0.4224  0.0076
  134loPI   GL1 2133  11.938   4.847   9.128 -0.1006  0.3281 -0.0032
  134loPI   GL2 2134  12.251   4.533   9.040  0.1167  0.3803 -0.0650
  134loPI   C1A 2135  11.854   5.234   8.815  0.0060  0.2339  0.1270
  134loPI   C2A 2136  11.769   5.342   8.557  0.2547 -0.0203 -0.2366
  134loPI   C3A 2137  11.858   5.310   8.103 -0.2289  0.1628  0.2502
  134loPI   C4A 2138  11.971   5.555   7.725 -0.0520  0.0873  0.0945
  134loPI   C5A 2139  12.257   5.688   7.370 -0.0916 -0.1281 -0.0347
  134loPI   C6A 2140  12.153   5.815   6.955 -0.1322  0.0866  0.1905
  134loPI   C1B 2141  12.162   4.763   8.635  0.1446 -0.1373 -0.3952
  134loPI   C2B 2142  12.171   4.929   8.253  0.2268 -0.1312 -0.2071
  134loPI   C3B 2143  12.015   4.945   7.779  0.0954  0.0616 -0.1121
  134loPI   C4B 2144  12.088   5.216   7.325 -0.0338 -0.0081  0.1050
  135loPI    C1 2145   2.508  11.611  10.192  0.0189 -0.1859  0.0676
  135loPI    C2 2146   2.214  11.488  10.434  0.0168 -0.2751  0.0199
  135loPI    C3 2147   2.470  11.770  10.557 -0.1768 -0.0919  0.0072
  135loPI   PO4 2148   2.434  11.739   9.858  0.0513  0.3830 -0.0045
  135loPI   GL1 2149   2.206  11.886   9.615 -0.0567  0.3161 -0.1078
  135loPI   GL2 2150   2.518  12.118   9.484  0.0181  0.2245  0.1520
  135loPI   C1A 2151   2.278  11.524   9.263 -0.0291 -0.0323  0.0448
  135loPI   C2A 2152   2.090  11.451   8.903 -0.0114  0.1912  0.0542
  135loPI   C3A 2153   2.143  11.838   8.627 -0.0715  0.2663  0.2661
  135loPI   C4A 2154   2.056  11.840   8.117  0.3997 -0.1798 -0.0328
  135loPI   C5A 2155   1.925  11.596   7.785  0.1722  0.0328 -0.0560
  135loPI   C6A 2156   1.902  11.513   7.323 -0.0794 -0.0049  0.0344
  135loPI   C1B 2157   2.293  11.990   9.159  0.0163  0.3495  0.0326
  135loPI   C2B 2158   1.958  12.172   8.898 -0.4409  0.1374 -0.0446
  135loPI   C3B 2159   2.059  12.684   8.810  0.0866 -0.0854  0.0584
  135loPI   C4B 2160   2.126  12.958   8.415  0.0420  0.0344  0.0134
  136loPI    C1 2161  13.499   1.244   9.511 -0.1053 -0.0862  0.0605
  136loPI    C2 2162  13.150   1.083   9.402 -0.1998  0.1474  0.0102
  136loPI    C3 2163  13.191   1.239   9.768 -0.1451  0.1122  0.0190
  136loPI   PO4 2164  13.605   1.190   9.234 -0.1536  0.0182 -0.2679
  136loPI   GL1 2165  13.927   1.281   8.955 -0.1364 -0.1911  0.2310
  136loPI   GL2 2166  14.276   1.040   9.061  0.1838 -0.0468 -0.0027
  136loPI   C1A 2167  13.895   1.386   8.546  0.3317 -0.1531 -0.2696
  136loPI   C2A 2168  13.623   1.543   8.169  0.1289  0.3531  0.1286
  136loPI   C3A 2169  13.547   1.705   7.885  0.3377  0.0118 -0.3002
  136loPI   C4A 2170  13.288   1.964   7.561 -0.1350 -0.0540  0.2104
  136loPI   C5A 2171  12.996   2.305   7.446 -0.1752  0.1491  0.2039
  136loPI   C6A 2172  12.962   2.737   7.434 -0.0654 -0.3098 -0.3548
  136loPI   C1B 2173  14.334   1.132   8.725 -0.3078  0.3258 -0.0751
  136loPI   C2B 2174  14.209   1.075   8.428  0.1627  0.1496 -0.1116
  136loPI   C3B 2175  13.937   1.112   8.044 -0.0880  0.1179  0.0381
  136loPI   C4B 2176  13.631   1.209   7.715 -0.3437 -0.0089 -0.2717
  137loPI    C1 2177   9.585   3.340   9.882  0.1227 -0.1727  0.1146
  137loPI    C2 2178   9.249   3.134   9.947  0.2190 -0.3337  0.1077
  137loPI    C3 2179   9.418   3.339  10.246  0.0811 -0.2001  0.0955
  137loPI   PO4 2180   9.568   3.497   9.635  0.3099  0.0004 -0.3701
  137loPI   GL1 2181   9.560   3.525   9.226  0.3953 -0.0660 -0.0362
  137loPI   GL2 2182   9.729   3.307   8.970  0.1815  0.1926 -0.0169
  137loPI   C1A 2183   9.347   3.708   8.850  0.0466  0.0904 -0.0141
  137loPI   C2A 2184   9.378   3.790   8.399  0.1231  0.3764 -0.0643
  137loPI   C3A 2185   9.290   3.922   7.948  0.1123 -0.0067 -0.1405
  137loPI   C4A 2186   9.361   4.274   7.687 -0.0755  0.1030  0.2011
  137loPI   C5A 2187   9.340   4.493   7.288  0.3330  0.1566  0.1667
  137loPI   C6A 2188   9.109   4.750   6.979 -0.0327  0.2498 -0.1393
  137loPI   C1B 2189   9.708   3.483   8.627 -0.4283 -0.0336  0.0331
  137loPI   C2B 2190   9.821   3.498   8.180  0.1507  0.3574  0.1824
  137loPI   C3B 2191   9.525   3.437   7.861  0.0220  0.0779  0.1637
  137loPI   C4B 2192   9.296   3.384   7.452 -0.0354 -0.0651  0.0817
  138loPI    C1 2193  12.895  17.867   9.204  0.1349 -0.1947 -0.0459
  138loPI    C2 2194  13.157  17.922   9.501  0.1465 -0.1168 -0.0706
  138loPI    C3 2195  12.976  17.568   9.457  0.1571 -0.1337  0.0195
  138loPI   PO4 2196  12.855  18.122   9.149 -0.1589  0.1804 -0.0705
  138loPI   GL1 2197  12.709  18.333   8.802 -0.0849  0.1129 -0.0992
  138loPI   GL2 2198  12.661  18.710   8.777 -0.0924 -0.0490 -0.1089
  138loPI   C1A 2199  12.850  18.274   8.470 -0.1816  0.1261  0.2949
  138loPI   C2A 2200  12.984  18.283   8.054  0.0053 -0.0121  0.0226
  138loPI   C3A 2201  13.298  18.256   7.761  0.0708  0.1951 -0.0442
  138loPI   C4A 2202  13.468  18.415   7.486 -0.1390  0.3183 -0.0205
  138loPI   C5A 2203  13.396  18.477   7.157  0.0057  0.1321  0.3771
  138loPI   C6A 2204  13.403  18.128   6.863  0.3331 -0.2386  0.0005
  138loPI   C1B 2205  12.563  18.774   8.318  0.0619  0.2107 -0.2132
  138loPI   C2B 2206  12.665  18.772   7.785  0.3117 -0.0827 -0.0433
  138loPI   C3B 2207  12.739  18.549   7.548 -0.0101  0.2758  0.1187
  138loPI   C4B 2208  12.679  18.677   7.095 -0.2315  0.0590  0.1968
  139loPI    C1 2209   4.339   3.399  10.518 -0.0857 -0.1498 -0.0336
  139loPI    C2 2210   4.271   3.013  10.596 -0.1286 -0.1240  0.0579
  139loPI    C3 2211   4.182   3.291  10.870 -0.1091 -0.0482 -0.0124
  139loPI   PO4 2212   4.360   3.365  10.257 -0.1689 -0.4471  0.2389
  139loPI   GL1 2213   4.457   3.549   9.942 -0.3075  0.3499  0.5105
  139loPI   GL2 2214   4.628   3.307   9.830 -0.2289  0.0619 -0.2258
  139loPI   C1A 2215   4.094   3.760   9.568 -0.0710 -0.1234  0.3342
  139loPI   C2A 2216   3.944   3.988   9.114 -0.1635  0.0371 -0.1944
  139loPI   C3A 2217   3.812   4.242   8.756  0.0382  0.1323 -0.3319
  139loPI   C4A 2218   3.712   4.328   8.366 -0.1387 -0.1165 -0.2822
  139loPI   C5A 2219   3.706   4.530   8.001  0.2601  0.1729  0.2779
  139loPI   C6A 2220   3.737   4.936   7.858 -0.3812  0.0215 -0.0353
  139loPI   C1B 2221   4.239   3.131   9.644 -0.1496  0.1229  0.0988
  139loPI   C2B 2222   3.921   2.925   9.557  0.0807  0.1762  0.3286
  139loPI   C3B 2223   3.812   2.746   9.165  0.0369 -0.0971  0.0043
  139loPI   C4B 2224   3.949   2.758   8.892  0.1380 -0.2166 -0.1007
  140loPI    C1 2225  10.438   3.149   9.817 -0.0303 -0.0227  0.1136
  140loPI    C2 2226  10.732   3.411   9.889  0.0870 -0.1551  0.1213
  140loPI    C3 2227  10.405   3.408  10.120 -0.0004  0.1092  0.0049
  140loPI   PO4 2228  10.401   3.101   9.562 -0.2004  0.0748 -0.0302
  140loPI   GL1 2229  10.500   3.221   9.116 -0.0193  0.2740  0.2334
  140loPI   GL2 2230  10.775   3.209   8.927 -0.1381 -0.1478 -0.1646
  140loPI   C1A 2231  10.210   3.074   8.737 -0.2076 -0.2692 -0.0073
  140loPI   C2A 2232  10.100   3.037   8.318 -0.1887 -0.1287 -0.0154
  140loPI   C3A 2233   9.949   3.070   7.871  0.1755 -0.0368 -0.0455
  140loPI   C4A 2234   9.903   3.279   7.437 -0.1045  0.2177  0.1098
  140loPI   C5A 2235  10.085   3.521   7.128  0.2226  0.0727  0.0613
  140loPI   C6A 2236  10.538   3.518   7.196  0.0927  0.0413 -0.0321
  140loPI   C1B 2237  10.757   3.451   8.601  0.3294  0.1805  0.0584
  140loPI   C2B 2238  10.958   3.598   8.222 -0.4827 -0.3065  0.2128
  140loPI   C3B 2239  10.969   3.267   7.922 -0.0598  0.3538 -0.0592
  140loPI   C4B 2240  10.860   3.320   7.523  0.0070  0.1868  0.0584
  141loPI    C1 2241   5.790   7.390  10.092  0.0318  0.2146  0.0744
  141loPI    C2 2242   5.485   7.235   9.884  0.3593 -0.3359 -0.0180
  141loPI    C3 2243   5.593   7.071  10.232  0.1475  0.2594  0.3447
  141loPI   PO4 2244   5.785   7.615   9.964 -0.0633  0.2996  0.4020
  141loPI   GL1 2245   5.537   7.689   9.589  0.2299  0.0118  0.0248
  141loPI   GL2 2246   5.484   7.987   9.590  0.0271 -0.1107 -0.1884
  141loPI   C1A 2247   5.334   7.594   9.121 -0.2272 -0.0742  0.0361
  141loPI   C2A 2248   5.219   7.622   8.732  0.3275 -0.1676  0.2333
  141loPI   C3A 2249   4.976   7.464   8.393  0.0483 -0.0252 -0.2185
  141loPI   C4A 2250   4.864   7.622   7.980  0.1156 -0.2288  0.1748
  141loPI   C5A 2251   4.789   7.671   7.489 -0.2958 -0.0352  0.0497
  141loPI   C6A 2252   4.893   7.951   7.097  0.0969  0.1290 -0.0325
  141loPI   C1B 2253   5.111   7.960   9.319  0.1606 -0.0083 -0.1724
  141loPI   C2B 2254   5.035   8.059   8.876 -0.1752 -0.0316  0.2476
  141loPI   C3B 2255   4.908   8.219   8.490  0.1621 -0.4584 -0.1475
  141loPI   C4B 2256   4.718   7.973   8.283  0.3098 -0.1448  0.0763
  142loPI    C1 2257   7.974  14.894   9.684  0.1717  0.0559 -0.2898
  142loPI    C2 2258   7.869  15.280   9.680 -0.0413  0.0029 -0.0594
  142loPI    C3 2259   8.225  15.172   9.825 -0.0832  0.0908  0.1112
  142loPI   PO4 2260   7.980  14.773   9.448  0.0416  0.1347  0.1764
  142loPI   GL1 2261   7.769  14.619   9.280 -0.0273  0.1005  0.1895
  142loPI   GL2 2262   7.677  14.811   9.063  0.2159  0.2058  0.2952
  142loPI   C1A 2263   7.822  14.338   8.882  0.1177  0.0592  0.0678
  142loPI   C2A 2264   7.666  14.265   8.493 -0.1054 -0.0084  0.3350
  142loPI   C3A 2265   7.368  13.941   8.239  0.0799 -0.1668 -0.1550
  142loPI   C4A 2266   7.175  13.755   7.821 -0.1360 -0.1410 -0.1090
  142loPI   C5A 2267   6.949  13.453   7.590 -0.0454  0.2225  0.1857
  142loPI   C6A 2268   6.995  13.065   7.339  0.1876  0.0296  0.1690
  142loPI   C1B 2269   7.541  14.737   8.666  0.0718 -0.0871  0.0199
  142loPI   C2B 2270   7.542  14.664   8.126  0.0006  0.1790 -0.0781
  142loPI   C3B 2271   7.597  14.299   7.921 -0.2603 -0.0318  0.1035
  142loPI   C4B 2272   7.662  13.958   7.609  0.3015 -0.0802 -0.0851
  143loPI    C1 2273  18.107   8.112  10.281  0.0294 -0.2121  0.2347
  143loPI    C2 2274  18.303   8.458  10.330 -0.1802 -0.0202 -0.2256
  143loPI    C3 2275  18.259   8.207  10.639  0.0990  0.2952  0.0782
  143loPI   PO4 2276  18.089   7.976  10.055 -0.1860 -0.0648  0.0038
  143loPI   GL1 2277  18.039   7.966   9.590 -0.0200  0.0668 -0.1198
  143loPI   GL2 2278  18.349   7.968   9.466  0.0959  0.1047 -0.1662
  143loPI   C1A 2279  18.073   8.079   9.073  0.2467  0.1628  0.1624
  143loPI   C2A 2280  18.041   8.313   8.700 -0.1864 -0.3419  0.2058
  143loPI   C3A 2281  18.297   8.232   8.339 -0.0450  0.0966  0.3462
  143loPI   C4A 2282  18.611   8.138   8.104 -0.0006  0.2381  0.0175
  143loPI   C5A 2283  18.647   8.191   7.743  0.0682 -0.2118  0.2352
  143loPI   C6A 2284  18.988   7.991   7.509 -0.0934 -0.4090 -0.1073
  143loPI   C1B 2285  18.576   7.866   9.178  0.2388  0.1740  0.0225
  143loPI   C2B 2286  18.907   7.966   8.940 -0.0273  0.1465  0.3152
  143loPI   C3B 2287  18.880   7.945   8.478  0.1943  0.1529 -0.2784
  143loPI   C4B 2288  19.063   7.875   8.048 -0.0258  0.1560 -0.1307
  144loPI    C1 2289  12.788  18.990   9.462  0.2813 -0.2456  0.0863
  144loPI    C2 2290  12.656  19.140   9.809  0.0073  0.2357 -0.2149
  144loPI    C3 2291  12.726  18.748   9.774 -0.1194  0.1570  0.3309
  144loPI   PO4 2292  12.663  19.077   9.279 -0.1055  0.0599  0.2024
  144loPI   GL1 2293  12.366  19.044   8.986  0.2088 -0.1120  0.1048
  144loPI   GL2 2294  12.338  19.388   8.953  0.0159  0.3667 -0.2161
  144loPI   C1A 2295  12.105  18.870   8.643  0.3292 -0.1570  0.2004
  144loPI   C2A 2296  12.088  18.736   8.243  0.1736 -0.2324  0.2138
  144loPI   C3A 2297  12.147  18.652   7.803  0.3285  0.0680 -0.2633
  144loPI   C4A 2298  12.201  18.686   7.361 -0.1654 -0.1341 -0.0165
  144loPI   C5A 2299  11.981  18.604   7.045  0.0910 -0.0064 -0.2305
  144loPI   C6A 2300  11.582  18.480   6.759 -0.1040  0.2046  0.0768
  144loPI   C1B 2301  12.314  19.343   8.526  0.0475  0.2747 -0.1444
  144loPI   C2B 2302  12.312  19.235   8.107  0.3957  0.2105 -0.0545
  144loPI   C3B 2303  12.306  19.130   7.673 -0.0411  0.2088 -0.0473
  144loPI   C4B 2304  12.017  19.395   7.558  0.1747 -0.2042  0.4546
  145loPI    C1 2305   5.044  17.155   9.932  0.1117 -0.0516  0.1416
  145loPI    C2 2306   4.826  17.452   9.776  0.4213  0.1380  0.0611
  145loPI    C3 2307   4.964  17.481  10.150  0.1905 -0.0463  0.1631
  145loPI   PO4 2308   5.090  17.021   9.740 -0.1331 -0.0179  0.1125
  145loPI   GL1 2309   5.077  16.979   9.321 -0.0514 -0.2228  0.0093
  145loPI   GL2 2310   4.846  16.769   9.201 -0.2222  0.1248 -0.0809
  145loPI   C1A 2311   5.379  16.854   8.903  0.0241 -0.1239 -0.0963
  145loPI   C2A 2312   5.461  16.785   8.474 -0.0083 -0.1863  0.0701
  145loPI   C3A 2313   5.828  16.858   8.261  0.0514  0.2820 -0.2498
  145loPI   C4A 2314   5.786  16.813   7.859 -0.0247  0.2418 -0.0891
  145loPI   C5A 2315   5.851  16.533   7.482 -0.1375  0.0662  0.0519
  145loPI   C6A 2316   5.713  16.206   7.136 -0.2641  0.3994  0.1065
  145loPI   C1B 2317   4.878  16.931   8.818  0.3758  0.6082  0.1624
  145loPI   C2B 2318   4.960  16.787   8.390  0.0767 -0.0940 -0.0336
  145loPI   C3B 2319   4.929  16.479   7.995 -0.0299  0.1723 -0.3288
  145loPI   C4B 2320   4.903  16.334   7.587  0.1506  0.2148 -0.0606
  146loPI    C1 2321   0.793   3.634  10.241 -0.0045 -0.0863  0.1933
  146loPI    C2 2322   0.657   4.003  10.311 -0.0399 -0.0247 -0.1812
  146loPI    C3 2323   0.896   3.825  10.577  0.0797  0.3164 -0.0541
  146loPI   PO4 2324   0.916   3.657  10.017  0.1012 -0.1186  0.2424
  146loPI   GL1 2325   0.993   3.484   9.687 -0.0380 -0.0049  0.0767
  146loPI   GL2 2326   0.613   3.568   9.618  0.0604  0.0346 -0.3403
  146loPI   C1A 2327   0.983   3.424   9.301 -0.0791  0.1712  0.1875
  146loPI   C2A 2328   0.965   3.279   8.913 -0.1578 -0.3575 -0.1247
  146loPI   C3A 2329   1.091   3.209   8.538  0.2672  0.0429 -0.0768
  146loPI   C4A 2330   1.093   3.161   8.179 -0.2254 -0.2341 -0.1414
  146loPI   C5A 2331   0.897   2.885   7.977  0.3162  0.2560  0.3038
  146loPI   C6A 2332   1.019   2.609   7.700  0.0980  0.1359  0.2576
  146loPI   C1B 2333   0.598   3.723   9.201 -0.0118  0.1735  0.1885
  146loPI   C2B 2334   0.576   3.698   8.743 -0.3716 -0.1318 -0.2140
  146loPI   C3B 2335   0.497   3.644   8.376 -0.1876 -0.3107 -0.2008
  146loPI   C4B 2336   0.531   3.444   8.018 -0.1474  0.2321  0.0270
  147loPI    C1 2337  10.863   6.908   9.657  0.0829 -0.1598 -0.1004
  147loPI    C2 2338  10.706   6.540   9.646 -0.0657 -0.1080  0.1859
  147loPI    C3 2339  10.975   6.635   9.927  0.0989 -0.0459  0.0092
  147loPI   PO4 2340  10.949   6.935   9.334  0.2833 -0.0488  0.0512
  147loPI   GL1 2341  10.727   7.136   8.953 -0.0459  0.0474 -0.1347
  147loPI   GL2 2342  11.035   7.232   8.802  0.5983 -0.0651  0.2591
  147loPI   C1A 2343  10.767   6.880   8.541 -0.4304 -0.0408 -0.1005
  147loPI   C2A 2344  10.956   6.879   8.108 -0.2591 -0.2432  0.1797
  147loPI   C3A 2345  11.223   6.871   7.850  0.2584 -0.0070  0.1530
  147loPI   C4A 2346  11.487   6.964   7.597  0.0752  0.1056 -0.0216
  147loPI   C5A 2347  11.606   6.918   7.192  0.0115 -0.0151  0.0682
  147loPI   C6A 2348  11.598   7.084   6.899  0.1326  0.0476 -0.1649
  147loPI   C1B 2349  11.067   7.344   8.419  0.0269  0.3386 -0.5214
  147loPI   C2B 2350  11.241   7.374   8.007  0.1634 -0.0179 -0.1474
  147loPI   C3B 2351  11.218   7.431   7.586  0.0735 -0.2399 -0.1440
  147loPI   C4B 2352  11.271   7.435   7.160  0.2570  0.1572 -0.2018
  148loPI    C1 2353  10.351  14.777   9.867  0.2592  0.0313  0.0656
  148loPI    C2 2354  10.441  14.584  10.206  0.0481 -0.1822  0.0031
  148loPI    C3 2355  10.082  14.756  10.163  0.1726  0.0789 -0.0092
  148loPI   PO4 2356  10.518  14.587   9.619 -0.0401 -0.1683  0.0857
  148loPI   GL1 2357  10.750  14.245   9.302 -0.2909  0.1240 -0.2985
  148loPI   GL2 2358  11.094  14.346   9.319  0.0323  0.3238 -0.3100
  148loPI   C1A 2359  10.574  14.224   8.818 -0.2831  0.1208  0.2268
  148loPI   C2A 2360  10.769  14.232   8.423 -0.1031 -0.1683  0.0316
  148loPI   C3A 2361  10.652  14.202   7.967 -0.0065  0.2529  0.0843
  148loPI   C4A 2362  10.613  14.022   7.573  0.1813  0.2274 -0.3768
  148loPI   C5A 2363  10.657  13.779   7.221  0.2283 -0.0181  0.0911
  148loPI   C6A 2364  10.708  13.410   6.951  0.2362 -0.1977  0.2117
  148loPI   C1B 2365  11.318  14.192   8.984  0.2292 -0.0283  0.0706
  148loPI   C2B 2366  11.550  14.323   8.618  0.1944  0.3595 -0.1216
  148loPI   C3B 2367  11.809  14.534   8.272 -0.0853  0.1846  0.0289
  148loPI   C4B 2368  12.305  14.548   8.278  0.1427  0.1415  0.3190
  149loPI    C1 2369  11.906  10.483   9.307 -0.1041 -0.1960 -0.1006
  149loPI    C2 2370  11.824  10.277   9.640 -0.0520  0.0434  0.0629
  149loPI    C3 2371  12.204  10.338   9.530 -0.0711 -0.2262 -0.1638
  149loPI   PO4 2372  11.676  10.506   9.225  0.0262  0.1441 -0.0898
  149loPI   GL1 2373  11.514  10.234   8.877  0.0281  0.3836  0.1933
  149loPI   GL2 2374  11.315   9.910   8.710 -0.1370  0.2652  0.0450
  149loPI   C1A 2375  11.936  10.522   8.682  0.0702  0.1091 -0.0504
  149loPI   C2A 2376  11.961  10.563   8.253  0.3487 -0.1909  0.3188
  149loPI   C3A 2377  11.987  10.717   7.827  0.1932  0.2502 -0.0077
  149loPI   C4A 2378  12.151  10.499   7.414  0.0176  0.3135  0.0203
  149loPI   C5A 2379  12.070  10.354   6.976 -0.0667 -0.1472  0.3355
  149loPI   C6A 2380  12.409  10.219   6.780 -0.0427  0.1906 -0.0655
  149loPI   C1B 2381  11.232   9.819   8.250  0.1808 -0.4469 -0.1981
  149loPI   C2B 2382  11.323   9.856   7.791  0.3006  0.0811  0.1713
  149loPI   C3B 2383  11.162   9.883   7.378 -0.0652 -0.2379  0.2690
  149loPI   C4B 2384  11.155   9.725   7.074  0.1563 -0.1186  0.2844
  150loPI    C1 2385  10.190   8.891   9.942  0.1400  0.0976 -0.4819
  150loPI    C2 2386  10.414   8.606   9.774  0.1776 -0.3085  0.2198
  150loPI    C3 2387  10.579   8.865  10.031 -0.0193 -0.1677  0.2057
  150loPI   PO4 2388   9.900   8.781   9.840  0.0816 -0.0708 -0.0418
  150loPI   GL1 2389   9.632   8.644   9.521  0.3069 -0.1609 -0.1523
  150loPI   GL2 2390   9.405   8.429   9.549  0.2329  0.1640  0.0569
  150loPI   C1A 2391   9.692   8.678   9.090  0.1340 -0.1249  0.1373
  150loPI   C2A 2392   9.927   8.819   8.751  0.0987  0.0725  0.1554
  150loPI   C3A 2393  10.082   9.159   8.353 -0.1094  0.3116 -0.1027
  150loPI   C4A 2394  10.024   9.076   7.892 -0.1902 -0.1693  0.0370
  150loPI   C5A 2395   9.944   8.795   7.670  0.2094  0.0298 -0.0489
  150loPI   C6A 2396   9.711   8.408   7.430 -0.1263  0.2501  0.2113
  150loPI   C1B 2397   9.316   8.408   9.068 -0.1167  0.1525 -0.2091
  150loPI   C2B 2398   9.301   8.205   8.724 -0.0354  0.1747 -0.2520
  150loPI   C3B 2399   9.428   8.044   8.395  0.0955  0.0534  0.1801
  150loPI   C4B 2400   9.410   7.729   7.945  0.1568  0.1855 -0.2150
  151loPI    C1 2401   9.222   4.721  10.014  0.1581 -0.5033  0.0415
  151loPI    C2 2402   9.622   4.705  10.029  0.1856  0.0283  0.0813
  151loPI    C3 2403   9.418   4.886  10.321 -0.0879 -0.2256  0.0529
  151loPI   PO4 2404   9.241   4.698   9.722 -0.1278 -0.0151  0.5005
  151loPI   GL1 2405   9.280   4.877   9.387  0.1315  0.1855 -0.1626
  151loPI   GL2 2406   9.278   5.210   9.354  0.0575 -0.2029 -0.0222
  151loPI   C1A 2407   9.263   4.872   8.903  0.0552  0.0881  0.1101
  151loPI   C2A 2408   9.150   4.936   8.503  0.1953 -0.0914  0.0407
  151loPI   C3A 2409   9.197   5.051   8.058 -0.1238 -0.2484 -0.1176
  151loPI   C4A 2410   9.090   5.323   7.852 -0.0824 -0.2190  0.2123
  151loPI   C5A 2411   8.930   5.585   7.456  0.1022 -0.1646  0.0525
  151loPI   C6A 2412   8.702   5.874   7.175  0.0908 -0.1941  0.1451
  151loPI   C1B 2413   9.479   5.349   8.864  0.1116 -0.0489  0.2353
  151loPI   C2B 2414   9.407   5.380   8.504 -0.2881 -0.1255  0.1889
  151loPI   C3B 2415   9.386   5.653   8.214  0.0365  0.0360 -0.0594
  151loPI   C4B 2416   9.220   5.803   7.940  0.0580  0.1417  0.3485
  152loPI    C1 2417   8.048   4.090  10.031  0.0854 -0.1538  0.1540
  152loPI    C2 2418   7.871   4.325  10.302  0.2017 -0.0132  0.1093
  152loPI    C3 2419   8.126   4.041  10.420 -0.0200 -0.1897  0.1709
  152loPI   PO4 2420   7.822   3.929   9.910  0.1820 -0.1417  0.0577
  152loPI   GL1 2421   7.877   3.855   9.471 -0.0696 -0.1746  0.0066
  152loPI   GL2 2422   7.731   3.612   9.461 -0.0855  0.1896  0.1496
  152loPI   C1A 2423   7.851   3.764   8.995  0.1824 -0.3125 -0.2563
  152loPI   C2A 2424   7.608   3.771   8.638 -0.1640 -0.1805 -0.1211
  152loPI   C3A 2425   7.699   3.856   8.217  0.1602 -0.0016 -0.3508
  152loPI   C4A 2426   7.683   4.060   7.765 -0.2077  0.0475 -0.5929
  152loPI   C5A 2427   7.876   4.348   7.535 -0.0843  0.0561 -0.0283
  152loPI   C6A 2428   8.216   4.564   7.361  0.3399 -0.5381 -0.0361
  152loPI   C1B 2429   7.348   3.705   9.058 -0.2189  0.1440 -0.0522
  152loPI   C2B 2430   7.256   3.489   8.712 -0.1215 -0.0044 -0.1676
  152loPI   C3B 2431   7.222   3.519   8.236 -0.0472  0.0087 -0.0192
  152loPI   C4B 2432   7.306   3.712   7.913  0.1314 -0.1819 -0.1208
  153loPI    C1 2433   9.710   6.943  10.176 -0.2383  0.0142  0.3239
  153loPI    C2 2434   9.917   6.608  10.241 -0.0513  0.0780  0.0732
  153loPI    C3 2435   9.887   6.884  10.529  0.1065  0.0117  0.1545
  153loPI   PO4 2436   9.598   6.831   9.915 -0.2037 -0.1254  0.0126
  153loPI   GL1 2437   9.796   6.853   9.480 -0.0129 -0.0678 -0.3497
  153loPI   GL2 2438   9.926   6.694   9.173  0.0311  0.0220 -0.0784
  153loPI   C1A 2439   9.759   7.120   9.045  0.3934  0.2520  0.2842
  153loPI   C2A 2440   9.738   7.141   8.554  0.4269  0.3157  0.0060
  153loPI   C3A 2441   9.753   6.832   8.172 -0.2165  0.5005  0.2615
  153loPI   C4A 2442   9.852   6.713   7.784 -0.0142  0.0137 -0.1570
  153loPI   C5A 2443  10.134   6.594   7.573 -0.1923 -0.2548 -0.0512
  153loPI   C6A 2444  10.116   6.798   7.122 -0.0310  0.0487  0.2536
  153loPI   C1B 2445  10.011   6.620   8.788  0.2387 -0.1054 -0.1771
  153loPI   C2B 2446   9.998   6.450   8.394  0.0048  0.2975 -0.0113
  153loPI   C3B 2447  10.095   6.306   8.030 -0.2065 -0.0914 -0.1311
  153loPI   C4B 2448  10.131   6.099   7.651 -0.0302 -0.0554  0.3165
  154loPI    C1 2449   4.282   1.072   9.992 -0.0532 -0.2115 -0.0431
  154loPI    C2 2450   4.661   0.965  10.059  0.0091 -0.0396 -0.1160
  154loPI    C3 2451   4.400   0.974  10.362  0.0328 -0.2714 -0.0862
  154loPI   PO4 2452   4.279   1.115   9.691 -0.2383 -0.2782  0.0128
  154loPI   GL1 2453   4.415   1.269   9.391  0.2346  0.1291  0.5573
  154loPI   GL2 2454   4.334   0.980   9.189 -0.0547 -0.1732 -0.0372
  154loPI   C1A 2455   4.575   1.496   9.069  0.1131 -0.1618 -0.1719
  154loPI   C2A 2456   4.530   1.577   8.594 -0.0452 -0.0457  0.1653
  154loPI   C3A 2457   4.527   1.789   8.127 -0.0684  0.1013  0.1086
  154loPI   C4A 2458   4.180   1.773   7.714 -0.0971 -0.0394  0.0326
  154loPI   C5A 2459   3.975   1.643   7.361 -0.0371 -0.3532  0.1392
  154loPI   C6A 2460   3.776   1.456   7.102 -0.2268 -0.2581 -0.0382
  154loPI   C1B 2461   4.278   0.951   8.704  0.0709 -0.1331  0.1146
  154loPI   C2B 2462   4.197   0.924   8.257  0.1360  0.2867  0.2059
  154loPI   C3B 2463   4.495   0.818   8.082 -0.1954 -0.2428 -0.3155
  154loPI   C4B 2464   4.809   0.769   8.171  0.0850  0.3261  0.1101
  155loPI    C1 2465   3.213   5.113  10.595 -0.2703  0.1511 -0.1284
  155loPI    C2 2466   3.107   4.981  10.958 -0.2374  0.2596 -0.0788
  155loPI    C3 2467   3.456   4.868  10.798 -0.2361  0.2394 -0.0618
  155loPI   PO4 2468   3.040   5.124  10.439 -0.0945  0.1130  0.1102
  155loPI   GL1 2469   3.030   5.122   9.916  0.0944  0.3134  0.2511
  155loPI   GL2 2470   2.790   4.901   9.826  0.0089  0.1447  0.2492
  155loPI   C1A 2471   3.343   5.270   9.540  0.0583  0.0034 -0.1863
  155loPI   C2A 2472   3.363   5.312   9.148  0.3291 -0.0361 -0.0823
  155loPI   C3A 2473   3.402   5.224   8.752  0.1417  0.2953 -0.0308
  155loPI   C4A 2474   3.171   5.261   8.385  0.0856  0.1816 -0.0659
  155loPI   C5A 2475   2.883   5.375   8.097 -0.0932 -0.4118  0.0729
  155loPI   C6A 2476   2.481   5.443   7.737  0.2808  0.4248  0.2315
  155loPI   C1B 2477   2.927   5.002   9.421  0.1752 -0.1948 -0.2657
  155loPI   C2B 2478   3.070   4.927   9.022 -0.0902  0.0027 -0.0251
  155loPI   C3B 2479   3.137   4.775   8.680  0.1155  0.1017  0.0166
  155loPI   C4B 2480   3.248   4.595   8.237  0.2707 -0.1403  0.2054
  156loPI    C1 2481  17.859  17.629   9.406 -0.3615  0.0776 -0.1887
  156loPI    C2 2482  17.826  17.961   9.186 -0.1349  0.2120 -0.0236
  156loPI    C3 2483  17.928  17.986   9.572  0.0337 -0.0591 -0.0480
  156loPI   PO4 2484  17.716  17.456   9.278 -0.1074  0.2979 -0.0005
  156loPI   GL1 2485  17.614  17.283   8.817 -0.1937 -0.0500  0.0778
  156loPI   GL2 2486  17.904  17.607   8.851 -0.6307 -0.1474  0.1299
  156loPI   C1A 2487  17.553  17.235   8.373 -0.2145 -0.0655 -0.1081
  156loPI   C2A 2488  17.739  17.287   7.952 -0.2779  0.0690  0.2276
  156loPI   C3A 2489  17.849  17.303   7.505 -0.0301  0.1514 -0.1050
  156loPI   C4A 2490  18.264  17.505   7.332  0.1443  0.0301 -0.1904
  156loPI   C5A 2491  18.650  17.824   7.187  0.3216 -0.2634  0.0276
  156loPI   C6A 2492  19.114  17.924   6.997 -0.2431 -0.0872 -0.1614
  156loPI   C1B 2493  18.134  17.561   8.457  0.1982  0.0823 -0.0498
  156loPI   C2B 2494  18.216  17.431   8.066 -0.1932 -0.0746 -0.1019
  156loPI   C3B 2495  18.228  17.102   7.787  0.0781  0.2061  0.0951
  156loPI   C4B 2496  18.738  16.888   7.821  0.2212 -0.0828 -0.0002
  157loPI    C1 2497   5.812   9.362  10.330 -0.0025  0.1545  0.0733
  157loPI    C2 2498   5.922   9.746  10.327 -0.5913  0.3332  0.0489
  157loPI    C3 2499   5.754   9.589  10.654  0.0637 -0.0403  0.2236
  157loPI   PO4 2500   5.660   9.213   9.998  0.0748 -0.0636 -0.1939
  157loPI   GL1 2501   5.266   9.329   9.687 -0.1466  0.2590  0.0933
  157loPI   GL2 2502   5.485   9.100   9.493  0.0314 -0.1827  0.1946
  157loPI   C1A 2503   5.139   9.489   9.246 -0.1966  0.0011  0.3122
  157loPI   C2A 2504   5.225   9.601   8.841  0.0334  0.1006 -0.1660
  157loPI   C3A 2505   5.162   9.625   8.442  0.0161  0.2579  0.4787
  157loPI   C4A 2506   5.183   9.641   8.019 -0.2027 -0.2393  0.0475
  157loPI   C5A 2507   5.611   9.634   7.764  0.2685  0.2858  0.0136
  157loPI   C6A 2508   6.065   9.520   7.615 -0.0064 -0.5845  0.0899
  157loPI   C1B 2509   5.545   9.119   9.044  0.1213  0.1680  0.1755
  157loPI   C2B 2510   5.378   9.167   8.631 -0.0611  0.0551 -0.0751
  157loPI   C3B 2511   5.286   9.158   8.183  0.2987 -0.6427  0.2846
  157loPI   C4B 2512   5.443   8.881   7.808  0.0095  0.0873  0.0349
  158loPI    C1 2513   1.146  17.936  10.016 -0.3151  0.0857 -0.0237
  158loPI    C2 2514   1.498  17.754  10.072 -0.3199  0.1002  0.0545
  158loPI    C3 2515   1.338  17.975  10.365 -0.3930  0.0957  0.0182
  158loPI   PO4 2516   1.247  18.027   9.696 -0.1155 -0.2031 -0.0364
  158loPI   GL1 2517   1.535  18.060   9.235  0.1791  0.1386  0.2129
  158loPI   GL2 2518   1.306  18.211   9.062 -0.0894  0.2211  0.1077
  158loPI   C1A 2519   1.767  17.881   8.900 -0.1120 -0.2388 -0.1400
  158loPI   C2A 2520   1.957  18.088   8.502 -0.0532 -0.1763 -0.1707
  158loPI   C3A 2521   1.819  18.190   8.126 -0.1117  0.0450  0.2632
  158loPI   C4A 2522   1.981  18.266   7.723  0.0064  0.1639 -0.3138
  158loPI   C5A 2523   2.071  18.485   7.252  0.0260 -0.2388  0.1792
  158loPI   C6A 2524   2.200  18.775   6.966  0.0150 -0.0394 -0.1469
  158loPI   C1B 2525   1.505  18.269   8.697 -0.0712  0.1003 -0.0056
  158loPI   C2B 2526   1.660  18.588   8.434 -0.1416  0.1805 -0.1861
  158loPI   C3B 2527   1.674  18.643   8.023  0.0242  0.3903 -0.2262
  158loPI   C4B 2528   1.682  18.633   7.574  0.4227  0.0856  0.0049
  159loPI    C1 2529  14.027   0.218   9.433 -0.1872 -0.1355 -0.1425
  159loPI    C2 2530  14.267   0.375   9.711 -0.3521  0.0062 -0.0779
  159loPI    C3 2531  14.011   0.084   9.809 -0.3110 -0.0423 -0.1138
  159loPI   PO4 2532  13.922   0.353   9.325  0.0090 -0.2424 -0.1597
  159loPI   GL1 2533  13.877   0.544   8.919  0.0491  0.0035  0.0859
  159loPI   GL2 2534  13.856   0.770   8.999  0.1069  0.0285 -0.4352
  159loPI   C1A 2535  14.192   0.636   8.654  0.3541 -0.2375 -0.0192
  159loPI   C2A 2536  14.372   0.424   8.241 -0.1481  0.0224  0.1263
  159loPI   C3A 2537  14.534   0.105   7.893  0.1587  0.0095 -0.0004
  159loPI   C4A 2538  14.462   0.148   7.496  0.1012  0.1651 -0.4246
  159loPI   C5A 2539  14.658  -0.087   7.164  0.0559  0.1192 -0.0397
  159loPI   C6A 2540  14.723  -0.424   6.843  0.0879 -0.0219 -0.1138
  159loPI   C1B 2541  13.752   0.826   8.530 -0.1183  0.0749  0.4274
  159loPI   C2B 2542  13.893   0.612   8.145  0.4576  0.1781 -0.0087
  159loPI   C3B 2543  13.795   0.688   7.713 -0.4220  0.2328  0.0656
  159loPI   C4B 2544  13.699   0.816   7.368  0.0087  0.0631 -0.2700
  160loPI    C1 2545   9.141   6.979  10.077 -0.0284  0.0366  0.1220
  160loPI    C2 2546   8.803   6.860  10.254 -0.1290  0.2667  0.0880
  160loPI    C3 2547   9.139   6.648  10.302 -0.3245 -0.0844 -0.0523
  160loPI   PO4 2548   9.000   6.996   9.808 -0.0901  0.4053  0.2461
  160loPI   GL1 2549   9.296   6.969   9.484 -0.2217  0.1127  0.0886
  160loPI   GL2 2550   9.510   7.290   9.481 -0.1846  0.0848 -0.1126
  160loPI   C1A 2551   9.256   6.864   8.997  0.3437 -0.2929 -0.0739
  160loPI   C2A 2552   9.344   6.861   8.511  0.0502  0.1238  0.2088
  160loPI   C3A 2553   9.317   6.930   8.073  0.0572 -0.2153  0.2098
  160loPI   C4A 2554   9.260   7.052   7.619 -0.0549 -0.1438 -0.1745
  160loPI   C5A 2555   9.296   7.496   7.438 -0.1467  0.3974  0.0137
  160loPI   C6A 2556   9.476   7.878   7.450  0.1367  0.0566 -0.0007
  160loPI   C1B 2557   9.201   7.363   9.141 -0.0276  0.0569 -0.5644
  160loPI   C2B 2558   8.967   7.208   8.765  0.1249  0.1790  0.0919
  160loPI   C3B 2559   8.878   6.924   8.366  0.0788 -0.4265  0.0414
  160loPI   C4B 2560   8.781   6.858   7.944 -0.1867  0.3225 -0.1097
  161loPI    C1 2561  13.527   9.048   9.670 -0.0167  0.0454  0.0433
  161loPI    C2 2562  13.742   8.944   9.991  0.0948  0.2580  0.0389
  161loPI    C3 2563  13.496   9.259  10.009 -0.0342  0.1620 -0.0303
  161loPI   PO4 2564  13.726   9.108   9.465 -0.0124 -0.0011 -0.0905
  161loPI   GL1 2565  13.419   8.973   9.102  0.0013 -0.1153 -0.0118
  161loPI   GL2 2566  13.137   9.131   9.002  0.1452 -0.2026 -0.2869
  161loPI   C1A 2567  13.653   9.129   8.772  0.0706 -0.0519 -0.3333
  161loPI   C2A 2568  13.490   9.293   8.342 -0.3526  0.1801  0.2958
  161loPI   C3A 2569  13.564   9.115   7.896  0.0161 -0.0849 -0.0809
  161loPI   C4A 2570  13.574   9.243   7.469  0.0326  0.2638 -0.1114
  161loPI   C5A 2571  13.664   9.443   7.010 -0.1079 -0.3263 -0.1590
  161loPI   C6A 2572  14.028   9.112   6.816 -0.2549  0.3152  0.2516
  161loPI   C1B 2573  12.971   9.157   8.588 -0.2780  0.1301  0.1014
  161loPI   C2B 2574  13.021   9.382   8.229  0.0788 -0.4166  0.0701
  161loPI   C3B 2575  13.281   9.519   7.881  0.1738  0.3733 -0.1180
  161loPI   C4B 2576  13.458   9.734   7.469 -0.0563 -0.0761  0.1211
  162loPI    C1 2577  17.865   6.603  10.036 -0.0576  0.2909 -0.1751
  162loPI    C2 2578  17.491   6.665   9.907 -0.1467 -0.1630 -0.1523
  162loPI    C3 2579  17.555   6.523  10.276  0.0492 -0.1008 -0.1607
  162loPI   PO4 2580  17.952   6.424   9.786 -0.1044  0.4299 -0.2395
  162loPI   GL1 2581  18.160   6.325   9.365  0.1362  0.1058 -0.2472
  162loPI   GL2 2582  18.349   6.543   9.529 -0.0505  0.3009 -0.2747
  162loPI   C1A 2583  18.396   6.313   9.043 -0.1522 -0.0723 -0.1211
  162loPI   C2A 2584  18.464   6.319   8.597 -0.0506 -0.1065  0.1375
  162loPI   C3A 2585  18.663   6.286   8.292 -0.0624  0.2520 -0.1182
  162loPI   C4A 2586  18.626   6.409   7.866  0.2409 -0.3832 -0.3027
  162loPI   C5A 2587  18.286   6.665   7.706  0.0577 -0.2227 -0.2344
  162loPI   C6A 2588  18.060   7.020   7.443  0.1069  0.0412  0.1689
  162loPI   C1B 2589  18.612   6.723   9.171  0.2084 -0.2411 -0.1069
  162loPI   C2B 2590  18.955   7.059   9.201  0.5326  0.2602  0.1427
  162loPI   C3B 2591  18.991   7.507   9.256  0.2693 -0.1975  0.0172
  162loPI   C4B 2592  19.298   7.873   9.333  0.0963 -0.2660 -0.0169
  163loPI    C1 2593  11.054  16.554   9.955  0.0462  0.0243 -0.0020
  163loPI    C2 2594  11.423  16.674   9.859 -0.0297  0.1196 -0.1788
  163loPI    C3 2595  11.197  16.898  10.101  0.0887 -0.0221  0.0668
  163loPI   PO4 2596  11.007  16.392   9.770  0.0102 -0.2691  0.2294
  163loPI   GL1 2597  11.139  16.306   9.291  0.1318  0.0443  0.1026
  163loPI   GL2 2598  11.384  16.241   9.422 -0.1449 -0.1056 -0.1725
  163loPI   C1A 2599  10.957  16.243   8.849 -0.0734 -0.2209  0.0817
  163loPI   C2A 2600  10.943  16.149   8.420 -0.0085 -0.2426 -0.4790
  163loPI   C3A 2601  10.735  16.170   7.988 -0.1466 -0.2421 -0.2328
  163loPI   C4A 2602  10.570  16.161   7.598  0.1018 -0.1052  0.3093
  163loPI   C5A 2603  10.446  16.309   7.220 -0.2458 -0.2186 -0.0738
  163loPI   C6A 2604  10.532  16.377   6.712  0.1905  0.1565 -0.1328
  163loPI   C1B 2605  11.508  16.334   8.953  0.1961 -0.0945 -0.2828
  163loPI   C2B 2606  11.427  16.308   8.523 -0.0362 -0.1042 -0.1736
  163loPI   C3B 2607  11.338  16.251   8.052 -0.1100 -0.0211  0.3531
  163loPI   C4B 2608  11.129  15.970   7.669 -0.4454  0.1597 -0.0772
  164loPI    C1 2609   6.570   4.358  10.022 -0.2153 -0.1070 -0.1423
  164loPI    C2 2610   6.666   4.715  10.175 -0.1999 -0.1340 -0.0889
  164loPI    C3 2611   6.940   4.503   9.975 -0.1385 -0.2242  0.0887
  164loPI   PO4 2612   6.308   4.287   9.773  0.0131  0.1652 -0.2553
  164loPI   GL1 2613   6.482   4.346   9.443 -0.1356 -0.0539  0.0096
  164loPI   GL2 2614   6.730   4.555   9.503 -0.1611 -0.0602  0.0264
  164loPI   C1A 2615   6.259   4.310   9.030 -0.2487 -0.0623  0.1533
  164loPI   C2A 2616   6.137   4.329   8.626 -0.1310  0.0852  0.0033
  164loPI   C3A 2617   5.984   4.381   8.163  0.0149  0.0957 -0.1385
  164loPI   C4A 2618   5.611   4.384   7.949 -0.1325 -0.0113  0.1135
  164loPI   C5A 2619   5.492   4.317   7.569  0.1199 -0.0556 -0.2080
  164loPI   C6A 2620   5.700   4.396   7.062  0.0474  0.1338 -0.0229
  164loPI   C1B 2621   6.754   4.637   9.064 -0.2473 -0.1269 -0.1395
  164loPI   C2B 2622   6.574   4.600   8.648 -0.1068  0.1892  0.0944
  164loPI   C3B 2623   6.311   4.688   8.311  0.1139 -0.1842 -0.2162
  164loPI   C4B 2624   6.111   4.790   7.859  0.0544  0.1331  0.3924
  165loPI    C1 2625   1.156   6.354  10.612  0.0948  0.1446 -0.0168
  165loPI    C2 2626   1.393   6.643  10.756 -0.0249  0.1987  0.0734
  165loPI    C3 2627   1.028   6.588  10.911  0.0473 -0.0887  0.1485
  165loPI   PO4 2628   1.062   6.468  10.394 -0.1416 -0.1021 -0.1136
  165loPI   GL1 2629   1.091   6.414   9.927  0.0858  0.1295  0.0435
  165loPI   GL2 2630   0.830   6.607   9.803 -0.0557 -0.4288 -0.0106
  165loPI   C1A 2631   1.343   6.528   9.610 -0.1890  0.2482  0.0405
  165loPI   C2A 2632   1.427   6.642   9.209 -0.2326 -0.2328 -0.1674
  165loPI   C3A 2633   1.543   6.577   8.737  0.1719 -0.1310  0.2906
  165loPI   C4A 2634   1.701   6.671   8.390 -0.3800 -0.1452 -0.3859
  165loPI   C5A 2635   1.987   6.860   8.108  0.0392 -0.1761 -0.2792
  165loPI   C6A 2636   2.158   7.217   7.914 -0.2981 -0.0999 -0.0553
  165loPI   C1B 2637   0.929   6.636   9.344  0.0027  0.1702  0.1121
  165loPI   C2B 2638   0.987   6.825   8.990 -0.0166  0.0792 -0.1248
  165loPI   C3B 2639   0.742   7.058   8.622  0.1862 -0.0889  0.1110
  165loPI   C4B 2640   0.496   7.097   8.265 -0.1372 -0.2861 -0.4150
  166loPI    C1 2641  10.006   1.243   9.240 -0.2585 -0.0989  0.1097
  166loPI    C2 2642  10.254   0.932   9.289  0.0659  0.1322 -0.0290
  166loPI    C3 2643   9.858   0.874   9.286  0.1270 -0.3250 -0.3612
  166loPI   PO4 2644  10.153   1.440   9.025 -0.0153  0.3817  0.1803
  166loPI   GL1 2645  10.182   1.773   8.786  0.2219 -0.0200 -0.1614
  166loPI   GL2 2646   9.961   1.951   8.769 -0.0569  0.1819 -0.0469
  166loPI   C1A 2647  10.143   1.719   8.302  0.1593  0.0818  0.2701
  166loPI   C2A 2648  10.312   1.732   7.840  0.1438  0.1708 -0.2818
  166loPI   C3A 2649  10.309   1.655   7.372 -0.1037  0.0413 -0.1645
  166loPI   C4A 2650  10.329   1.516   6.908  0.0470 -0.0728 -0.0990
  166loPI   C5A 2651  10.183   1.026   6.878  0.0324  0.0542 -0.1404
  166loPI   C6A 2652  10.516   0.889   6.555 -0.1341 -0.0643 -0.1191
  166loPI   C1B 2653   9.677   1.844   8.449 -0.2829  0.0520  0.2325
  166loPI   C2B 2654   9.692   1.911   7.958  0.2082  0.0478 -0.0819
  166loPI   C3B 2655   9.829   1.800   7.530 -0.0640  0.0028 -0.3182
  166loPI   C4B 2656   9.926   1.800   7.040  0.2842 -0.1503  0.0147
  167loPI    C1 2657  19.214  13.975   9.981 -0.0461  0.0845 -0.1083
  167loPI    C2 2658  19.350  14.196  10.286  0.0130 -0.2791  0.1359
  167loPI    C3 2659  18.957  14.142  10.237 -0.0101  0.0144 -0.0259
  167loPI   PO4 2660  19.415  13.901   9.773  0.1205 -0.0704 -0.0752
  167loPI   GL1 2661  19.496  13.967   9.330  0.0466 -0.1234  0.0760
  167loPI   GL2 2662  19.716  14.299   9.266  0.1921 -0.0239  0.2328
  167loPI   C1A 2663  19.387  13.666   8.998 -0.1554  0.0504  0.0522
  167loPI   C2A 2664  19.309  13.602   8.596 -0.2893 -0.0883  0.1442
  167loPI   C3A 2665  19.274  13.581   8.243  0.3417  0.4906 -0.5293
  167loPI   C4A 2666  19.475  13.535   7.802  0.2833 -0.3397 -0.1725
  167loPI   C5A 2667  19.500  13.174   7.547  0.0084 -0.1431  0.1380
  167loPI   C6A 2668  19.261  12.690   7.648  0.0861 -0.3754  0.0900
  167loPI   C1B 2669  19.603  14.171   8.886 -0.0983 -0.2118 -0.2415
  167loPI   C2B 2670  19.464  14.068   8.542  0.1579  0.0407 -0.1542
  167loPI   C3B 2671  19.451  14.001   8.113 -0.0101  0.0176 -0.1451
  167loPI   C4B 2672  19.457  14.106   7.680 -0.0589  0.0714  0.0999
  168loPI    C1 2673  15.163  11.064   9.857  0.1788 -0.0308 -0.0747
  168loPI    C2 2674  15.077  10.698   9.993 -0.1260  0.0375 -0.0767
  168loPI    C3 2675  15.426  10.869  10.087 -0.1151 -0.1246  0.1885
  168loPI   PO4 2676  15.289  11.059   9.573 -0.2080 -0.2106 -0.0558
  168loPI   GL1 2677  15.122  11.117   9.171 -0.0048 -0.0180  0.0656
  168loPI   GL2 2678  15.127  11.459   9.073 -0.1384 -0.1083 -0.1288
  168loPI   C1A 2679  15.285  10.867   8.740  0.0813 -0.0609 -0.0148
  168loPI   C2A 2680  15.169  10.718   8.220  0.1320  0.0070  0.1628
  168loPI   C3A 2681  14.964  10.980   7.894 -0.0457  0.2684  0.2561
  168loPI   C4A 2682  14.869  10.848   7.539  0.0923 -0.1097 -0.0358
  168loPI   C5A 2683  15.004  10.870   7.086  0.4548 -0.0159 -0.1346
  168loPI   C6A 2684  15.284  10.728   6.867  0.1783  0.1594 -0.0912
  168loPI   C1B 2685  15.397  11.330   8.666 -0.0009 -0.0741 -0.0925
  168loPI   C2B 2686  15.460  11.299   8.203  0.2012 -0.1254  0.1164
  168loPI   C3B 2687  15.521  11.112   7.844  0.1441 -0.1157  0.2131
  168loPI   C4B 2688  15.525  10.639   7.635 -0.0719 -0.1020  0.2152
  169loPI    C1 2689   3.426   3.437  10.643  0.1484  0.1138  0.0635
  169loPI    C2 2690   3.688   3.174  10.494 -0.0537 -0.1733  0.2043
  169loPI    C3 2691   3.710   3.282  10.879 -0.0151 -0.0361  0.1643
  169loPI   PO4 2692   3.254   3.555  10.413  0.0002 -0.2701 -0.0314
  169loPI   GL1 2693   3.248   3.714  10.053  0.0943 -0.1390  0.1272
  169loPI   GL2 2694   3.301   3.534   9.791 -0.2629  0.0599 -0.0195
  169loPI   C1A 2695   3.122   3.973   9.723  0.2819  0.2205 -0.1316
  169loPI   C2A 2696   3.032   3.876   9.265  0.0761 -0.2482 -0.0892
  169loPI   C3A 2697   2.984   3.837   8.824  0.0722  0.3416 -0.0574
  169loPI   C4A 2698   2.666   3.890   8.396 -0.0727 -0.1716  0.1134
  169loPI   C5A 2699   2.352   3.800   8.017  0.0340  0.0151 -0.0628
  169loPI   C6A 2700   2.508   3.974   7.638  0.1033  0.1146  0.1805
  169loPI   C1B 2701   3.436   3.596   9.309  0.1650  0.1012 -0.2657
  169loPI   C2B 2702   3.571   3.699   8.939 -0.1315 -0.0663  0.0312
  169loPI   C3B 2703   3.518   3.858   8.558 -0.3311 -0.3882 -0.1076
  169loPI   C4B 2704   3.182   3.551   8.201  0.1817  0.1304 -0.0412
  170loPI    C1 2705   8.973  12.385   9.961  0.0812  0.0536 -0.1139
  170loPI    C2 2706   9.187  12.107   9.768 -0.2213 -0.3413  0.1039
  170loPI    C3 2707   9.302  12.233  10.130  0.0989  0.0720 -0.1317
  170loPI   PO4 2708   8.765  12.452   9.737 -0.0079  0.0180  0.1287
  170loPI   GL1 2709   8.816  12.729   9.471  0.0837 -0.1335  0.2196
  170loPI   GL2 2710   8.598  12.895   9.449  0.1610 -0.3485 -0.1432
  170loPI   C1A 2711   8.761  12.719   8.964  0.0048  0.3040 -0.3032
  170loPI   C2A 2712   8.663  12.496   8.697  0.1510  0.1127  0.2503
  170loPI   C3A 2713   8.462  12.396   8.308  0.4721  0.3621  0.1409
  170loPI   C4A 2714   8.437  12.495   7.874  0.0078 -0.0210  0.0431
  170loPI   C5A 2715   8.197  12.520   7.458  0.2285 -0.3978 -0.0194
  170loPI   C6A 2716   8.084  12.737   7.030  0.3531 -0.0118  0.0825
  170loPI   C1B 2717   8.306  12.814   9.020  0.1442 -0.2355  0.0448
  170loPI   C2B 2718   8.176  12.684   8.632 -0.5255 -0.2519 -0.2474
  170loPI   C3B 2719   8.061  12.635   8.235  0.0440  0.0974  0.1008
  170loPI   C4B 2720   7.845  12.519   7.810 -0.0294  0.3267  0.2333
  171loPI    C1 2721  13.367   3.480   9.877 -0.3192  0.1301  0.2475
  171loPI    C2 2722  13.695   3.391  10.089 -0.0344 -0.0043 -0.2347
  171loPI    C3 2723  13.349   3.206  10.168  0.1113 -0.1857 -0.0119
  171loPI   PO4 2724  13.426   3.583   9.614  0.1037  0.3417 -0.2330
  171loPI   GL1 2725  13.608   3.756   9.318 -0.1655 -0.1055  0.2855
  171loPI   GL2 2726  13.708   3.451   9.157 -0.3254 -0.0324  0.2801
  171loPI   C1A 2727  13.588   3.996   8.903  0.2367  0.0598 -0.3208
  171loPI   C2A 2728  13.773   4.003   8.555  0.4223  0.1120 -0.0744
  171loPI   C3A 2729  13.780   4.074   8.127 -0.0934 -0.1582 -0.0604
  171loPI   C4A 2730  13.713   4.370   7.837  0.0780  0.1057 -0.1535
  171loPI   C5A 2731  13.768   4.385   7.412  0.1624  0.1680 -0.3368
  171loPI   C6A 2732  13.833   4.123   7.103 -0.2672  0.3093  0.1828
  171loPI   C1B 2733  13.609   3.503   8.648  0.3836  0.1874  0.0788
  171loPI   C2B 2734  13.555   3.572   8.286  0.0910  0.0355 -0.0198
  171loPI   C3B 2735  13.639   3.621   7.794 -0.0231  0.3846  0.2062
  171loPI   C4B 2736  13.762   3.925   7.523  0.0349 -0.1143 -0.1669
  172loPI    C1 2737   5.374   1.552   9.948  0.0705  0.1061 -0.1641
  172loPI    C2 2738   5.111   1.264  10.038  0.2168 -0.0183 -0.1326
  172loPI    C3 2739   5.165   1.570  10.289  0.4729 -0.2578  0.1122
  172loPI   PO4 2740   5.304   1.527   9.624  0.0200 -0.0831  0.4423
  172loPI   GL1 2741   5.006   1.671   9.350 -0.0905 -0.0835  0.0969
  172loPI   GL2 2742   5.088   1.403   9.149 -0.3223 -0.0175  0.2598
  172loPI   C1A 2743   5.048   1.969   9.166 -0.0408 -0.2416 -0.3870
  172loPI   C2A 2744   5.207   2.220   8.855  0.0435 -0.0249 -0.0134
  172loPI   C3A 2745   5.253   2.261   8.374 -0.2374  0.3683  0.0223
  172loPI   C4A 2746   5.478   2.494   8.001 -0.1563  0.0960  0.0438
  172loPI   C5A 2747   5.796   2.401   7.664  0.1988  0.1071  0.0143
  172loPI   C6A 2748   5.692   2.072   7.267  0.0374 -0.0426  0.0831
  172loPI   C1B 2749   5.033   1.602   8.811  0.1059  0.3573 -0.1636
  172loPI   C2B 2750   4.972   1.874   8.493 -0.2900  0.2365  0.4218
  172loPI   C3B 2751   5.051   1.918   8.056  0.1848  0.2628 -0.1375
  172loPI   C4B 2752   4.970   1.725   7.636 -0.1093 -0.0855 -0.1499
  173loPI    C1 2753  18.520  10.181  10.217 -0.1083 -0.0599  0.0610
  173loPI    C2 2754  18.646   9.914  10.487 -0.1757 -0.2414 -0.0849
  173loPI    C3 2755  18.890  10.208  10.367 -0.2123 -0.0399  0.3182
  173loPI   PO4 2756  18.248  10.294  10.354  0.0970  0.1751  0.0050
  173loPI   GL1 2757  18.039  10.435   9.993 -0.3255  0.0085 -0.0606
  173loPI   GL2 2758  18.273  10.298   9.776 -0.0594 -0.0443 -0.0368
  173loPI   C1A 2759  17.920  10.582   9.506 -0.0223 -0.0676 -0.0670
  173loPI   C2A 2760  18.137  10.481   9.135 -0.2823  0.1757 -0.1188
  173loPI   C3A 2761  18.032  10.103   8.912 -0.1460 -0.1785 -0.0921
  173loPI   C4A 2762  18.134   9.829   8.555  0.4365 -0.0528 -0.0569
  173loPI   C5A 2763  18.055   9.774   8.057  0.2584  0.0213  0.1563
  173loPI   C6A 2764  17.914   9.429   7.815  0.0057 -0.0572 -0.0924
  173loPI   C1B 2765  18.370  10.095   9.415 -0.1219  0.2506 -0.0039
  173loPI   C2B 2766  18.528  10.078   8.991 -0.3692 -0.0391 -0.0507
  173loPI   C3B 2767  18.421  10.354   8.620  0.1224  0.0881 -0.1676
  173loPI   C4B 2768  18.378  10.079   8.221 -0.2094  0.0433 -0.2106
  174loPI    C1 2769   9.001   5.144  10.212 -0.0251  0.2569  0.1294
  174loPI    C2 2770   8.603   5.178  10.229 -0.0546  0.0152 -0.0314
  174loPI    C3 2771   8.790   4.902  10.450 -0.0022 -0.0477 -0.1532
  174loPI   PO4 2772   9.002   5.156   9.836  0.4018  0.0249  0.0582
  174loPI   GL1 2773   8.816   4.769   9.535  0.0604  0.1560 -0.0793
  174loPI   GL2 2774   8.536   4.556   9.533  0.0787 -0.1608  0.3296
  174loPI   C1A 2775   8.714   5.023   9.159  0.3340 -0.5178  0.3035
  174loPI   C2A 2776   8.582   4.939   8.763 -0.4144  0.1946 -0.1277
  174loPI   C3A 2777   8.377   5.069   8.417  0.1764 -0.0338  0.1436
  174loPI   C4A 2778   8.442   5.040   8.046  0.0627 -0.0308 -0.1127
  174loPI   C5A 2779   8.565   5.084   7.714  0.0145  0.3170  0.0397
  174loPI   C6A 2780   8.624   5.251   7.262  0.1192 -0.2696 -0.3506
  174loPI   C1B 2781   8.300   4.705   9.112 -0.2082  0.3225  0.0916
  174loPI   C2B 2782   8.134   4.678   8.697 -0.2409  0.2417 -0.1425
  174loPI   C3B 2783   7.920   4.876   8.226  0.0187  0.2014  0.0620
  174loPI   C4B 2784   7.953   4.879   7.733  0.1365  0.3274  0.5071
  175loPI    C1 2785   6.543  14.045   9.872  0.1373 -0.1357  0.0745
  175loPI    C2 2786   6.870  13.869   9.723  0.2983  0.1598  0.0706
  175loPI    C3 2787   6.845  13.946  10.115  0.0997 -0.1386  0.1201
  175loPI   PO4 2788   6.498  14.282   9.745 -0.3551 -0.0049  0.1171
  175loPI   GL1 2789   6.747  14.573   9.468  0.1291  0.0120 -0.0583
  175loPI   GL2 2790   6.569  14.695   9.165 -0.0514 -0.2932 -0.0681
  175loPI   C1A 2791   6.799  14.260   9.107  0.1483 -0.0273  0.2057
  175loPI   C2A 2792   6.619  14.097   8.699  0.1738 -0.0842  0.2803
  175loPI   C3A 2793   6.756  13.934   8.315  0.0403  0.3491 -0.0607
  175loPI   C4A 2794   6.598  13.705   8.029 -0.3288 -0.0231  0.5367
  175loPI   C5A 2795   6.167  13.595   7.875  0.4145  0.1426  0.2941
  175loPI   C6A 2796   5.884  13.575   7.509 -0.0582 -0.2260 -0.1885
  175loPI   C1B 2797   6.513  14.969   8.774  0.1885  0.2136 -0.2272
  175loPI   C2B 2798   6.754  14.952   8.348  0.0298  0.0440  0.2043
  175loPI   C3B 2799   6.764  14.768   7.923 -0.0400  0.1057  0.1311
  175loPI   C4B 2800   7.143  14.690   7.597  0.1290  0.0508  0.2139
  176loPI    C1 2801   0.008   2.274   9.961  0.0044 -0.2732 -0.0226
  176loPI    C2 2802  -0.114   2.092  10.295 -0.0296 -0.0652  0.0795
  176loPI    C3 2803   0.126   1.900  10.040 -0.0520 -0.2467  0.1931
  176loPI   PO4 2804   0.124   2.483   9.974 -0.1767 -0.0345 -0.0591
  176loPI   GL1 2805   0.413   2.434   9.724  0.0483 -0.1003 -0.3854
  176loPI   GL2 2806   0.050   2.568   9.528  0.0982  0.1026  0.3297
  176loPI   C1A 2807   0.410   2.674   9.250 -0.1237  0.0759  0.0327
  176loPI   C2A 2808   0.363   2.646   8.763 -0.0270  0.0087 -0.1306
  176loPI   C3A 2809   0.152   2.665   8.287 -0.3580  0.4143 -0.1672
  176loPI   C4A 2810  -0.206   2.593   8.008 -0.1292 -0.0922  0.0432
  176loPI   C5A 2811  -0.369   2.483   7.591  0.4363  0.1989 -0.4148
  176loPI   C6A 2812  -0.745   2.519   7.406 -0.2619 -0.3151  0.2296
  176loPI   C1B 2813  -0.113   2.506   9.115 -0.0852  0.0211 -0.3205
  176loPI   C2B 2814  -0.208   2.464   8.683  0.1651 -0.0381  0.1064
  176loPI   C3B 2815  -0.348   2.888   8.469 -0.1055 -0.0767  0.1685
  176loPI   C4B 2816  -0.565   3.022   8.132  0.2364 -0.0304 -0.1395
  177loPI    C1 2817  12.694   8.204   9.543 -0.1316  0.1423  0.0584
  177loPI    C2 2818  12.693   7.849   9.728  0.0869  0.0836 -0.0499
  177loPI    C3 2819  12.934   8.141   9.858  0.0456  0.1301 -0.0777
  177loPI   PO4 2820  12.687   8.136   9.218  0.0105 -0.2161  0.2176
  177loPI   GL1 2821  12.408   8.112   8.908 -0.1467  0.0553  0.2683
  177loPI   GL2 2822  12.687   7.887   8.798  0.1374 -0.2081  0.0494
  177loPI   C1A 2823  12.381   8.251   8.524  0.0954 -0.2852  0.2247
  177loPI   C2A 2824  12.407   8.453   8.101  0.2038  0.0142 -0.1768
  177loPI   C3A 2825  12.202   8.122   7.822 -0.0724 -0.0218  0.1735
  177loPI   C4A 2826  12.002   7.927   7.436  0.0678  0.0563 -0.0959
  177loPI   C5A 2827  12.014   8.013   6.961  0.0985  0.1008 -0.1216
  177loPI   C6A 2828  11.825   8.167   6.660  0.1133 -0.4022 -0.1363
  177loPI   C1B 2829  12.710   7.948   8.373 -0.2800 -0.0534  0.4239
  177loPI   C2B 2830  12.672   8.020   7.980  0.3031 -0.0002 -0.0761
  177loPI   C3B 2831  12.875   7.993   7.665 -0.1908  0.1494  0.2130
  177loPI   C4B 2832  12.907   8.059   7.207  0.0963  0.1263  0.0604
  178loPI    C1 2833  12.114  18.414   9.506  0.1714  0.3385  0.1172
  178loPI    C2 2834  11.761  18.285   9.642  0.1464  0.2944  0.0112
  178loPI    C3 2835  12.100  18.122   9.779  0.1181  0.1804 -0.0523
  178loPI   PO4 2836  12.044  18.470   9.275 -0.1139  0.2038 -0.0474
  178loPI   GL1 2837  12.189  18.485   8.915 -0.1799 -0.0180  0.0117
  178loPI   GL2 2838  11.922  18.195   8.841  0.1012 -0.2666 -0.4104
  178loPI   C1A 2839  12.317  18.301   8.463 -0.1953 -0.1045 -0.1675
  178loPI   C2A 2840  12.439  18.295   8.008  0.2403  0.0026 -0.0452
  178loPI   C3A 2841  12.383  18.152   7.684 -0.0498 -0.4297  0.3576
  178loPI   C4A 2842  12.458  17.855   7.403  0.2543  0.0784  0.0209
  178loPI   C5A 2843  12.607  17.681   7.037  0.1513 -0.2050  0.1597
  178loPI   C6A 2844  12.930  17.908   6.788  0.1141 -0.5871 -0.0979
  178loPI   C1B 2845  11.776  18.190   8.525 -0.1614 -0.0139  0.0886
  178loPI   C2B 2846  11.892  18.234   8.057 -0.2195  0.0374  0.5542
  178loPI   C3B 2847  11.899  18.320   7.572  0.0829  0.0128  0.0611
  178loPI   C4B 2848  12.039  18.047   7.234  0.0537  0.2403  0.0064
  179loPI    C1 2849   8.194  10.349   9.942 -0.0015 -0.0551  0.0036
  179loPI    C2 2850   8.579  10.239   9.937 -0.0121 -0.1077  0.2462
  179loPI    C3 2851   8.424  10.413  10.262 -0.1119  0.2137  0.0318
  179loPI   PO4 2852   8.060  10.284   9.783 -0.1247  0.1442 -0.2628
  179loPI   GL1 2853   7.696  10.108   9.641 -0.2813  0.3169 -0.0225
  179loPI   GL2 2854   7.439   9.816   9.749  0.0671  0.0327  0.1986
  179loPI   C1A 2855   7.673  10.105   9.221  0.0530  0.0046 -0.1710
  179loPI   C2A 2856   7.610  10.472   8.889 -0.0177 -0.0702  0.0616
  179loPI   C3A 2857   7.498  10.510   8.524 -0.1675 -0.1678  0.0646
  179loPI   C4A 2858   7.488  10.598   8.209 -0.4419 -0.0168  0.0067
  179loPI   C5A 2859   7.154  10.673   7.896  0.1893  0.3562  0.0551
  179loPI   C6A 2860   6.884  11.007   7.778 -0.0165 -0.3152  0.3170
  179loPI   C1B 2861   7.324   9.808   9.394  0.1129  0.3813 -0.3743
  179loPI   C2B 2862   7.140   9.660   8.947  0.0300  0.2810  0.3377
  179loPI   C3B 2863   6.822   9.532   8.666  0.3053 -0.0451 -0.1619
  179loPI   C4B 2864   6.634   9.185   8.766  0.0071 -0.2206 -0.0073
  180loPI    C1 2865  11.820   2.701   9.286  0.1887 -0.1883  0.1199
  180loPI    C2 2866  11.637   2.763   9.637  0.0834 -0.0708  0.0448
  180loPI    C3 2867  12.010   2.896   9.580  0.1983 -0.3191  0.2013
  180loPI   PO4 2868  11.642   2.676   9.092  0.3828 -0.1918 -0.0767
  180loPI   GL1 2869  11.816   2.744   8.694  0.1509 -0.0911  0.1574
  180loPI   GL2 2870  11.978   2.948   8.771 -0.1745  0.0845  0.3453
  180loPI   C1A 2871  11.685   2.815   8.342 -0.0766  0.2773  0.2462
  180loPI   C2A 2872  11.577   2.836   7.915 -0.2966 -0.0316  0.1427
  180loPI   C3A 2873  11.717   2.783   7.561  0.2528 -0.1914 -0.0285
  180loPI   C4A 2874  11.916   3.110   7.221  0.0829 -0.1129  0.0896
  180loPI   C5A 2875  12.205   3.044   6.855  0.1867  0.0130 -0.2020
  180loPI   C6A 2876  12.018   3.128   6.386  0.1940 -0.2803 -0.3018
  180loPI   C1B 2877  12.014   3.237   8.452  0.0820 -0.2113 -0.2729
  180loPI   C2B 2878  11.977   3.107   7.976  0.0351 -0.2021  0.0366
  180loPI   C3B 2879  12.180   3.028   7.650  0.0109  0.2291 -0.1039
  180loPI   C4B 2880  12.528   2.966   7.277 -0.2353  0.2435 -0.0303
  181loPI    C1 2881  15.830  18.839   9.258 -0.0118  0.1449  0.1993
  181loPI    C2 2882  15.472  18.773   9.092  0.1073  0.3254 -0.1380
  181loPI    C3 2883  15.664  18.475   9.277  0.0239  0.0855 -0.4305
  181loPI   PO4 2884  15.953  19.023   9.101  0.2718  0.2336  0.1131
  181loPI   GL1 2885  16.337  19.044   8.667 -0.2240  0.1621 -0.2484
  181loPI   GL2 2886  16.268  19.309   8.816  0.3148  0.0689 -0.0712
  181loPI   C1A 2887  16.639  18.820   8.456  0.1610 -0.0150  0.0824
  181loPI   C2A 2888  16.627  18.496   8.086  0.1295 -0.1479  0.2094
  181loPI   C3A 2889  16.861  18.540   7.705 -0.0200 -0.1536 -0.0567
  181loPI   C4A 2890  17.257  18.666   7.585 -0.2647  0.0309  0.1630
  181loPI   C5A 2891  17.610  18.742   7.450 -0.0197  0.1353  0.0307
  181loPI   C6A 2892  17.877  18.384   7.376 -0.0896  0.0588  0.0873
  181loPI   C1B 2893  16.408  19.596   8.565 -0.1890 -0.1252  0.0112
  181loPI   C2B 2894  16.344  19.814   8.211 -0.0114  0.0917  0.1950
  181loPI   C3B 2895  16.136  19.642   7.855 -0.2313  0.4400 -0.0289
  181loPI   C4B 2896  16.347  19.295   7.666 -0.1319 -0.0676  0.1627
  182loPI    C1 2897   6.114  15.443   9.498  0.1065 -0.1943 -0.0042
  182loPI    C2 2898   6.185  15.428   9.891 -0.0801  0.0491  0.0416
  182loPI    C3 2899   6.042  15.107   9.701 -0.0082 -0.0632  0.1751
  182loPI   PO4 2900   6.387  15.561   9.382 -0.1465  0.2234  0.0950
  182loPI   GL1 2901   6.672  15.479   9.067  0.0130  0.1531  0.0193
  182loPI   GL2 2902   6.942  15.703   8.923 -0.1815  0.1145 -0.0734
  182loPI   C1A 2903   6.653  15.425   8.640 -0.0768 -0.0700  0.0571
  182loPI   C2A 2904   6.563  15.553   8.285  0.0988  0.0849  0.1495
  182loPI   C3A 2905   6.544  15.743   7.871  0.1894 -0.1310  0.2047
  182loPI   C4A 2906   6.217  15.647   7.575 -0.0010  0.2250 -0.0803
  182loPI   C5A 2907   6.212  15.769   7.118 -0.0652 -0.1788  0.3075
  182loPI   C6A 2908   6.273  16.185   6.926  0.0283  0.1829  0.0617
  182loPI   C1B 2909   6.783  15.957   8.548  0.2796 -0.1124  0.3375
  182loPI   C2B 2910   6.852  16.222   8.205 -0.2892  0.3774  0.1153
  182loPI   C3B 2911   6.812  16.164   7.782 -0.1462  0.0783 -0.1035
  182loPI   C4B 2912   6.509  16.028   7.460 -0.3423 -0.1985 -0.0044
  183loPI    C1 2913   6.244  12.622  10.549  0.0838  0.0683 -0.1218
  183loPI    C2 2914   5.943  12.682  10.805  0.0336 -0.4695 -0.0431
  183loPI    C3 2915   6.312  12.807  10.897 -0.1549  0.1960 -0.1413
  183loPI   PO4 2916   6.235  12.680  10.347  0.3243  0.3123  0.0921
  183loPI   GL1 2917   5.806  12.591  10.154  0.4374 -0.5444 -0.3412
  183loPI   GL2 2918   5.580  12.654   9.960  0.0914 -0.3360 -0.2825
  183loPI   C1A 2919   6.026  12.686   9.758 -0.0745 -0.1220 -0.1509
  183loPI   C2A 2920   6.140  12.850   9.281  0.1267  0.3531  0.1512
  183loPI   C3A 2921   6.079  12.566   8.775 -0.2563 -0.0049 -0.2998
  183loPI   C4A 2922   5.975  12.804   8.436 -0.0551  0.1680  0.1435
  183loPI   C5A 2923   5.798  13.221   8.335  0.0109  0.0425  0.0306
  183loPI   C6A 2924   5.345  13.303   8.236  0.3109 -0.1647 -0.0045
  183loPI   C1B 2925   5.643  12.818   9.513 -0.4310 -0.1882 -0.1968
  183loPI   C2B 2926   5.809  13.217   9.410 -0.0315 -0.2618  0.1775
  183loPI   C3B 2927   5.641  13.450   9.080 -0.0398 -0.0505 -0.2716
  183loPI   C4B 2928   5.250  13.644   9.018 -0.2205 -0.0738 -0.0357
  184loPI    C1 2929  15.289   2.638   9.485  0.1338  0.2280  0.0807
  184loPI    C2 2930  15.508   2.324   9.369 -0.2500 -0.0816  0.1694
  184loPI    C3 2931  15.442   2.389   9.758 -0.0950  0.1676  0.1565
  184loPI   PO4 2932  15.092   2.649   9.235 -0.3994 -0.2592 -0.1124
  184loPI   GL1 2933  15.126   2.539   8.717 -0.1387 -0.3490 -0.3501
  184loPI   GL2 2934  15.210   2.890   8.763  0.0879  0.2682  0.0007
  184loPI   C1A 2935  15.051   2.635   8.372 -0.4428 -0.4089  0.2326
  184loPI   C2A 2936  15.027   2.903   8.032  0.1065  0.2718 -0.0408
  184loPI   C3A 2937  15.014   2.987   7.684 -0.0110  0.0277 -0.1740
  184loPI   C4A 2938  14.844   2.863   7.366 -0.1397  0.1430  0.2720
  184loPI   C5A 2939  14.686   3.009   7.062 -0.0864 -0.0799  0.3056
  184loPI   C6A 2940  14.804   2.961   6.700 -0.0015 -0.2085  0.2660
  184loPI   C1B 2941  15.048   3.181   8.515  0.2603  0.0621 -0.4364
  184loPI   C2B 2942  15.082   3.431   8.184 -0.3739 -0.0587  0.2517
  184loPI   C3B 2943  15.111   3.575   7.845 -0.3597  0.0672  0.3617
  184loPI   C4B 2944  15.314   3.376   7.630  0.1865 -0.0451  0.2108
  185loPI    C1 2945   1.006  11.210  10.457  0.0505  0.0311 -0.0717
  185loPI    C2 2946   1.405  11.197  10.477  0.0453  0.0306  0.0341
  185loPI    C3 2947   1.197  11.395  10.755 -0.0204  0.1549 -0.1025
  185loPI   PO4 2948   0.993  11.141  10.210 -0.3687  0.0255  0.0490
  185loPI   GL1 2949   1.366  11.135   9.946 -0.2888  0.0444 -0.0915
  185loPI   GL2 2950   1.214  11.352   9.801  0.1431  0.4279  0.1556
  185loPI   C1A 2951   1.586  10.939   9.749 -0.3249  0.0374  0.4850
  185loPI   C2A 2952   1.682  10.746   9.372  0.2485  0.0456  0.3108
  185loPI   C3A 2953   1.505  10.666   8.919  0.1549 -0.1084  0.1305
  185loPI   C4A 2954   1.437  10.532   8.439 -0.2378 -0.4133 -0.0909
  185loPI   C5A 2955   1.278  10.380   8.126  0.0215  0.4739  0.1213
  185loPI   C6A 2956   1.292  10.300   7.548  0.0538 -0.1684 -0.3728
  185loPI   C1B 2957   1.198  11.080   9.430  0.1735 -0.2743  0.2383
  185loPI   C2B 2958   0.965  10.803   9.097  0.1656 -0.1729 -0.0027
  185loPI   C3B 2959   0.900  10.835   8.636  0.1531  0.0848  0.0522
  185loPI   C4B 2960   0.819  10.799   8.190 -0.2621 -0.0982 -0.1431
  186loPI    C1 2961   3.382  10.904  10.897  0.0305 -0.3148 -0.0271
  186loPI    C2 2962   3.560  10.739  11.215 -0.0875 -0.2620  0.0673
  186loPI    C3 2963   3.193  10.894  11.250 -0.0259 -0.0876 -0.0495
  186loPI   PO4 2964   3.573  11.078  10.721 -0.0043 -0.1336  0.0272
  186loPI   GL1 2965   3.820  11.217  10.345 -0.2032 -0.2033  0.1348
  186loPI   GL2 2966   3.913  11.588  10.200 -0.2278 -0.0488  0.0716
  186loPI   C1A 2967   3.777  11.196   9.866 -0.0059  0.3745  0.0703
  186loPI   C2A 2968   3.360  11.281   9.564 -0.1133  0.1080  0.1256
  186loPI   C3A 2969   3.177  11.236   9.082 -0.0086  0.0422 -0.0726
  186loPI   C4A 2970   3.169  11.508   8.718 -0.2006  0.1501 -0.2492
  186loPI   C5A 2971   3.312  11.657   8.247  0.1349  0.2573  0.0191
  186loPI   C6A 2972   3.697  11.540   8.029 -0.1610  0.1663 -0.2176
  186loPI   C1B 2973   3.929  11.701   9.738  0.2352  0.2787  0.0370
  186loPI   C2B 2974   3.669  11.534   9.338  0.2159  0.0454  0.2099
  186loPI   C3B 2975   3.724  11.412   8.992 -0.3594 -0.0041 -0.1449
  186loPI   C4B 2976   3.709  11.508   8.555  0.0547 -0.0785 -0.2003
  187loPI    C1 2977  12.707  17.176   9.698 -0.1658  0.0002  0.0761
  187loPI    C2 2978  12.582  16.861   9.911  0.1250 -0.0106  0.2359
  187loPI    C3 2979  12.955  16.998   9.955  0.0798  0.2045 -0.0150
  187loPI   PO4 2980  12.673  17.076   9.464 -0.1607  0.0585 -0.1040
  187loPI   GL1 2981  12.776  16.747   9.174  0.1898  0.2331  0.3742
  187loPI   GL2 2982  12.975  16.961   9.091 -0.1020  0.1855 -0.2752
  187loPI   C1A 2983  12.481  16.552   8.923 -0.1122 -0.1065 -0.3363
  187loPI   C2A 2984  12.480  16.359   8.493  0.4749  0.0391 -0.0751
  187loPI   C3A 2985  12.311  16.367   8.139 -0.0156 -0.0270 -0.0252
  187loPI   C4A 2986  12.345  16.343   7.697 -0.2049 -0.1730  0.0365
  187loPI   C5A 2987  12.383  16.390   7.200  0.2603 -0.2287 -0.0450
  187loPI   C6A 2988  12.701  16.306   6.795  0.3415  0.1744 -0.3122
  187loPI   C1B 2989  12.743  16.859   8.640  0.1381 -0.1300  0.2283
  187loPI   C2B 2990  12.640  16.970   8.193 -0.0601  0.0833  0.5088
  187loPI   C3B 2991  12.489  16.777   7.892 -0.4113 -0.0662  0.0570
  187loPI   C4B 2992  12.448  16.834   7.472  0.0615  0.1339  0.1715
  188loPI    C1 2993  11.954  17.603   9.743 -0.1808 -0.3448  0.0670
  188loPI    C2 2994  11.842  17.550  10.123  0.0371 -0.2166  0.1508
  188loPI    C3 2995  11.722  17.874   9.922  0.3702 -0.0019  0.2886
  188loPI   PO4 2996  11.827  17.469   9.580 -0.2295  0.0538 -0.0758
  188loPI   GL1 2997  11.956  17.299   9.234 -0.1105 -0.0264 -0.1073
  188loPI   GL2 2998  12.151  17.537   9.060 -0.0869 -0.0252 -0.0037
  188loPI   C1A 2999  11.821  17.324   8.751 -0.0253  0.0473 -0.1979
  188loPI   C2A 3000  11.928  17.301   8.307  0.2036  0.2229 -0.0922
  188loPI   C3A 3001  11.744  17.231   7.971 -0.1081  0.1205  0.4439
  188loPI   C4A 3002  11.639  17.077   7.556 -0.2653 -0.1141  0.0024
  188loPI   C5A 3003  11.469  17.181   7.193  0.0684  0.2341 -0.0226
  188loPI   C6A 3004  11.376  17.022   6.831 -0.1865 -0.1011  0.0249
  188loPI   C1B 3005  12.373  17.351   8.740  0.2998 -0.0408 -0.1035
  188loPI   C2B 3006  12.444  17.412   8.243  0.0874 -0.0166  0.2584
  188loPI   C3B 3007  12.326  17.290   7.847 -0.1912  0.2793  0.0415
  188loPI   C4B 3008  12.419  17.372   7.494  0.1231  0.0874 -0.0532
  189loPI    C1 3009  11.042   8.224   9.376  0.0495 -0.0677 -0.1303
  189loPI    C2 3010  11.324   7.956   9.282 -0.0439 -0.1840 -0.0808
  189loPI    C3 3011  11.401   8.240   9.552 -0.0256 -0.3129  0.0506
  189loPI   PO4 3012  10.956   8.318   9.145  0.3232 -0.0265 -0.1018
  189loPI   GL1 3013  11.114   8.351   8.675 -0.0085  0.1222 -0.5121
  189loPI   GL2 3014  10.751   8.312   8.656  0.0375 -0.0894 -0.0880
  189loPI   C1A 3015  11.226   8.169   8.269 -0.0637  0.0873  0.1855
  189loPI   C2A 3016  11.201   8.292   7.843 -0.1165 -0.0850 -0.1537
  189loPI   C3A 3017  10.880   8.616   7.715  0.2075 -0.0520 -0.2059
  189loPI   C4A 3018  10.983   9.009   7.720  0.2067 -0.0341  0.3568
  189loPI   C5A 3019  10.823   9.368   7.626 -0.2436 -0.0969  0.3102
  189loPI   C6A 3020  10.558   9.594   7.249 -0.1590 -0.3306 -0.0648
  189loPI   C1B 3021  10.636   8.457   8.180  0.1459 -0.0751 -0.4405
  189loPI   C2B 3022  10.395   8.566   7.875  0.3130  0.2293 -0.0846
  189loPI   C3B 3023  10.217   8.471   7.514  0.0389 -0.3244  0.2682
  189loPI   C4B 3024  10.119   8.308   7.100 -0.1197  0.3821 -0.2259
  190loPI    C1 3025   4.989   0.666   9.855 -0.0692  0.2554 -0.0582
  190loPI    C2 3026   5.013   0.715  10.251 -0.0606 -0.0191 -0.0226
  190loPI    C3 3027   5.248   0.448  10.068  0.2323  0.3963 -0.2726
  190loPI   PO4 3028   5.120   0.747   9.641  0.0963  0.0175  0.0878
  190loPI   GL1 3029   5.049   0.759   9.241  0.2463 -0.2681  0.2377
  190loPI   GL2 3030   4.851   1.006   9.142 -0.0705  0.0256  0.5387
  190loPI   C1A 3031   4.990   0.696   8.740  0.1643  0.1259 -0.0759
  190loPI   C2A 3032   5.268   0.646   8.413 -0.1047 -0.0379  0.0003
  190loPI   C3A 3033   5.246   0.537   7.968  0.0612 -0.1564 -0.1013
  190loPI   C4A 3034   5.273   0.500   7.538 -0.1338 -0.1900  0.0280
  190loPI   C5A 3035   5.314   0.737   7.208 -0.0433 -0.1127 -0.0392
  190loPI   C6A 3036   5.403   0.420   6.795  0.1688 -0.2449 -0.2579
  190loPI   C1B 3037   4.761   1.085   8.719  0.1999  0.1217 -0.0661
  190loPI   C2B 3038   4.726   1.251   8.296 -0.0196 -0.3025 -0.2517
  190loPI   C3B 3039   4.928   1.439   8.044 -0.1662  0.3963  0.2217
  190loPI   C4B 3040   5.355   1.429   7.888  0.1333 -0.0168  0.1119
  191loPI    C1 3041   9.290  16.198   9.737  0.3064  0.0011 -0.2423
  191loPI    C2 3042   9.139  15.850   9.864 -0.0208  0.1583 -0.1905
  191loPI    C3 3043   9.535  15.908   9.864  0.0348 -0.1984 -0.1651
  191loPI   PO4 3044   9.152  16.276   9.522 -0.1113  0.2243  0.1069
  191loPI   GL1 3045   9.067  16.135   9.015 -0.0993  0.0876  0.0565
  191loPI   GL2 3046   9.446  16.088   8.986 -0.3222  0.3961  0.1936
  191loPI   C1A 3047   8.980  15.991   8.665  0.0329  0.3744 -0.0263
  191loPI   C2A 3048   8.701  15.939   8.417  0.3837 -0.0332 -0.2077
  191loPI   C3A 3049   8.455  15.881   8.175  0.1446  0.3947  0.0031
  191loPI   C4A 3050   8.432  15.843   7.730  0.1056 -0.1098  0.0547
  191loPI   C5A 3051   8.115  15.851   7.448 -0.1303  0.2038  0.0495
  191loPI   C6A 3052   7.786  15.758   7.201  0.2015 -0.1376  0.2532
  191loPI   C1B 3053   9.527  16.008   8.597  0.1240  0.2393  0.1580
  191loPI   C2B 3054   9.222  15.695   8.326 -0.0368  0.3301  0.3958
  191loPI   C3B 3055   9.348  15.588   7.930  0.0831  0.1842 -0.0110
  191loPI   C4B 3056   9.196  15.488   7.525  0.1831  0.1113  0.1509
  192loPI    C1 3057  14.345  15.292   9.499 -0.1821  0.1228 -0.1194
  192loPI    C2 3058  14.009  15.509   9.522 -0.1557  0.1342  0.1933
  192loPI    C3 3059  14.197  15.393   9.856 -0.0083 -0.1234  0.0252
  192loPI   PO4 3060  14.416  15.344   9.232  0.0836  0.0754 -0.0772
  192loPI   GL1 3061  14.742  15.182   9.031 -0.0224  0.3369 -0.3227
  192loPI   GL2 3062  14.934  14.917   8.937  0.1891 -0.2668  0.3674
  192loPI   C1A 3063  14.724  15.367   8.612  0.0412  0.1559 -0.2041
  192loPI   C2A 3064  14.561  15.714   8.296 -0.0483  0.0278 -0.3850
  192loPI   C3A 3065  14.518  15.846   7.928 -0.3764  0.0401 -0.2925
  192loPI   C4A 3066  14.429  15.785   7.453 -0.1026  0.3152 -0.1725
  192loPI   C5A 3067  14.222  15.597   7.028 -0.1455 -0.0444  0.2699
  192loPI   C6A 3068  14.186  15.304   6.639  0.2110  0.3251 -0.1722
  192loPI   C1B 3069  14.861  14.619   8.575 -0.0888  0.1159  0.0710
  192loPI   C2B 3070  14.787  14.548   8.104 -0.2479 -0.2963 -0.3439
  192loPI   C3B 3071  14.764  14.769   7.750  0.2913  0.1440 -0.0503
  192loPI   C4B 3072  14.983  15.132   7.681  0.1257  0.1565 -0.0404
  193loPI    C1 3073   6.066  10.827  10.533 -0.2560 -0.1986  0.0221
  193loPI    C2 3074   6.296  11.114  10.692 -0.4293 -0.0429 -0.0045
  193loPI    C3 3075   6.332  10.735  10.817  0.0894 -0.0850 -0.2572
  193loPI   PO4 3076   6.189  10.744  10.254 -0.1757 -0.0288 -0.3410
  193loPI   GL1 3077   6.144  11.024   9.730 -0.2390  0.1358  0.1257
  193loPI   GL2 3078   6.497  10.878   9.655  0.0986 -0.1834  0.2041
  193loPI   C1A 3079   6.115  11.278   9.455 -0.2643 -0.0861 -0.2369
  193loPI   C2A 3080   6.257  11.332   9.020 -0.0025 -0.2346 -0.1485
  193loPI   C3A 3081   6.340  11.482   8.558  0.1504 -0.0575 -0.2391
  193loPI   C4A 3082   6.239  11.679   8.183  0.1746  0.2979 -0.1145
  193loPI   C5A 3083   5.946  12.071   8.035 -0.1423 -0.1481  0.0885
  193loPI   C6A 3084   5.568  12.182   7.869  0.2518  0.2652 -0.0097
  193loPI   C1B 3085   6.435  10.896   9.273  0.2957 -0.1697 -0.0615
  193loPI   C2B 3086   6.177  10.857   8.886 -0.1972  0.0611  0.0403
  193loPI   C3B 3087   6.178  11.017   8.541  0.4023 -0.0350  0.1046
  193loPI   C4B 3088   5.980  11.265   8.158 -0.4946 -0.2433 -0.1532
  194loPI    C1 3089  16.808   2.765   9.441 -0.2156  0.0732 -0.1316
  194loPI    C2 3090  17.032   2.497   9.637  0.2485  0.4153 -0.1783
  194loPI    C3 3091  16.733   2.684   9.825  0.1004  0.0740 -0.0668
  194loPI   PO4 3092  16.845   2.637   9.155 -0.1876  0.0815  0.1052
  194loPI   GL1 3093  16.718   2.672   8.776 -0.1636  0.1528  0.2197
  194loPI   GL2 3094  16.404   2.587   8.696 -0.0937  0.0205 -0.1061
  194loPI   C1A 3095  16.870   2.887   8.554 -0.3243 -0.1436  0.2577
  194loPI   C2A 3096  16.881   3.003   8.123 -0.0080 -0.0007  0.1597
  194loPI   C3A 3097  16.975   3.014   7.703  0.1110  0.2405  0.0707
  194loPI   C4A 3098  17.397   3.007   7.565 -0.0193 -0.1532 -0.1632
  194loPI   C5A 3099  17.833   3.046   7.420 -0.2237 -0.0557 -0.0982
  194loPI   C6A 3100  18.145   3.440   7.481  0.1591  0.2339 -0.2943
  194loPI   C1B 3101  16.485   2.687   8.316 -0.5608 -0.0859  0.0635
  194loPI   C2B 3102  16.581   2.626   7.915 -0.0774  0.0435 -0.2211
  194loPI   C3B 3103  16.503   2.570   7.507 -0.1094 -0.2131  0.1156
  194loPI   C4B 3104  16.435   2.685   7.064  0.0117 -0.2150  0.1128
  195loPI    C1 3105   7.119  14.739   9.748  0.1885 -0.1308  0.0292
  195loPI    C2 3106   6.818  14.634   9.988  0.2860 -0.4091  0.0339
  195loPI    C3 3107   7.046  14.353   9.819  0.3355 -0.2106 -0.2367
  195loPI   PO4 3108   7.029  15.002   9.582 -0.0794 -0.1521  0.2264
  195loPI   GL1 3109   6.934  15.018   9.118 -0.2677  0.2506  0.2714
  195loPI   GL2 3110   7.100  14.844   9.080 -0.0449 -0.4313 -0.1838
  195loPI   C1A 3111   7.216  15.162   8.704 -0.2508 -0.0558  0.1900
  195loPI   C2A 3112   7.384  15.083   8.286 -0.1421 -0.0383 -0.0401
  195loPI   C3A 3113   7.468  15.378   7.917  0.2205  0.2322 -0.0245
  195loPI   C4A 3114   7.252  15.769   7.737  0.0050  0.2498 -0.2731
  195loPI   C5A 3115   7.170  16.029   7.486 -0.1411  0.3063  0.0317
  195loPI   C6A 3116   7.343  15.949   7.026 -0.3883  0.0456  0.1153
  195loPI   C1B 3117   6.881  14.586   8.691 -0.0234  0.0834  0.2841
  195loPI   C2B 3118   7.120  14.379   8.321 -0.0795 -0.1519 -0.0810
  195loPI   C3B 3119   6.989  14.279   7.969  0.3494 -0.1578 -0.1320
  195loPI   C4B 3120   6.933  14.119   7.481 -0.2901 -0.0629 -0.2385
  196loPI    C1 3121  17.646  10.253  10.292  0.0387  0.1328  0.0085
  196loPI    C2 3122  17.877  10.067  10.560  0.1477  0.2609  0.0048
  196loPI    C3 3123  17.534  10.238  10.676 -0.0958 -0.1818 -0.0400
  196loPI   PO4 3124  17.633  10.079  10.084  0.0001 -0.3158  0.0368
  196loPI   GL1 3125  17.781  10.091   9.740  0.2769  0.2545  0.0894
  196loPI   GL2 3126  17.916   9.829   9.551  0.0069 -0.1398  0.0141
  196loPI   C1A 3127  17.683  10.161   9.265  0.0332 -0.0368  0.0845
  196loPI   C2A 3128  17.525  10.043   8.816  0.0842  0.1687  0.0704
  196loPI   C3A 3129  17.724  10.107   8.308 -0.0353 -0.1312 -0.4051
  196loPI   C4A 3130  17.688  10.072   7.853  0.1436  0.1109 -0.1971
  196loPI   C5A 3131  17.956   9.941   7.629 -0.3525 -0.0215 -0.0427
  196loPI   C6A 3132  18.204   9.646   7.392 -0.2232 -0.0137  0.5863
  196loPI   C1B 3133  17.704   9.636   9.094  0.1273  0.2077  0.0985
  196loPI   C2B 3134  17.729   9.586   8.645  0.0209 -0.0736 -0.0678
  196loPI   C3B 3135  17.568   9.584   8.195 -0.1913  0.1394 -0.1167
  196loPI   C4B 3136  17.446   9.277   7.802  0.3034  0.0073 -0.2692
  197loPI    C1 3137   2.813   1.452  10.149  0.0204  0.0312  0.0053
  197loPI    C2 3138   2.995   1.682  10.421 -0.1093  0.0483  0.0787
  197loPI    C3 3139   2.798   1.354  10.537  0.0059 -0.0553 -0.0170
  197loPI   PO4 3140   2.701   1.587  10.008  0.1585 -0.2654 -0.1141
  197loPI   GL1 3141   2.945   1.709   9.677  0.0908 -0.1239 -0.1023
  197loPI   GL2 3142   2.598   1.546   9.546 -0.0301 -0.0805 -0.0899
  197loPI   C1A 3143   2.835   1.876   9.241 -0.0332 -0.0768  0.1229
  197loPI   C2A 3144   2.829   2.293   9.075  0.2074 -0.1390  0.3349
  197loPI   C3A 3145   2.732   2.467   8.569  0.2265  0.4728 -0.2433
  197loPI   C4A 3146   2.607   2.473   8.183 -0.0914  0.0209 -0.2387
  197loPI   C5A 3147   2.371   2.116   8.055  0.3192 -0.0878  0.1038
  197loPI   C6A 3148   1.919   2.065   7.819  0.0046 -0.2579  0.0843
  197loPI   C1B 3149   2.541   1.424   9.197 -0.0350  0.0677 -0.2035
  197loPI   C2B 3150   2.594   1.386   8.729 -0.1249  0.0656 -0.0565
  197loPI   C3B 3151   2.491   1.580   8.280 -0.0963  0.0235 -0.0322
  197loPI   C4B 3152   2.345   1.277   7.935  0.1755  0.2554 -0.1875
  198loPI    C1 3153   2.073   9.947  10.606  0.0976 -0.2870  0.1098
  198loPI    C2 3154   2.320   9.945  10.920  0.2419 -0.1248 -0.0007
  198loPI    C3 3155   1.983  10.160  10.932  0.1191 -0.3220  0.1385
  198loPI   PO4 3156   2.062   9.869  10.365  0.0660 -0.2799 -0.3589
  198loPI   GL1 3157   1.888  10.031   9.984  0.0400 -0.0562  0.0357
  198loPI   GL2 3158   2.148  10.211  10.047  0.0713  0.1688 -0.1559
  198loPI   C1A 3159   1.818   9.846   9.628 -0.0666  0.4094  0.0241
  198loPI   C2A 3160   2.019   9.709   9.284  0.0984 -0.1372 -0.2512
  198loPI   C3A 3161   1.827   9.585   8.822  0.0844  0.1815 -0.3121
  198loPI   C4A 3162   1.684   9.725   8.488  0.0219 -0.0879 -0.0506
  198loPI   C5A 3163   1.782   9.879   8.049 -0.1967  0.1571 -0.0277
  198loPI   C6A 3164   1.702  10.267   7.788  0.1219 -0.0895 -0.0885
  198loPI   C1B 3165   2.041  10.380   9.626  0.1123 -0.2049 -0.4472
  198loPI   C2B 3166   2.058  10.485   9.133 -0.1546 -0.1479  0.2696
  198loPI   C3B 3167   2.022  10.516   8.719 -0.0811 -0.3433  0.1093
  198loPI   C4B 3168   1.944  10.351   8.291  0.0373  0.0196 -0.0890
  199loPI    C1 3169  19.368  12.487   9.877 -0.0375  0.0382  0.0769
  199loPI    C2 3170  19.479  12.128  10.014 -0.1167 -0.0193 -0.0086
  199loPI    C3 3171  19.464  12.441  10.263  0.1651 -0.0256  0.0196
  199loPI   PO4 3172  19.157  12.317   9.643 -0.1117  0.0284 -0.0046
  199loPI   GL1 3173  19.179  11.977   9.238 -0.2126 -0.0167 -0.3110
  199loPI   GL2 3174  19.100  11.676   9.371 -0.0511  0.0785  0.1880
  199loPI   C1A 3175  19.500  11.838   8.904 -0.1091  0.0125  0.0598
  199loPI   C2A 3176  19.599  11.643   8.396 -0.0710  0.3186  0.0570
  199loPI   C3A 3177  19.857  11.559   8.038  0.0849  0.1102  0.4058
  199loPI   C4A 3178  19.848  11.458   7.620 -0.2410  0.2485 -0.3353
  199loPI   C5A 3179  19.655  11.366   7.232 -0.3931  0.1819  0.3373
  199loPI   C6A 3180  19.511  11.547   6.902  0.1309 -0.1888  0.2782
  199loPI   C1B 3181  19.292  11.421   9.120 -0.3070  0.2839 -0.1521
  199loPI   C2B 3182  19.662  11.250   8.833  0.2293 -0.1765  0.2165
  199loPI   C3B 3183  19.588  11.121   8.428  0.3129  0.1553 -0.0933
  199loPI   C4B 3184  19.762  11.080   7.988 -0.1012  0.1666  0.1721
  200loPI    C1 3185  15.046  10.566   9.460  0.1632 -0.2265  0.1500
  200loPI    C2 3186  15.356  10.664   9.227  0.0465 -0.2058  0.0022
  200loPI    C3 3187  15.419  10.542   9.603  0.2404 -0.3100 -0.0628
  200loPI   PO4 3188  14.931  10.372   9.268 -0.0598 -0.2967 -0.4565
  200loPI   GL1 3189  14.831  10.175   8.943 -0.2003  0.0394 -0.2835
  200loPI   GL2 3190  14.751   9.820   8.849  0.1577 -0.0433  0.0525
  200loPI   C1A 3191  14.952  10.222   8.589 -0.0297 -0.1503 -0.1958
  200loPI   C2A 3192  14.844  10.374   8.289  0.1349 -0.3562  0.0786
  200loPI   C3A 3193  14.900  10.383   7.831 -0.1359  0.1225 -0.1889
  200loPI   C4A 3194  14.968  10.362   7.287 -0.1280 -0.4313 -0.3563
  200loPI   C5A 3195  14.776  10.322   6.966 -0.3348 -0.0685 -0.2090
  200loPI   C6A 3196  14.901  10.553   6.654  0.2504  0.0568  0.0847
  200loPI   C1B 3197  14.872   9.604   8.548  0.2233  0.2839 -0.3100
  200loPI   C2B 3198  14.934   9.419   8.214 -0.1790 -0.0104  0.0326
  200loPI   C3B 3199  15.077   9.239   7.867  0.0213  0.4792 -0.1389
  200loPI   C4B 3200  15.029   9.328   7.551  0.1064 -0.2576 -0.0307
  201loPI    C1 3201  14.608   5.664   9.706  0.0394 -0.0664  0.1198
  201loPI    C2 3202  14.782   5.896   9.982  0.1489 -0.1019  0.0812
  201loPI    C3 3203  14.685   5.518  10.071  0.1453 -0.1002  0.0843
  201loPI   PO4 3204  14.651   5.638   9.449 -0.3792 -0.4789  0.2707
  201loPI   GL1 3205  14.785   5.339   9.022  0.0144  0.3379  0.2068
  201loPI   GL2 3206  14.744   5.541   8.897 -0.0532 -0.0546 -0.0964
  201loPI   C1A 3207  14.522   5.114   8.754  0.0226 -0.0299 -0.0590
  201loPI   C2A 3208  14.532   5.108   8.278 -0.0257 -0.0950  0.0022
  201loPI   C3A 3209  14.614   4.876   7.911  0.1677  0.0922 -0.0375
  201loPI   C4A 3210  14.722   4.783   7.426 -0.3091  0.0527 -0.0519
  201loPI   C5A 3211  14.543   5.076   7.114 -0.0834 -0.1036  0.3295
  201loPI   C6A 3212  14.035   5.115   7.034 -0.0614  0.0591 -0.0646
  201loPI   C1B 3213  14.751   5.549   8.474  0.2664 -0.0821  0.2371
  201loPI   C2B 3214  14.673   5.476   7.945 -0.0971 -0.0745  0.1865
  201loPI   C3B 3215  14.704   5.405   7.538 -0.2896  0.1137 -0.0387
  201loPI   C4B 3216  14.999   5.235   7.153 -0.4198  0.2178  0.0281
  202loPI    C1 3217  16.477  13.514   9.333  0.0270 -0.0627 -0.0820
  202loPI    C2 3218  16.722  13.553   9.020  0.1947 -0.0939  0.0437
  202loPI    C3 3219  16.477  13.237   9.044  0.0001  0.0360 -0.1774
  202loPI   PO4 3220  16.386  13.845   9.293 -0.1251 -0.0583  0.0256
  202loPI   GL1 3221  16.143  14.019   8.949 -0.0918 -0.0496  0.0860
  202loPI   GL2 3222  16.276  13.734   8.849  0.1246 -0.3195  0.1577
  202loPI   C1A 3223  16.256  14.150   8.555  0.2082  0.0840  0.0306
  202loPI   C2A 3224  16.286  14.303   8.154 -0.3721  0.0803  0.0892
  202loPI   C3A 3225  16.253  14.069   7.744  0.1947 -0.1264  0.1203
  202loPI   C4A 3226  16.015  14.020   7.384 -0.1018  0.2692 -0.2356
  202loPI   C5A 3227  15.747  14.044   6.947 -0.1244 -0.1476  0.0192
  202loPI   C6A 3228  15.798  13.984   6.542  0.1721 -0.1023 -0.3154
  202loPI   C1B 3229  16.142  13.467   8.555  0.1369  0.0922  0.4072
  202loPI   C2B 3230  16.062  13.453   8.162  0.1027  0.5230  0.3907
  202loPI   C3B 3231  16.306  13.602   7.677  0.1807 -0.1930  0.2411
  202loPI   C4B 3232  16.484  13.683   7.333  0.0224 -0.0560  0.0258
  203loPI    C1 3233   3.337  19.173   9.728 -0.1271  0.0743  0.0084
  203loPI    C2 3234   3.265  18.823   9.908 -0.0117 -0.0089 -0.1057
  203loPI    C3 3235   3.267  19.161  10.122  0.1548 -0.1103  0.0558
  203loPI   PO4 3236   3.251  19.181   9.507  0.0015 -0.1771 -0.0824
  203loPI   GL1 3237   3.197  19.431   9.146  0.0838 -0.2462 -0.0374
  203loPI   GL2 3238   2.787  19.463   9.305  0.0587  0.0413 -0.0814
  203loPI   C1A 3239   2.921  19.385   8.784 -0.3085 -0.2455 -0.1636
  203loPI   C2A 3240   2.863  19.229   8.362 -0.0949 -0.1646 -0.0194
  203loPI   C3A 3241   2.982  19.492   7.875 -0.0048 -0.0988 -0.0506
  203loPI   C4A 3242   2.827  19.517   7.526  0.2430 -0.0097  0.3172
  203loPI   C5A 3243   2.651  19.278   7.275  0.2201 -0.0671  0.1190
  203loPI   C6A 3244   2.426  18.814   7.474 -0.1767 -0.2095  0.0213
  203loPI   C1B 3245   2.628  19.180   9.061 -0.0828 -0.0501 -0.0624
  203loPI   C2B 3246   2.529  19.082   8.753  0.4598  0.1395 -0.1728
  203loPI   C3B 3247   2.385  19.026   8.223 -0.1600  0.0575 -0.0918
  203loPI   C4B 3248   2.480  19.212   7.770 -0.0600  0.0498  0.2565
  204loPI    C1 3249   5.417  13.697   9.889 -0.3135  0.2435 -0.0100
  204loPI    C2 3250   5.388  13.923  10.218 -0.1377  0.0032  0.1747
  204loPI    C3 3251   5.747  13.808  10.086 -0.2150 -0.0046 -0.0325
  204loPI   PO4 3252   5.248  13.474   9.854  0.0617  0.2544 -0.0590
  204loPI   GL1 3253   5.070  13.384   9.507 -0.2265  0.1664  0.3078
  204loPI   GL2 3254   4.675  13.240   9.536 -0.4880 -0.0009 -0.2594
  204loPI   C1A 3255   4.940  13.248   8.990  0.1971 -0.0264 -0.1583
  204loPI   C2A 3256   4.976  13.161   8.605 -0.3899 -0.0266 -0.0872
  204loPI   C3A 3257   4.914  12.914   8.301 -0.3510 -0.3315  0.1464
  204loPI   C4A 3258   5.064  12.582   8.059  0.0568 -0.1027  0.3884
  204loPI   C5A 3259   5.071  12.115   7.846  0.2267 -0.1543 -0.1335
  204loPI   C6A 3260   4.950  11.732   7.696 -0.0892 -0.1046  0.1825
  204loPI   C1B 3261   4.645  12.892   9.312 -0.0809  0.0268  0.0044
  204loPI   C2B 3262   4.640  12.807   8.953  0.0918  0.0624  0.0824
  204loPI   C3B 3263   4.562  12.736   8.601  0.2688  0.0726  0.0990
  204loPI   C4B 3264   4.393  13.023   8.237 -0.2892 -0.2460 -0.2192
  205loPI    C1 3265   4.606   4.839  10.837  0.3031  0.0382 -0.2427
  205loPI    C2 3266   4.918   4.908  11.078  0.1331  0.0890 -0.0337
  205loPI    C3 3267   4.611   5.164  11.070  0.1119  0.0591 -0.2659
  205loPI   PO4 3268   4.755   4.761  10.575 -0.1521 -0.0828 -0.2309
  205loPI   GL1 3269   4.663   4.582  10.093 -0.1506  0.3242 -0.1579
  205loPI   GL2 3270   4.485   4.340  10.058 -0.1154  0.3400 -0.2609
  205loPI   C1A 3271   4.440   4.787   9.817 -0.0872  0.1101  0.3662
  205loPI   C2A 3272   4.091   4.769   9.543 -0.2114 -0.3790 -0.1772
  205loPI   C3A 3273   3.713   5.013   9.316 -0.0530 -0.4054  0.0255
  205loPI   C4A 3274   3.871   5.342   8.912  0.2877  0.0782  0.1859
  205loPI   C5A 3275   3.785   5.484   8.581  0.1504 -0.2252 -0.0633
  205loPI   C6A 3276   3.619   5.417   8.194 -0.1161  0.0805  0.0868
  205loPI   C1B 3277   4.640   4.417   9.572  0.0934  0.0901 -0.4966
  205loPI   C2B 3278   4.801   4.478   9.171  0.1465 -0.3644 -0.0658
  205loPI   C3B 3279   4.556   4.676   8.825  0.0193  0.2919  0.2968
  205loPI   C4B 3280   4.518   4.882   8.346  0.0152  0.0118  0.1482
  206loPI    C1 3281   6.235  17.026   9.375 -0.2485 -0.1106 -0.1357
  206loPI    C2 3282   6.412  16.863   9.694  0.2381  0.0529 -0.3127
  206loPI    C3 3283   6.017  16.926   9.695  0.1416 -0.4860  0.0228
  206loPI   PO4 3284   6.459  16.921   9.148 -0.2011 -0.0616  0.1948
  206loPI   GL1 3285   6.431  17.031   8.736 -0.0213 -0.1291  0.0897
  206loPI   GL2 3286   6.249  16.829   8.567 -0.1784  0.1323 -0.2894
  206loPI   C1A 3287   6.114  17.267   8.392  0.2585 -0.0177 -0.0845
  206loPI   C2A 3288   6.090  17.221   7.953  0.0364 -0.0451 -0.0747
  206loPI   C3A 3289   6.262  17.456   7.610 -0.0576 -0.2009 -0.3979
  206loPI   C4A 3290   6.320  17.873   7.652 -0.2778 -0.3773  0.0055
  206loPI   C5A 3291   6.437  18.135   7.358 -0.1183 -0.2086  0.3690
  206loPI   C6A 3292   6.789  18.234   7.123  0.0946  0.3239  0.1924
  206loPI   C1B 3293   6.337  16.776   8.057 -0.0684 -0.2573  0.0441
  206loPI   C2B 3294   6.812  16.629   7.926  0.0041  0.1252  0.0808
  206loPI   C3B 3295   6.927  16.490   7.472 -0.0574  0.0473  0.1219
  206loPI   C4B 3296   6.914  16.267   7.151 -0.1807 -0.0884  0.0193
  207loPI    C1 3297  14.663   4.697   9.698  0.1204 -0.0784 -0.0406
  207loPI    C2 3298  15.007   4.795   9.875 -0.0096  0.1694  0.0800
  207loPI    C3 3299  14.720   4.612  10.084  0.0422 -0.0254 -0.0172
  207loPI   PO4 3300  14.648   4.828   9.472 -0.0560  0.0398 -0.0578
  207loPI   GL1 3301  14.842   4.837   8.963 -0.3046  0.1435 -0.1500
  207loPI   GL2 3302  15.166   4.707   8.880 -0.4150 -0.1239  0.0156
  207loPI   C1A 3303  14.834   4.769   8.562  0.1985  0.0212 -0.1534
  207loPI   C2A 3304  15.022   4.537   8.218  0.1027 -0.1029 -0.0100
  207loPI   C3A 3305  15.037   4.502   7.752 -0.2413  0.1915 -0.1514
  207loPI   C4A 3306  15.091   4.437   7.276  0.1073 -0.0125 -0.2306
  207loPI   C5A 3307  15.281   4.040   7.089 -0.1007  0.0437 -0.3324
  207loPI   C6A 3308  15.524   3.804   7.158 -0.2828 -0.1927  0.1771
  207loPI   C1B 3309  15.374   4.820   8.425 -0.0170  0.1131  0.0702
  207loPI   C2B 3310  15.620   5.106   8.048  0.1365 -0.0465 -0.0814
  207loPI   C3B 3311  15.642   5.256   7.743  0.1560  0.0618  0.0315
  207loPI   C4B 3312  15.243   5.480   7.599  0.1187  0.2064 -0.0268
  208loPI    C1 3313  10.048   4.722   9.687  0.1295 -0.0779  0.0947
  208loPI    C2 3314  10.080   4.371   9.499  0.0141 -0.0455  0.0134
  208loPI    C3 3315  10.023   4.381   9.895 -0.2262 -0.1244 -0.0178
  208loPI   PO4 3316   9.840   4.820   9.546 -0.2485 -0.2458 -0.1305
  208loPI   GL1 3317   9.759   5.126   9.266  0.2233 -0.0178 -0.1482
  208loPI   GL2 3318   9.919   5.213   9.054 -0.0453  0.2566  0.1436
  208loPI   C1A 3319   9.789   4.744   8.927  0.0424  0.0286  0.0488
  208loPI   C2A 3320   9.704   4.902   8.572  0.2980  0.0623  0.1052
  208loPI   C3A 3321   9.707   4.910   8.118 -0.0204  0.2364  0.2839
  208loPI   C4A 3322   9.979   5.013   7.788  0.0731  0.2211 -0.1862
  208loPI   C5A 3323  10.205   5.070   7.467  0.4232 -0.2540  0.1462
  208loPI   C6A 3324  10.175   5.255   7.099  0.2714  0.3137 -0.0407
  208loPI   C1B 3325   9.863   5.483   8.595 -0.1701  0.3704 -0.1074
  208loPI   C2B 3326   9.778   5.375   8.161 -0.0165 -0.0799 -0.1528
  208loPI   C3B 3327   9.570   5.300   7.761 -0.0460 -0.0231  0.1040
  208loPI   C4B 3328   9.704   5.161   7.367 -0.0070 -0.1892  0.4122
  209loPI    C1 3329   2.663   5.391  10.742 -0.1033  0.2702 -0.0356
  209loPI    C2 3330   2.319   5.272  10.908 -0.0889  0.2096 -0.0491
  209loPI    C3 3331   2.531   5.018  10.683  0.0353  0.2030  0.0740
  209loPI   PO4 3332   2.618   5.638  10.569 -0.5048  0.0373 -0.0513
  209loPI   GL1 3333   2.419   5.737  10.336  0.0946 -0.1345 -0.1858
  209loPI   GL2 3334   2.330   6.032  10.319 -0.1423  0.0533  0.1389
  209loPI   C1A 3335   2.343   5.832   9.870 -0.0367  0.1139  0.0564
  209loPI   C2A 3336   2.567   5.874   9.465  0.0840 -0.0594  0.3132
  209loPI   C3A 3337   2.552   5.850   9.012  0.2949  0.2280  0.0086
  209loPI   C4A 3338   2.326   5.886   8.640  0.1300  0.2896  0.3405
  209loPI   C5A 3339   2.185   5.671   8.164 -0.3526 -0.0042  0.2798
  209loPI   C6A 3340   1.899   5.486   7.951 -0.3139 -0.0180  0.1490
  209loPI   C1B 3341   2.239   6.296   9.946  0.1077 -0.0396  0.4526
  209loPI   C2B 3342   2.276   6.245   9.503 -0.2764 -0.0974 -0.1971
  209loPI   C3B 3343   2.120   5.924   9.228  0.0200 -0.0663  0.1399
  209loPI   C4B 3344   1.875   5.665   9.337  0.0329  0.3785  0.3810
  210loPI    C1 3345   8.568  11.224   9.842 -0.0399 -0.2130  0.2392
  210loPI    C2 3346   8.957  11.184   9.927  0.0512  0.1892  0.0370
  210loPI    C3 3347   8.713  11.368  10.186  0.0349  0.1139  0.0753
  210loPI   PO4 3348   8.655  11.341   9.513  0.2198  0.1375 -0.2754
  210loPI   GL1 3349   8.534  11.277   9.170 -0.0791  0.3239  0.2076
  210loPI   GL2 3350   8.282  11.091   9.309  0.1370 -0.2062 -0.1269
  210loPI   C1A 3351   8.777  11.134   8.769 -0.1014  0.0463 -0.4705
  210loPI   C2A 3352   8.914  11.064   8.351 -0.1103 -0.1079  0.1544
  210loPI   C3A 3353   8.906  11.104   7.945 -0.0032  0.0631  0.3756
  210loPI   C4A 3354   8.937  11.216   7.576 -0.0660  0.2830  0.1520
  210loPI   C5A 3355   8.918  11.262   7.112  0.0160 -0.1574  0.2694
  210loPI   C6A 3356   9.102  11.427   6.780 -0.2619 -0.1942 -0.1530
  210loPI   C1B 3357   8.014  11.296   9.017 -0.0988  0.1743  0.0044
  210loPI   C2B 3358   8.086  11.344   8.600 -0.1823 -0.0081  0.1600
  210loPI   C3B 3359   7.911  11.448   8.233 -0.0547  0.2723  0.1294
  210loPI   C4B 3360   7.860  11.618   7.901  0.1268  0.0444 -0.1247
  211loPI    C1 3361   2.195   1.560  10.055 -0.0790  0.2601 -0.0514
  211loPI    C2 3362   2.367   1.310  10.316  0.1745  0.2487 -0.2261
  211loPI    C3 3363   2.071   1.552  10.435 -0.2019 -0.2595 -0.0946
  211loPI   PO4 3364   2.085   1.388   9.844  0.3646 -0.2849 -0.1415
  211loPI   GL1 3365   2.099   1.303   9.446  0.2662 -0.3499 -0.2006
  211loPI   GL2 3366   1.979   1.678   9.399 -0.1886  0.4401  0.3369
  211loPI   C1A 3367   2.030   0.972   9.184  0.0870  0.1456  0.2408
  211loPI   C2A 3368   2.137   0.650   8.862  0.2481  0.3768 -0.0777
  211loPI   C3A 3369   2.166   0.565   8.383  0.2316  0.0991 -0.2345
  211loPI   C4A 3370   2.214   0.735   7.939 -0.0511  0.1538  0.0985
  211loPI   C5A 3371   2.203   1.000   7.557  0.0356  0.1133  0.0729
  211loPI   C6A 3372   2.436   1.331   7.464  0.2324 -0.1494  0.3448
  211loPI   C1B 3373   1.830   1.899   8.965  0.3675  0.0299 -0.3456
  211loPI   C2B 3374   2.016   1.902   8.536  0.0304 -0.0712  0.0017
  211loPI   C3B 3375   2.012   1.571   8.098 -0.0701 -0.3236  0.1443
  211loPI   C4B 3376   1.881   1.100   7.986 -0.0156 -0.4050 -0.0105
  212loPI    C1 3377   9.431   5.667   9.549  0.1180 -0.0014  0.1225
  212loPI    C2 3378   9.636   5.789   9.871  0.2950  0.0718 -0.0159
  212loPI    C3 3379   9.510   6.056   9.601  0.1695  0.0079 -0.0213
  212loPI   PO4 3380   9.231   5.561   9.668  0.2782 -0.0698 -0.3550
  212loPI   GL1 3381   8.704   5.514   9.619 -0.0849 -0.2251  0.1097
  212loPI   GL2 3382   8.512   5.802   9.559  0.1500 -0.0487  0.0343
  212loPI   C1A 3383   8.743   5.522   9.187 -0.0569 -0.3199 -0.2790
  212loPI   C2A 3384   8.949   5.361   8.818  0.0110  0.1259  0.2454
  212loPI   C3A 3385   8.852   5.318   8.389 -0.2137  0.1140  0.1625
  212loPI   C4A 3386   8.681   5.476   8.078  0.0807  0.0447  0.6428
  212loPI   C5A 3387   8.451   5.567   7.677  0.0571  0.2690  0.0488
  212loPI   C6A 3388   8.173   5.562   7.251 -0.0887 -0.1144  0.2077
  212loPI   C1B 3389   8.495   5.947   9.174  0.0082  0.3618 -0.1276
  212loPI   C2B 3390   8.748   5.920   8.830  0.1303  0.1093 -0.3119
  212loPI   C3B 3391   9.068   5.912   8.644  0.0700  0.1724 -0.0572
  212loPI   C4B 3392   9.559   5.843   8.701 -0.0299 -0.0490 -0.0533
  213loPI    C1 3393  11.242  12.432   9.617  0.1391  0.0001  0.2219
  213loPI    C2 3394  11.306  12.818   9.532 -0.0235 -0.0014  0.0872
  213loPI    C3 3395  11.513  12.640   9.825  0.0859  0.1751  0.1183
  213loPI   PO4 3396  11.190  12.303   9.456  0.0877 -0.0800  0.0712
  213loPI   GL1 3397  11.501  12.314   9.024 -0.3538 -0.0347 -0.2364
  213loPI   GL2 3398  11.201  12.597   9.068 -0.0404  0.0265 -0.1177
  213loPI   C1A 3399  11.456  12.418   8.615 -0.3231 -0.0427  0.1811
  213loPI   C2A 3400  11.452  12.615   8.165 -0.1352  0.0042 -0.1971
  213loPI   C3A 3401  11.449  12.966   7.779 -0.1564 -0.1989 -0.0124
  213loPI   C4A 3402  11.372  13.057   7.380  0.0486  0.0482 -0.1662
  213loPI   C5A 3403  11.607  13.317   7.006 -0.2371 -0.2493 -0.0817
  213loPI   C6A 3404  11.756  13.575   6.838  0.1049  0.0743  0.0679
  213loPI   C1B 3405  11.230  12.896   8.646 -0.1792 -0.0851  0.3505
  213loPI   C2B 3406  11.021  12.806   8.252  0.0692 -0.1380 -0.2742
  213loPI   C3B 3407  10.653  12.676   8.034 -0.0283  0.1614  0.0980
  213loPI   C4B 3408  10.414  12.716   7.635 -0.2508 -0.1186 -0.1504
  214loPI    C1 3409  18.515  15.069   9.587 -0.0963 -0.2206  0.1306
  214loPI    C2 3410  18.913  15.072   9.545 -0.1522 -0.0910 -0.4884
  214loPI    C3 3411  18.731  14.753   9.704  0.1932 -0.1524 -0.2031
  214loPI   PO4 3412  18.461  15.318   9.509  0.1183 -0.1211 -0.0534
  214loPI   GL1 3413  18.628  15.426   9.184  0.3047  0.1016  0.2289
  214loPI   GL2 3414  18.495  15.139   9.044  0.3171  0.0067  0.1204
  214loPI   C1A 3415  18.879  15.550   8.828 -0.0217  0.0233  0.0737
  214loPI   C2A 3416  19.064  15.321   8.508 -0.2179 -0.1675 -0.1907
  214loPI   C3A 3417  19.293  15.283   8.149  0.0538  0.0409 -0.1321
  214loPI   C4A 3418  19.467  15.526   7.750  0.1452  0.0041 -0.1294
  214loPI   C5A 3419  19.338  15.755   7.384 -0.3723  0.3469  0.3699
  214loPI   C6A 3420  19.105  15.763   7.000  0.1548 -0.2312 -0.0104
  214loPI   C1B 3421  18.493  15.209   8.581 -0.0359  0.2400 -0.0750
  214loPI   C2B 3422  18.543  15.364   8.250 -0.0718  0.2494  0.0519
  214loPI   C3B 3423  18.775  15.551   7.934  0.1728  0.1375 -0.2718
  214loPI   C4B 3424  18.856  15.544   7.441  0.2585 -0.3260 -0.5556
  215loPI    C1 3425   7.517  13.511  10.154 -0.0998 -0.0927  0.0209
  215loPI    C2 3426   7.762  13.469  10.466 -0.1686  0.3130  0.1353
  215loPI    C3 3427   7.380  13.353  10.495 -0.1114  0.1148  0.1136
  215loPI   PO4 3428   7.623  13.359   9.915  0.3511  0.3429 -0.0433
  215loPI   GL1 3429   7.677  13.286   9.402  0.0714 -0.3467  0.1348
  215loPI   GL2 3430   7.353  13.563   9.399 -0.2597 -0.3800 -0.0633
  215loPI   C1A 3431   7.634  13.266   8.900 -0.0837 -0.5466  0.1238
  215loPI   C2A 3432   7.588  13.479   8.489  0.1308 -0.4863  0.0383
  215loPI   C3A 3433   7.405  13.371   8.036  0.2332  0.2254 -0.0152
  215loPI   C4A 3434   7.440  12.999   7.723 -0.2084  0.1017 -0.1004
  215loPI   C5A 3435   7.662  12.760   7.394  0.2464  0.1091 -0.4575
  215loPI   C6A 3436   7.452  13.009   6.985  0.0208 -0.0414 -0.1494
  215loPI   C1B 3437   7.617  13.831   9.121 -0.3135 -0.2376 -0.0954
  215loPI   C2B 3438   7.876  13.822   8.839  0.0352 -0.2601  0.0519
  215loPI   C3B 3439   8.231  13.770   8.762  0.0529 -0.1201  0.3606
  215loPI   C4B 3440   8.637  13.766   8.965  0.2867 -0.4112 -0.1400
  216loPI    C1 3441   6.741   7.055   9.878 -0.0458  0.0707  0.0909
  216loPI    C2 3442   6.461   6.771   9.854  0.0313 -0.0023  0.0495
  216loPI    C3 3443   6.558   6.927  10.209  0.1430 -0.1833  0.1000
  216loPI   PO4 3444   6.741   7.192   9.652 -0.0908  0.0348 -0.0353
  216loPI   GL1 3445   6.544   7.230   9.207 -0.0335 -0.3014 -0.0544
  216loPI   GL2 3446   6.450   7.603   9.293 -0.0993  0.1615  0.2450
  216loPI   C1A 3447   6.258   7.288   8.960 -0.1858  0.2656 -0.2383
  216loPI   C2A 3448   6.062   7.672   8.792  0.0533  0.2255 -0.0649
  216loPI   C3A 3449   6.011   7.921   8.399  0.0233 -0.0834 -0.3945
  216loPI   C4A 3450   5.741   7.932   8.060  0.2056 -0.2937 -0.2645
  216loPI   C5A 3451   5.491   7.922   7.705 -0.1408  0.1353 -0.2054
  216loPI   C6A 3452   5.217   8.040   7.467  0.0924  0.0353 -0.1681
  216loPI   C1B 3453   6.645   7.723   8.865  0.2153 -0.1497 -0.6235
  216loPI   C2B 3454   6.513   7.819   8.424  0.0884  0.1829 -0.1811
  216loPI   C3B 3455   6.295   7.672   8.087 -0.2819  0.3281  0.1491
  216loPI   C4B 3456   6.529   7.709   7.792 -0.1310  0.0592 -0.1938
  217loPI    C1 3457  10.454  11.157   9.671  0.0182 -0.2878 -0.0359
  217loPI    C2 3458  10.778  10.956   9.793  0.0151 -0.2803 -0.0158
  217loPI    C3 3459  10.431  10.914   9.987  0.1002  0.0161  0.2093
  217loPI   PO4 3460  10.379  11.079   9.485 -0.0482  0.1786 -0.0586
  217loPI   GL1 3461  10.355  11.238   9.135 -0.0283  0.1005  0.0655
  217loPI   GL2 3462  10.443  11.027   8.949  0.2509 -0.2276 -0.0059
  217loPI   C1A 3463  10.018  11.110   8.742  0.2550  0.3432  0.0132
  217loPI   C2A 3464   9.994  11.175   8.435  0.1938 -0.2990  0.1509
  217loPI   C3A 3465  10.004  11.316   8.026 -0.0206 -0.1516  0.1666
  217loPI   C4A 3466   9.875  11.235   7.658  0.1315 -0.0009 -0.1165
  217loPI   C5A 3467   9.552  11.216   7.263 -0.1677 -0.4520 -0.0616
  217loPI   C6A 3468   9.463  11.700   7.162  0.0777 -0.1420  0.1270
  217loPI   C1B 3469  10.570  11.119   8.567  0.1157 -0.0836  0.1421
  217loPI   C2B 3470  10.581  11.173   8.136 -0.0223 -0.1891 -0.3284
  217loPI   C3B 3471  10.472  11.354   7.858  0.0469  0.0541  0.0027
  217loPI   C4B 3472  10.362  11.510   7.480  0.1649  0.0342 -0.1166
  218loPI    C1 3473   6.467   2.246   9.810 -0.0210  0.0857 -0.0339
  218loPI    C2 3474   6.139   2.449   9.915 -0.1405 -0.1788  0.1180
  218loPI    C3 3475   6.358   2.569   9.602 -0.1533  0.2352  0.2611
  218loPI   PO4 3476   6.339   2.018   9.793 -0.0466  0.3591 -0.1244
  218loPI   GL1 3477   6.283   1.854   9.371  0.1689 -0.0411  0.2188
  218loPI   GL2 3478   6.017   1.716   9.343  0.2546 -0.1398  0.1360
  218loPI   C1A 3479   6.454   1.830   8.888  0.0496  0.2185 -0.0937
  218loPI   C2A 3480   6.503   1.829   8.415 -0.0375 -0.1046 -0.1224
  218loPI   C3A 3481   6.477   1.875   7.989  0.2058  0.2072  0.1997
  218loPI   C4A 3482   6.567   1.644   7.558  0.1037 -0.0702  0.1982
  218loPI   C5A 3483   6.623   1.599   7.099 -0.2246 -0.0193  0.0595
  218loPI   C6A 3484   6.634   1.980   6.814 -0.1038 -0.0881  0.4805
  218loPI   C1B 3485   5.963   1.763   8.944  0.0533  0.1068  0.0206
  218loPI   C2B 3486   6.019   1.817   8.539  0.0734 -0.1193 -0.1498
  218loPI   C3B 3487   6.000   1.710   8.058 -0.2575  0.1649 -0.0407
  218loPI   C4B 3488   6.065   1.950   7.640  0.1624 -0.1070 -0.3709
  219loPI    C1 3489  14.236   9.710   9.795  0.0256  0.0361  0.0677
  219loPI    C2 3490  13.968   9.843  10.061  0.0185 -0.2411  0.2025
  219loPI    C3 3491  13.986   9.454   9.972 -0.2600 -0.1049 -0.5162
  219loPI   PO4 3492  14.214   9.841   9.518  0.0333 -0.2243  0.1770
  219loPI   GL1 3493  13.864   9.964   9.250 -0.0848  0.0716  0.1940
  219loPI   GL2 3494  13.893  10.266   9.182  0.0594 -0.0884 -0.0090
  219loPI   C1A 3495  13.933   9.864   8.811 -0.2613  0.0797 -0.1240
  219loPI   C2A 3496  13.857   9.542   8.443  0.3894  0.1253  0.0840
  219loPI   C3A 3497  13.955   9.461   7.976  0.3349 -0.0814 -0.1784
  219loPI   C4A 3498  14.077   9.165   7.698 -0.1520 -0.1479 -0.2153
  219loPI   C5A 3499  14.040   9.273   7.299  0.1070 -0.5337  0.3800
  219loPI   C6A 3500  14.233   9.523   7.057 -0.0785 -0.2184  0.1544
  219loPI   C1B 3501  13.858  10.348   8.731 -0.2516 -0.0517 -0.2793
  219loPI   C2B 3502  13.877  10.385   8.376  0.1897  0.0528 -0.1127
  219loPI   C3B 3503  13.738  10.157   8.260  0.2170  0.2851 -0.0602
  219loPI   C4B 3504  13.759   9.860   7.831 -0.0416 -0.0275 -0.1234
  220loPI    C1 3505   1.267   7.850  10.606 -0.1592 -0.1055 -0.1098
  220loPI    C2 3506   1.354   7.523  10.392  0.2337 -0.1026  0.0375
  220loPI    C3 3507   1.202   7.487  10.760  0.1324 -0.1160 -0.0053
  220loPI   PO4 3508   1.439   8.044  10.515 -0.2762 -0.1119 -0.1954
  220loPI   GL1 3509   1.577   8.296  10.185  0.1726 -0.1389 -0.0713
  220loPI   GL2 3510   1.521   8.634  10.235  0.3888  0.0872  0.2935
  220loPI   C1A 3511   1.604   8.271   9.712 -0.1979  0.1297  0.2236
  220loPI   C2A 3512   1.565   7.998   9.369 -0.2298 -0.0165 -0.1040
  220loPI   C3A 3513   1.636   7.675   9.003  0.1022  0.1817 -0.1965
  220loPI   C4A 3514   1.420   7.543   8.576 -0.0616 -0.0289 -0.0968
  220loPI   C5A 3515   1.499   7.756   8.224 -0.1015 -0.2514 -0.0075
  220loPI   C6A 3516   1.706   8.023   8.204 -0.2690 -0.0693  0.1716
  220loPI   C1B 3517   1.514   8.785   9.891  0.2607 -0.2426  0.2233
  220loPI   C2B 3518   1.222   8.831   9.498 -0.6973  0.0467 -0.0747
  220loPI   C3B 3519   1.306   8.458   9.259  0.5062 -0.2994  0.2021
  220loPI   C4B 3520   1.063   8.121   9.093 -0.1825 -0.3167  0.0014
  221loPI    C1 3521   2.710  18.894   9.831 -0.0931 -0.0311 -0.1532
  221loPI    C2 3522   2.477  18.697  10.090  0.0224 -0.0894 -0.0930
  221loPI    C3 3523   2.805  18.886  10.220 -0.1380  0.2239 -0.1352
  221loPI   PO4 3524   2.882  18.838   9.545  0.4277  0.0509  0.1032
  221loPI   GL1 3525   3.094  18.945   9.101  0.1194  0.1099 -0.4293
  221loPI   GL2 3526   3.226  18.728   9.163 -0.2494  0.4147  0.1701
  221loPI   C1A 3527   3.165  18.927   8.701  0.0083  0.3336 -0.0645
  221loPI   C2A 3528   3.229  18.922   8.297 -0.4560 -0.3232 -0.3568
  221loPI   C3A 3529   3.355  19.193   7.927 -0.0004 -0.2422 -0.3045
  221loPI   C4A 3530   3.516  19.280   7.600 -0.0978  0.2714 -0.2773
  221loPI   C5A 3531   3.825  19.383   7.292  0.2628  0.0154  0.0564
  221loPI   C6A 3532   3.908  19.664   7.048 -0.1508 -0.0811 -0.0724
  221loPI   C1B 3533   3.305  18.425   8.782  0.1133  0.1267  0.0736
  221loPI   C2B 3534   3.327  18.402   8.403  0.1490  0.0751 -0.2766
  221loPI   C3B 3535   3.262  18.549   7.963  0.2114 -0.1487 -0.0710
  221loPI   C4B 3536   3.353  18.772   7.465  0.0999  0.0072 -0.2115
  222loPI    C1 3537   4.566   9.756  10.317 -0.1690 -0.3254 -0.1923
  222loPI    C2 3538   4.873   9.511  10.393 -0.1025 -0.1615  0.0832
  222loPI    C3 3539   4.662   9.666  10.695 -0.1715  0.0857 -0.0893
  222loPI   PO4 3540   4.650   9.964  10.213  0.1007 -0.0134  0.1025
  222loPI   GL1 3541   4.676   9.929   9.835 -0.1240 -0.0375  0.1783
  222loPI   GL2 3542   4.638  10.277   9.782 -0.2231 -0.1011  0.2684
  222loPI   C1A 3543   4.675   9.812   9.410 -0.2150 -0.0293  0.2855
  222loPI   C2A 3544   4.704   9.710   8.898 -0.3561  0.1820 -0.0243
  222loPI   C3A 3545   4.625   9.744   8.552  0.1222  0.1360  0.2479
  222loPI   C4A 3546   4.675   9.778   8.136 -0.0452 -0.0885 -0.1968
  222loPI   C5A 3547   4.707   9.809   7.767  0.1923  0.1965 -0.2026
  222loPI   C6A 3548   5.092   9.894   7.532  0.1337 -0.2040 -0.1539
  222loPI   C1B 3549   5.048  10.532   9.666  0.0979  0.4198 -0.2058
  222loPI   C2B 3550   5.161  10.610   9.243  0.2500  0.0794 -0.3502
  222loPI   C3B 3551   5.295  10.531   8.756 -0.2476 -0.1148 -0.0733
  222loPI   C4B 3552   5.384  10.556   8.335  0.1862 -0.0759  0.0146
  223loPI    C1 3553   3.727  13.736  10.240 -0.1765  0.2865 -0.0444
  223loPI    C2 3554   4.069  13.902  10.365 -0.0374  0.2641 -0.3855
  223loPI    C3 3555   3.737  13.939  10.585  0.1649  0.3509 -0.0887
  223loPI   PO4 3556   3.621  13.818  10.115  0.0061 -0.0769  0.1822
  223loPI   GL1 3557   3.629  13.792   9.587  0.1981  0.0639 -0.0386
  223loPI   GL2 3558   3.438  13.906   9.437  0.0899  0.5996 -0.1563
  223loPI   C1A 3559   3.908  13.512   9.287 -0.0725 -0.1835 -0.2197
  223loPI   C2A 3560   3.960  13.614   8.810 -0.0420  0.2429 -0.1190
  223loPI   C3A 3561   3.968  13.477   8.353 -0.3660  0.0350 -0.0909
  223loPI   C4A 3562   4.028  13.384   7.950  0.0417 -0.3827 -0.0165
  223loPI   C5A 3563   3.909  13.115   7.548 -0.0849  0.0852  0.0834
  223loPI   C6A 3564   3.701  12.743   7.372  0.1029  0.0820 -0.2369
  223loPI   C1B 3565   3.242  13.645   9.125 -0.4801  0.1235  0.2642
  223loPI   C2B 3566   3.501  13.414   8.819 -0.0410  0.0605 -0.0767
  223loPI   C3B 3567   3.588  13.180   8.486 -0.1410  0.0734 -0.0071
  223loPI   C4B 3568   3.591  13.042   7.925  0.1307  0.1078 -0.3641
  224loPI    C1 3569  18.464   1.255   9.688  0.0848  0.2905 -0.0358
  224loPI    C2 3570  18.542   1.499   9.996  0.0900 -0.0653  0.2522
  224loPI    C3 3571  18.401   1.130  10.063  0.2515 -0.2096 -0.1663
  224loPI   PO4 3572  18.649   1.261   9.560  0.2521  0.0393  0.0375
  224loPI   GL1 3573  18.710   1.505   9.169  0.0522 -0.1218  0.1566
  224loPI   GL2 3574  18.567   1.345   9.006 -0.0938  0.0460 -0.1143
  224loPI   C1A 3575  18.711   1.852   8.827  0.2025  0.0068  0.0757
  224loPI   C2A 3576  18.698   2.264   8.638  0.1043 -0.0367  0.1756
  224loPI   C3A 3577  18.792   2.447   8.249 -0.1060 -0.1668  0.1217
  224loPI   C4A 3578  18.629   2.469   7.912  0.1135 -0.3506  0.2453
  224loPI   C5A 3579  18.561   2.907   7.698 -0.1303 -0.0690 -0.2027
  224loPI   C6A 3580  18.635   3.085   7.323 -0.1285  0.4010  0.0383
  224loPI   C1B 3581  18.494   1.097   8.605  0.2824 -0.0731  0.2145
  224loPI   C2B 3582  18.725   0.790   8.490  0.1123 -0.0834  0.1716
  224loPI   C3B 3583  18.688   0.519   8.041  0.0869  0.1496 -0.0503
  224loPI   C4B 3584  18.734   0.689   7.638  0.1420  0.0623  0.1765
  225loPI    C1 3585   2.679  11.121  10.447  0.0616 -0.0105  0.0513
  225loPI    C2 3586   2.977  11.106  10.713 -0.1031  0.1000  0.2444
  225loPI    C3 3587   2.609  11.211  10.830 -0.1655  0.2039 -0.0378
  225loPI   PO4 3588   2.774  11.209  10.208  0.2091  0.1319  0.0214
  225loPI   GL1 3589   2.856  11.190   9.860 -0.0114 -0.4099  0.1313
  225loPI   GL2 3590   2.964  11.425   9.769 -0.0056  0.0450 -0.2593
  225loPI   C1A 3591   2.598  10.872   9.590 -0.2928 -0.1109  0.0249
  225loPI   C2A 3592   2.581  10.776   9.096  0.1020 -0.3571  0.1561
  225loPI   C3A 3593   2.562  10.571   8.621  0.2053 -0.2581  0.0139
  225loPI   C4A 3594   2.637  10.403   8.257  0.2970  0.0275 -0.2037
  225loPI   C5A 3595   2.674  10.220   7.798  0.0540 -0.2478 -0.0979
  225loPI   C6A 3596   2.774   9.879   7.702  0.0955  0.0521  0.0909
  225loPI   C1B 3597   2.716  11.355   9.395  0.3716  0.1784 -0.0191
  225loPI   C2B 3598   2.690  11.285   9.018 -0.2936  0.0259  0.1109
  225loPI   C3B 3599   2.847  11.125   8.716  0.2504 -0.3295  0.0397
  225loPI   C4B 3600   2.956  11.125   8.385  0.0857 -0.0351  0.3115
  226loPI    C1 3601   9.490   9.472  10.081 -0.1504  0.0420  0.0284
  226loPI    C2 3602   9.409   9.855   9.996  0.0981  0.0559 -0.1557
  226loPI    C3 3603   9.768   9.754  10.143  0.0649 -0.1180 -0.1922
  226loPI   PO4 3604   9.502   9.276   9.848 -0.2052  0.0179  0.4637
  226loPI   GL1 3605   9.545   9.163   9.457  0.0585  0.1157  0.1977
  226loPI   GL2 3606   9.200   8.986   9.503 -0.3384 -0.0194 -0.0550
  226loPI   C1A 3607   9.369   9.408   9.096  0.4292  0.1716  0.1074
  226loPI   C2A 3608   9.160   9.269   8.703  0.0268 -0.1990 -0.2562
  226loPI   C3A 3609   9.045   9.209   8.249  0.0608 -0.1099 -0.3531
  226loPI   C4A 3610   9.033   9.065   7.771  0.1921 -0.0318  0.0761
  226loPI   C5A 3611   8.748   9.307   7.387  0.1679 -0.0669  0.0153
  226loPI   C6A 3612   8.367   9.210   7.272 -0.1809  0.0017 -0.0279
  226loPI   C1B 3613   9.232   8.893   9.055 -0.0411 -0.0029  0.1990
  226loPI   C2B 3614   9.281   8.756   8.654  0.0553 -0.5136  0.1007
  226loPI   C3B 3615   9.176   8.536   8.278 -0.2848 -0.1650 -0.0866
  226loPI   C4B 3616   9.114   8.423   7.852  0.1629  0.0557  0.0175
  227loPI    C1 3617  13.734  18.707   9.782 -0.3609  0.0604 -0.0497
  227loPI    C2 3618  13.591  19.065   9.677  0.0634  0.2193 -0.1076
  227loPI    C3 3619  13.899  19.040   9.930 -0.0182 -0.1107 -0.0368
  227loPI   PO4 3620  13.659  18.550   9.545  0.0518  0.0095 -0.0082
  227loPI   GL1 3621  13.695  18.563   9.098 -0.1389 -0.1112  0.2266
  227loPI   GL2 3622  13.756  18.325   8.872 -0.2748  0.0162  0.2652
  227loPI   C1A 3623  13.541  18.759   8.650 -0.0564 -0.3017 -0.2055
  227loPI   C2A 3624  13.434  18.604   8.277 -0.0147 -0.1871 -0.1550
  227loPI   C3A 3625  13.540  18.656   7.907 -0.2121  0.0063 -0.0226
  227loPI   C4A 3626  13.682  18.831   7.482 -0.1159 -0.1943  0.0040
  227loPI   C5A 3627  13.929  18.620   7.114  0.0314  0.3782 -0.0552
  227loPI   C6A 3628  14.203  18.569   6.821  0.2567 -0.0326  0.1384
  227loPI   C1B 3629  13.846  18.439   8.477 -0.1095 -0.2053  0.3132
  227loPI   C2B 3630  14.011  18.489   8.065  0.1365  0.1127 -0.1652
  227loPI   C3B 3631  13.976  18.481   7.628  0.0422  0.2618  0.1718
  227loPI   C4B 3632  14.272  18.324   7.298  0.3015  0.1386  0.2006
  228loPI    C1 3633  17.041  17.418   9.520 -0.1417  0.1017  0.0530
  228loPI    C2 3634  16.730  17.195   9.402 -0.2281  0.2172  0.0610
  228loPI    C3 3635  16.672  17.574   9.516 -0.0590  0.2969 -0.1125
  228loPI   PO4 3636  17.192  17.465   9.331 -0.1739  0.1170 -0.2179
  228loPI   GL1 3637  17.079  17.410   8.906 -0.0409  0.2154  0.2832
  228loPI   GL2 3638  16.862  17.736   9.108  0.0328  0.2640 -0.0286
  228loPI   C1A 3639  17.148  17.478   8.456 -0.2794 -0.1613  0.1014
  228loPI   C2A 3640  17.283  17.480   8.051 -0.1031  0.0042 -0.0079
  228loPI   C3A 3641  17.415  17.556   7.653  0.1282  0.0080  0.0646
  228loPI   C4A 3642  17.486  17.414   7.228  0.1565  0.0021 -0.0351
  228loPI   C5A 3643  17.443  17.273   6.852  0.1200 -0.2018 -0.4198
  228loPI   C6A 3644  17.434  16.857   6.734  0.1303 -0.4270  0.2201
  228loPI   C1B 3645  16.886  17.836   8.646  0.1918  0.4466  0.3674
  228loPI   C2B 3646  17.118  17.944   8.133  0.0520 -0.2171 -0.1519
  228loPI   C3B 3647  17.400  18.144   7.796 -0.0192 -0.2280  0.0577
  228loPI   C4B 3648  17.817  18.276   7.863 -0.0341  0.3829  0.0884
  229loPI    C1 3649  18.168   5.719  10.086 -0.0579  0.0652  0.0472
  229loPI    C2 3650  18.377   5.929  10.355 -0.1177 -0.2470  0.3442
  229loPI    C3 3651  18.024   6.065  10.226 -0.0911 -0.0972  0.4270
  229loPI   PO4 3652  18.456   5.617   9.859  0.3963  0.2747  0.2226
  229loPI   GL1 3653  18.509   5.505   9.426  0.0211  0.0264  0.2023
  229loPI   GL2 3654  18.364   5.274   9.416  0.1821  0.0226 -0.2531
  229loPI   C1A 3655  18.736   5.598   9.079  0.4874 -0.3254  0.2555
  229loPI   C2A 3656  18.899   5.661   8.602  0.0357  0.3918  0.1998
  229loPI   C3A 3657  18.891   5.689   8.101  0.1626  0.0737  0.1116
  229loPI   C4A 3658  19.123   5.721   7.724  0.0135  0.0475 -0.0697
  229loPI   C5A 3659  19.506   5.546   7.528 -0.1616  0.0166  0.1332
  229loPI   C6A 3660  19.351   5.248   7.266  0.2847  0.0522  0.0346
  229loPI   C1B 3661  18.345   5.318   8.987  0.1152 -0.1591  0.5372
  229loPI   C2B 3662  18.433   5.285   8.529 -0.0008 -0.0648 -0.1384
  229loPI   C3B 3663  18.277   5.207   8.192 -0.1851  0.1165  0.1762
  229loPI   C4B 3664  18.021   5.204   7.854 -0.3197  0.1386 -0.2046
  230loPI    C1 3665  13.904  11.704   9.668 -0.0981  0.0714 -0.0921
  230loPI    C2 3666  13.808  11.418   9.931 -0.1446  0.2429  0.0792
  230loPI    C3 3667  13.737  11.803  10.018 -0.1689  0.3008 -0.1885
  230loPI   PO4 3668  13.690  11.707   9.465  0.3869 -0.2564 -0.1860
  230loPI   GL1 3669  13.592  11.663   9.019 -0.1345  0.0680 -0.0531
  230loPI   GL2 3670  13.248  11.660   8.895 -0.0224 -0.2292  0.2944
  230loPI   C1A 3671  13.787  11.953   8.738  0.1413 -0.3414  0.2217
  230loPI   C2A 3672  14.049  11.946   8.342  0.0505  0.0332  0.2353
  230loPI   C3A 3673  14.057  11.764   7.984  0.1545  0.2893  0.0677
  230loPI   C4A 3674  14.113  11.636   7.538  0.2307  0.0577  0.2708
  230loPI   C5A 3675  14.056  11.722   7.025  0.0031 -0.0965 -0.0787
  230loPI   C6A 3676  14.164  11.839   6.641 -0.0252  0.5022 -0.0437
  230loPI   C1B 3677  13.170  11.707   8.407  0.0936 -0.0764  0.1604
  230loPI   C2B 3678  13.035  11.773   8.015  0.0350 -0.1405 -0.1274
  230loPI   C3B 3679  12.975  11.706   7.604  0.0705 -0.3198 -0.1063
  230loPI   C4B 3680  12.869  11.858   7.254 -0.0478  0.2459  0.3090
  231loPI    C1 3681   1.233   1.390  10.281  0.0096 -0.1333 -0.1414
  231loPI    C2 3682   0.867   1.240  10.343  0.1123 -0.2242  0.2803
  231loPI    C3 3683   1.051   1.444  10.633  0.1444  0.3743 -0.1423
  231loPI   PO4 3684   1.259   1.198  10.011 -0.1907  0.0219 -0.0392
  231loPI   GL1 3685   1.134   1.111   9.624  0.0492 -0.1644 -0.0234
  231loPI   GL2 3686   1.289   0.758   9.615 -0.0056 -0.5998 -0.2467
  231loPI   C1A 3687   0.963   0.937   9.199  0.0099  0.3349 -0.1409
  231loPI   C2A 3688   1.100   0.926   8.790 -0.0117 -0.3424 -0.2096
  231loPI   C3A 3689   1.094   1.006   8.437 -0.5117 -0.0991 -0.1030
  231loPI   C4A 3690   1.325   1.209   8.099 -0.1460  0.0667  0.1886
  231loPI   C5A 3691   1.598   1.483   7.833  0.3301  0.0141 -0.1339
  231loPI   C6A 3692   1.601   1.818   7.570  0.1246  0.0566 -0.0572
  231loPI   C1B 3693   1.568   0.999   9.280  0.1812  0.0313  0.3485
  231loPI   C2B 3694   1.602   0.971   8.856 -0.3728 -0.0499  0.1549
  231loPI   C3B 3695   1.762   1.201   8.507 -0.1516 -0.1222 -0.1818
  231loPI   C4B 3696   2.139   1.148   8.434  0.1703 -0.2232 -0.2679
  232loPI    C1 3697  14.334  18.017   9.632 -0.0338 -0.2587 -0.0285
  232loPI    C2 3698  14.304  17.934  10.022  0.1730 -0.1686  0.0079
  232loPI    C3 3699  14.535  18.236   9.899 -0.2170  0.0712 -0.1559
  232loPI   PO4 3700  14.441  17.846   9.486  0.0884 -0.1128 -0.2649
  232loPI   GL1 3701  14.628  17.945   9.031  0.4037 -0.0108 -0.1531
  232loPI   GL2 3702  14.780  18.109   8.900 -0.1542 -0.1058 -0.1978
  232loPI   C1A 3703  14.595  17.502   8.695 -0.1121  0.2213  0.0669
  232loPI   C2A 3704  14.588  17.387   8.307  0.1800 -0.1567  0.1923
  232loPI   C3A 3705  14.371  17.457   7.884  0.0158 -0.0368 -0.0814
  232loPI   C4A 3706  14.430  17.380   7.368 -0.1624 -0.0688 -0.0468
  232loPI   C5A 3707  14.268  16.960   7.235  0.2830  0.1843  0.3665
  232loPI   C6A 3708  14.282  16.489   7.276 -0.1350 -0.1854 -0.0470
  232loPI   C1B 3709  14.720  18.023   8.444 -0.3036 -0.2385  0.1656
  232loPI   C2B 3710  14.826  18.068   8.047 -0.1470 -0.3021 -0.2479
  232loPI   C3B 3711  14.905  18.139   7.618 -0.0734 -0.0591  0.2648
  232loPI   C4B 3712  14.565  17.904   7.467 -0.4661  0.1677  0.0879
  233loPI    C1 3713  18.584   7.148   9.991  0.0280 -0.2171  0.0098
  233loPI    C2 3714  18.455   7.436  10.238  0.2456 -0.2316  0.1434
  233loPI    C3 3715  18.833   7.438  10.109  0.1170 -0.1872 -0.2468
  233loPI   PO4 3716  18.487   7.136   9.855  0.0394 -0.1300  0.0729
  233loPI   GL1 3717  18.508   7.491   9.475  0.1921  0.0319 -0.0107
  233loPI   GL2 3718  18.459   7.187   9.367 -0.2551 -0.0189 -0.4640
  233loPI   C1A 3719  18.122   7.569   9.141 -0.0571 -0.0320 -0.3555
  233loPI   C2A 3720  17.897   7.732   8.692 -0.1965  0.1965 -0.0203
  233loPI   C3A 3721  17.788   8.025   8.414  0.3187 -0.0172  0.0458
  233loPI   C4A 3722  17.761   8.311   8.166 -0.1090  0.1166 -0.1031
  233loPI   C5A 3723  17.708   8.505   7.744  0.0683 -0.2069 -0.3101
  233loPI   C6A 3724  17.807   8.946   7.662  0.2220 -0.0768 -0.4407
  233loPI   C1B 3725  18.607   7.333   8.976 -0.3870  0.0127  0.1801
  233loPI   C2B 3726  18.838   7.522   8.757  0.0661  0.0186  0.3116
  233loPI   C3B 3727  19.142   7.534   8.432  0.0094 -0.5842  0.2563
  233loPI   C4B 3728  19.432   7.432   7.978  0.1162  0.1319  0.3203
  234loPI    C1 3729   2.297  16.220   9.905  0.1261 -0.0918  0.0572
  234loPI    C2 3730   2.243  16.075  10.274 -0.0133 -0.0979  0.0353
  234loPI    C3 3731   2.494  15.892  10.022  0.0750 -0.0993  0.1234
  234loPI   PO4 3732   2.094  16.321   9.804 -0.1308  0.2045 -0.3702
  234loPI   GL1 3733   2.171  16.441   9.443  0.0243 -0.2964 -0.1155
  234loPI   GL2 3734   1.863  16.475   9.299 -0.1017 -0.0841 -0.1874
  234loPI   C1A 3735   2.288  16.468   9.092 -0.0462 -0.2965  0.3704
  234loPI   C2A 3736   2.256  16.588   8.654 -0.1766 -0.1338  0.0120
  234loPI   C3A 3737   2.294  16.657   8.276  0.3060 -0.1437 -0.0090
  234loPI   C4A 3738   2.362  16.768   7.716 -0.0838 -0.0779  0.2880
  234loPI   C5A 3739   2.435  16.867   7.287 -0.1605 -0.1624  0.3399
  234loPI   C6A 3740   2.851  16.985   7.082  0.1682 -0.1638 -0.0257
  234loPI   C1B 3741   1.868  16.597   8.897  0.0805  0.0192 -0.1762
  234loPI   C2B 3742   1.830  16.489   8.442  0.1167 -0.1715  0.1787
  234loPI   C3B 3743   1.632  16.149   8.263  0.0751 -0.4704 -0.0308
  234loPI   C4B 3744   1.705  15.732   8.118 -0.2590 -0.1204 -0.3233
  235loPI    C1 3745  16.876   1.812   9.097 -0.1053 -0.2529 -0.0945
  235loPI    C2 3746  16.790   2.000   9.439  0.2929  0.1644 -0.2130
  235loPI    C3 3747  16.976   1.646   9.447  0.1295  0.0808  0.0018
  235loPI   PO4 3748  16.933   2.033   8.954  0.1648  0.0985  0.1983
  235loPI   GL1 3749  16.712   2.129   8.615 -0.2355  0.2122 -0.1042
  235loPI   GL2 3750  16.786   1.862   8.522  0.1888  0.0243 -0.2557
  235loPI   C1A 3751  16.658   2.234   8.250 -0.2227  0.0699  0.1400
  235loPI   C2A 3752  16.825   2.112   7.850  0.3048  0.2095  0.1753
  235loPI   C3A 3753  16.914   2.260   7.451 -0.3638  0.1325 -0.0277
  235loPI   C4A 3754  16.925   2.482   7.131  0.1744 -0.1157  0.3215
  235loPI   C5A 3755  16.825   2.482   6.663 -0.0371 -0.2093 -0.0536
  235loPI   C6A 3756  16.829   2.593   6.318  0.1166  0.0815 -0.0059
  235loPI   C1B 3757  16.631   1.759   8.122  0.1518  0.0524  0.0594
  235loPI   C2B 3758  16.525   1.664   7.661 -0.0434 -0.1988 -0.1711
  235loPI   C3B 3759  16.250   1.453   7.321 -0.2755  0.1795  0.2040
  235loPI   C4B 3760  15.850   1.307   7.315  0.1056  0.2578 -0.0059
  236loPI    C1 3761   3.903   4.859  10.506  0.0965 -0.3113  0.1090
  236loPI    C2 3762   3.981   4.809  10.117 -0.1269 -0.0368  0.0258
  236loPI    C3 3763   4.279   4.797  10.383  0.0306 -0.2021 -0.1548
  236loPI   PO4 3764   3.738   5.086  10.497 -0.2375  0.2160 -0.4559
  236loPI   GL1 3765   3.770   5.254  10.217  0.2048  0.0489 -0.1633
  236loPI   GL2 3766   3.438   5.318  10.146  0.0966 -0.0768 -0.0979
  236loPI   C1A 3767   3.822   5.174   9.771 -0.3994 -0.0307 -0.0671
  236loPI   C2A 3768   4.308   5.293   9.529  0.1212  0.0429  0.1405
  236loPI   C3A 3769   4.649   5.432   9.353 -0.2499 -0.3784  0.0046
  236loPI   C4A 3770   4.793   5.581   8.924 -0.4053  0.0739 -0.0870
  236loPI   C5A 3771   4.952   5.594   8.569  0.1780  0.0685  0.0665
  236loPI   C6A 3772   5.006   5.665   8.179  0.1055  0.2627 -0.1276
  236loPI   C1B 3773   3.448   5.567   9.892  0.0206 -0.2540  0.1092
  236loPI   C2B 3774   3.386   5.797   9.404  0.0426 -0.1683  0.1845
  236loPI   C3B 3775   3.344   5.768   8.916 -0.3147  0.1045 -0.0135
  236loPI   C4B 3776   3.312   5.708   8.527  0.2903 -0.0037  0.4322
  237loPI    C1 3777   0.525   9.188  10.271  0.0591  0.2134 -0.0225
  237loPI    C2 3778   0.847   9.187  10.033  0.1256  0.1945  0.0671
  237loPI    C3 3779   0.883   9.288  10.418 -0.0202  0.4441  0.0173
  237loPI   PO4 3780   0.349   8.967  10.105  0.4439 -0.0832 -0.2756
  237loPI   GL1 3781   0.132   8.774   9.846 -0.0237  0.1801 -0.0376
  237loPI   GL2 3782  -0.064   8.936   9.790 -0.0349  0.2630  0.0129
  237loPI   C1A 3783   0.313   8.596   9.465 -0.0600  0.0393 -0.0122
  237loPI   C2A 3784   0.260   8.651   8.991  0.2652  0.2956 -0.0121
  237loPI   C3A 3785   0.348   8.422   8.663 -0.1628  0.4932 -0.3616
  237loPI   C4A 3786   0.228   8.038   8.423 -0.0610 -0.1736  0.1837
  237loPI   C5A 3787   0.210   7.997   8.029  0.2041 -0.0698  0.1956
  237loPI   C6A 3788  -0.015   8.298   7.701  0.1786 -0.0299 -0.0639
  237loPI   C1B 3789   0.189   9.076   9.428 -0.0712  0.1822 -0.4377
  237loPI   C2B 3790   0.438   9.146   9.111  0.1026 -0.1266 -0.2696
  237loPI   C3B 3791   0.655   8.992   8.742 -0.1640 -0.1389 -0.0694
  237loPI   C4B 3792   0.932   9.287   8.566 -0.1012  0.2008  0.1333
  238loPI    C1 3793  12.942   8.616   9.745  0.0941  0.1353 -0.5171
  238loPI    C2 3794  13.098   8.935   9.928  0.4201 -0.2409 -0.1159
  238loPI    C3 3795  12.701   8.890   9.908  0.3750 -0.0439  0.2430
  238loPI   PO4 3796  13.136   8.639   9.509 -0.2052 -0.0786  0.1528
  238loPI   GL1 3797  13.095   8.572   9.013 -0.0013 -0.4578 -0.1485
  238loPI   GL2 3798  12.829   8.499   8.916  0.2335  0.2769  0.0342
  238loPI   C1A 3799  13.275   8.750   8.609 -0.1287 -0.0194  0.1371
  238loPI   C2A 3800  13.453   8.791   8.247 -0.0609  0.0937 -0.0655
  238loPI   C3A 3801  13.447   8.574   7.839  0.1057 -0.5646 -0.1338
  238loPI   C4A 3802  13.686   8.745   7.495 -0.1396  0.2227  0.1543
  238loPI   C5A 3803  13.641   8.859   7.090 -0.2353 -0.2591 -0.0510
  238loPI   C6A 3804  13.333   9.115   6.801  0.0625 -0.0773 -0.1858
  238loPI   C1B 3805  12.774   8.673   8.525  0.1309  0.1471 -0.2923
  238loPI   C2B 3806  12.760   8.863   8.190 -0.1107  0.3363 -0.2500
  238loPI   C3B 3807  12.993   8.988   7.886 -0.0634 -0.3737 -0.1787
  238loPI   C4B 3808  13.180   8.891   7.419  0.3855  0.1953  0.0263
  239loPI    C1 3809  14.255   2.095   9.334 -0.1008  0.4007 -0.1246
  239loPI    C2 3810  14.393   2.240   9.680  0.0584 -0.2258  0.0887
  239loPI    C3 3811  14.600   2.297   9.342  0.0222  0.1866  0.1302
  239loPI   PO4 3812  13.957   2.140   9.265  0.0373  0.4342 -0.0157
  239loPI   GL1 3813  13.699   2.178   8.949 -0.1942  0.3728  0.1385
  239loPI   GL2 3814  13.896   1.931   8.818 -0.1440  0.2850 -0.0950
  239loPI   C1A 3815  13.623   2.459   8.600  0.1824  0.2772  0.0457
  239loPI   C2A 3816  13.699   2.589   8.151  0.1816  0.1692  0.0973
  239loPI   C3A 3817  13.789   2.830   7.869  0.0019  0.2943  0.2715
  239loPI   C4A 3818  13.857   3.073   7.617 -0.0013  0.0020  0.2168
  239loPI   C5A 3819  13.905   3.060   7.176 -0.4096  0.0967  0.1636
  239loPI   C6A 3820  13.844   3.019   6.763 -0.0983 -0.4389 -0.0201
  239loPI   C1B 3821  13.813   2.015   8.368  0.3141  0.1074  0.1491
  239loPI   C2B 3822  13.815   2.089   7.947 -0.1067  0.0025  0.0422
  239loPI   C3B 3823  13.852   2.073   7.603 -0.0931 -0.2439  0.1273
  239loPI   C4B 3824  13.943   2.075   7.260  0.2388 -0.2073 -0.0478
  240loPI    C1 3825   5.328   7.711  10.501  0.2712 -0.0625 -0.2112
  240loPI    C2 3826   5.659   7.504  10.589  0.2972 -0.0327 -0.2391
  240loPI    C3 3827   5.382   7.567  10.871  0.2930 -0.0984 -0.2283
  240loPI   PO4 3828   5.345   7.654  10.214  0.2325  0.2562  0.0403
  240loPI   GL1 3829   5.119   7.762   9.908 -0.2941 -0.2543  0.2468
  240loPI   GL2 3830   5.085   7.509   9.800  0.0310  0.1247  0.1165
  240loPI   C1A 3831   5.084   8.143   9.833  0.2001  0.2536 -0.0146
  240loPI   C2A 3832   4.926   8.507   9.525  0.1190  0.1540 -0.0829
  240loPI   C3A 3833   4.960   8.569   8.986  0.0128  0.1630  0.1662
  240loPI   C4A 3834   4.878   8.724   8.482  0.4428  0.1468 -0.2556
  240loPI   C5A 3835   4.906   8.667   8.014 -0.3726  0.0553 -0.1929
  240loPI   C6A 3836   4.885   8.538   7.624  0.2792 -0.1244 -0.2256
  240loPI   C1B 3837   4.925   7.499   9.374  0.2463 -0.0741 -0.0455
  240loPI   C2B 3838   4.770   7.621   8.958 -0.1428  0.0269  0.1242
  240loPI   C3B 3839   4.562   7.498   8.613 -0.0413 -0.1687 -0.0535
  240loPI   C4B 3840   4.445   7.489   8.188 -0.1639 -0.2125  0.3013
  241loPI    C1 3841  14.936  16.320   9.619  0.0645 -0.1472  0.1521
  241loPI    C2 3842  14.592  16.439   9.784  0.0450 -0.2082  0.1557
  241loPI    C3 3843  14.938  16.509   9.971  0.0753  0.2613 -0.0611
  241loPI   PO4 3844  14.886  16.302   9.313 -0.1263  0.2888  0.0913
  241loPI   GL1 3845  14.805  16.217   8.937  0.0279  0.0469  0.1540
  241loPI   GL2 3846  14.784  16.575   8.850  0.3228 -0.2810 -0.1313
  241loPI   C1A 3847  14.938  16.064   8.572 -0.0946 -0.1156  0.2113
  241loPI   C2A 3848  14.863  16.251   8.144  0.1356 -0.1631 -0.0320
  241loPI   C3A 3849  15.065  16.257   7.728 -0.0994 -0.1097  0.2865
  241loPI   C4A 3850  15.419  16.351   7.489 -0.0106  0.0108 -0.3003
  241loPI   C5A 3851  15.521  16.256   7.080 -0.0350 -0.0659  0.0105
  241loPI   C6A 3852  15.504  16.495   6.750  0.0697 -0.1363  0.1318
  241loPI   C1B 3853  14.717  16.629   8.421  0.1883  0.1137 -0.3143
  241loPI   C2B 3854  14.542  16.648   7.992 -0.0075 -0.1911  0.6620
  241loPI   C3B 3855  14.437  16.344   7.712  0.3191 -0.0236 -0.0765
  241loPI   C4B 3856  14.698  16.159   7.401  0.0435  0.0413 -0.1167
  242loPI    C1 3857   9.521  15.775   9.384  0.0617  0.2349 -0.0237
  242loPI    C2 3858   9.593  15.477   9.641 -0.0544  0.4137  0.2195
  242loPI    C3 3859   9.885  15.733   9.546  0.0645  0.1860 -0.0425
  242loPI   PO4 3860   9.279  15.775   9.379  0.1903  0.0512  0.0056
  242loPI   GL1 3861   9.116  15.619   9.016  0.0337 -0.1746  0.2633
  242loPI   GL2 3862   9.367  15.590   8.878  0.5561 -0.0328 -0.1915
  242loPI   C1A 3863   8.777  15.477   8.526 -0.2986  0.3976 -0.2560
  242loPI   C2A 3864   8.618  15.053   8.368 -0.0921  0.0395 -0.1958
  242loPI   C3A 3865   8.482  14.708   8.182 -0.0932  0.1109 -0.1028
  242loPI   C4A 3866   8.512  14.286   7.974  0.1814 -0.0603 -0.2411
  242loPI   C5A 3867   8.980  14.140   7.827 -0.1393  0.0082 -0.2076
  242loPI   C6A 3868   9.370  14.126   8.026 -0.3996  0.0189  0.0319
  242loPI   C1B 3869   9.656  15.459   8.576 -0.0082 -0.3287  0.1791
  242loPI   C2B 3870   9.785  15.303   8.218 -0.0188  0.1222  0.0195
  242loPI   C3B 3871   9.493  15.110   7.845 -0.0151  0.2543 -0.3361
  242loPI   C4B 3872   9.561  15.039   7.521  0.0855 -0.0329 -0.0158
  243loPI    C1 3873  16.037   5.364   9.635 -0.0192  0.2743 -0.1984
  243loPI    C2 3874  15.935   5.741   9.722  0.3221  0.2501  0.3589
  243loPI    C3 3875  15.795   5.439   9.945  0.0963  0.0443 -0.0493
  243loPI   PO4 3876  16.073   5.381   9.338  0.4040  0.1441  0.0403
  243loPI   GL1 3877  15.910   5.441   8.986 -0.0490  0.0693  0.0435
  243loPI   GL2 3878  15.795   5.205   8.939  0.1948 -0.3445  0.2418
  243loPI   C1A 3879  15.830   5.804   8.694 -0.0053 -0.1494 -0.1618
  243loPI   C2A 3880  15.834   6.062   8.267  0.0935  0.0571 -0.0603
  243loPI   C3A 3881  15.809   6.259   7.798  0.1282 -0.0570 -0.0880
  243loPI   C4A 3882  15.978   6.403   7.348  0.4998 -0.2291 -0.0817
  243loPI   C5A 3883  16.090   6.282   7.006  0.2748  0.0770  0.0121
  243loPI   C6A 3884  15.994   6.333   6.608 -0.0347  0.0375 -0.3618
  243loPI   C1B 3885  15.709   5.221   8.529 -0.0982 -0.3973  0.2306
  243loPI   C2B 3886  15.756   5.569   8.183  0.1795  0.2282  0.1659
  243loPI   C3B 3887  15.648   5.800   7.822 -0.2740  0.2765 -0.4139
  243loPI   C4B 3888  15.552   5.975   7.418  0.0815 -0.0567 -0.0690
  244loPI    C1 3889   4.095  18.551   9.620  0.1224  0.1753 -0.0049
  244loPI    C2 3890   4.063  18.152   9.639  0.3201  0.1487 -0.1829
  244loPI    C3 3891   3.795  18.384   9.826  0.2340 -0.0668 -0.0349
  244loPI   PO4 3892   4.075  18.606   9.374 -0.2814  0.1410 -0.0961
  244loPI   GL1 3893   4.193  18.981   9.172  0.2925 -0.3160  0.0448
  244loPI   GL2 3894   4.165  19.148   9.240  0.0325  0.2776 -0.4036
  244loPI   C1A 3895   4.305  19.026   8.728  0.0755 -0.0771  0.1158
  244loPI   C2A 3896   4.276  18.942   8.296  0.1442 -0.1299 -0.0257
  244loPI   C3A 3897   4.286  18.764   7.878 -0.1549  0.0680  0.0156
  244loPI   C4A 3898   4.383  18.735   7.327 -0.0256  0.1136 -0.5305
  244loPI   C5A 3899   4.550  18.803   6.877  0.2420 -0.0519  0.0639
  244loPI   C6A 3900   4.578  19.113   6.597  0.3372  0.3913 -0.1399
  244loPI   C1B 3901   4.353  19.460   8.941  0.0816 -0.0250  0.1972
  244loPI   C2B 3902   4.512  19.442   8.429 -0.0778  0.1499 -0.0098
  244loPI   C3B 3903   4.730  19.108   8.165 -0.0223 -0.0526 -0.1956
  244loPI   C4B 3904   4.797  18.943   7.817 -0.3174  0.3016 -0.2632
  245loPI    C1 3905  12.140   1.948   9.157 -0.0162 -0.0725  0.1939
  245loPI    C2 3906  12.237   2.046   8.781  0.2805 -0.1191  0.2563
  245loPI    C3 3907  11.983   2.276   8.989 -0.0435 -0.2024 -0.0383
  245loPI   PO4 3908  11.988   1.664   9.187 -0.0405  0.2240  0.0950
  245loPI   GL1 3909  11.533   1.663   9.125  0.0191 -0.1096 -0.2022
  245loPI   GL2 3910  11.656   1.920   8.935 -0.0989 -0.0689  0.0850
  245loPI   C1A 3911  11.438   1.409   8.684  0.1262  0.0296 -0.0150
  245loPI   C2A 3912  11.443   1.376   8.253 -0.0575  0.3324  0.1877
  245loPI   C3A 3913  11.485   1.246   7.841  0.2324  0.1019  0.1644
  245loPI   C4A 3914  11.589   1.208   7.367 -0.1719 -0.1375  0.1696
  245loPI   C5A 3915  11.867   1.405   7.189  0.1233  0.0046  0.1659
  245loPI   C6A 3916  12.059   1.720   6.971 -0.0384 -0.1416 -0.0920
  245loPI   C1B 3917  11.893   1.851   8.603 -0.3137 -0.0546  0.1695
  245loPI   C2B 3918  11.879   1.691   8.194 -0.0393 -0.0471 -0.4935
  245loPI   C3B 3919  11.811   1.632   7.689  0.4212  0.1582 -0.0524
  245loPI   C4B 3920  11.698   1.805   7.360 -0.0325 -0.2543  0.2260
  246loPI    C1 3921  15.798   8.581  10.173  0.0926  0.0483  0.1373
  246loPI    C2 3922  15.460   8.712  10.342  0.0189  0.2665 -0.1717
  246loPI    C3 3923  15.543   8.320  10.338 -0.0584  0.2420  0.2135
  246loPI   PO4 3924  15.835   8.913  10.033  0.0015  0.0395  0.3566
  246loPI   GL1 3925  15.970   9.104   9.555  0.3474 -0.1746  0.0662
  246loPI   GL2 3926  15.741   9.244   9.384  0.3677 -0.3059 -0.0469
  246loPI   C1A 3927  16.319   8.961   9.294 -0.4254  0.1853  0.0614
  246loPI   C2A 3928  16.472   8.731   9.101  0.1103 -0.0571 -0.0900
  246loPI   C3A 3929  16.664   8.510   8.631  0.0983  0.1666 -0.0070
  246loPI   C4A 3930  16.904   8.612   8.286  0.0588  0.1391 -0.1946
  246loPI   C5A 3931  17.320   8.668   8.102  0.2245  0.3396 -0.1010
  246loPI   C6A 3932  17.614   8.912   8.132 -0.0458  0.1358 -0.1562
  246loPI   C1B 3933  15.783   9.078   8.970 -0.0566  0.0423 -0.0188
  246loPI   C2B 3934  15.718   8.868   8.550 -0.0812  0.0308 -0.0634
  246loPI   C3B 3935  15.840   8.837   8.091  0.1337  0.0923  0.0314
  246loPI   C4B 3936  16.013   8.897   7.677  0.0934  0.0607 -0.1412
  247loPI    C1 3937   4.133   7.377  10.639 -0.2039  0.0457 -0.0933
  247loPI    C2 3938   3.866   7.602  10.835 -0.1050  0.1074 -0.0283
  247loPI    C3 3939   3.990   7.255  10.992 -0.1094  0.1030 -0.0347
  247loPI   PO4 3940   3.958   7.360  10.402 -0.3987  0.2371  0.1940
  247loPI   GL1 3941   3.912   7.463   9.888 -0.2290  0.5209  0.1260
  247loPI   GL2 3942   3.686   7.697   9.876  0.2066 -0.3487  0.1335
  247loPI   C1A 3943   4.011   7.275   9.490 -0.1376 -0.1656  0.1960
  247loPI   C2A 3944   4.022   6.932   9.118  0.1736 -0.1392 -0.0398
  247loPI   C3A 3945   3.992   6.754   8.705 -0.0872  0.1366 -0.1639
  247loPI   C4A 3946   3.911   6.601   8.415  0.1394  0.4154 -0.0465
  247loPI   C5A 3947   4.172   6.324   8.187  0.4880 -0.2106 -0.0917
  247loPI   C6A 3948   4.694   6.183   8.324  0.1674  0.0977  0.1597
  247loPI   C1B 3949   3.570   7.652   9.448  0.3132  0.0393 -0.1887
  247loPI   C2B 3950   3.466   7.691   9.004  0.0204 -0.1088  0.0044
  247loPI   C3B 3951   3.467   7.605   8.616  0.0028 -0.2036  0.1044
  247loPI   C4B 3952   3.560   7.596   8.202  0.1252 -0.0223  0.3531
  248loPI    C1 3953  19.176  12.961  10.293  0.0925 -0.0985 -0.0861
  248loPI    C2 3954  18.826  12.771  10.322 -0.1181  0.2599 -0.2078
  248loPI    C3 3955  19.039  12.848  10.651 -0.0807 -0.0842 -0.1470
  248loPI   PO4 3956  19.200  13.106   9.972  0.0483  0.1227 -0.1947
  248loPI   GL1 3957  19.317  13.374   9.808  0.2231 -0.0515  0.0473
  248loPI   GL2 3958  19.083  13.619   9.595 -0.0060 -0.0802 -0.3548
  248loPI   C1A 3959  19.478  13.354   9.381  0.1062 -0.4052  0.0426
  248loPI   C2A 3960  19.612  13.158   8.926  0.0739  0.1939 -0.3464
  248loPI   C3A 3961  19.648  13.195   8.622 -0.2618  0.0285  0.0068
  248loPI   C4A 3962  19.805  13.140   8.225 -0.0986  0.2003 -0.2311
  248loPI   C5A 3963  19.941  13.189   7.841  0.0206  0.3772 -0.1516
  248loPI   C6A 3964  20.188  13.364   7.539  0.1625 -0.3973 -0.0941
  248loPI   C1B 3965  19.076  13.266   9.181 -0.3271  0.1389 -0.3605
  248loPI   C2B 3966  19.159  13.172   8.823 -0.2102 -0.1210  0.1746
  248loPI   C3B 3967  19.203  13.083   8.435  0.1571  0.2907 -0.4059
  248loPI   C4B 3968  19.361  13.157   8.099 -0.1949 -0.1217 -0.2149
  249loPI    C1 3969   5.001   5.533  10.343 -0.1078  0.0617  0.2978
  249loPI    C2 3970   5.001   5.242  10.617  0.0742 -0.0624  0.1684
  249loPI    C3 3971   5.278   5.530  10.631 -0.0392  0.0447  0.2318
  249loPI   PO4 3972   4.759   5.593  10.196 -0.2034  0.0081 -0.2635
  249loPI   GL1 3973   4.706   5.927   9.885  0.0040 -0.1311 -0.0731
  249loPI   GL2 3974   4.498   5.713   9.779 -0.2324 -0.4682  0.0965
  249loPI   C1A 3975   4.760   6.081   9.383 -0.2485 -0.1508 -0.0901
  249loPI   C2A 3976   4.896   6.051   8.870 -0.2500  0.0153 -0.2684
  249loPI   C3A 3977   5.235   6.056   8.487  0.1783 -0.2802 -0.0982
  249loPI   C4A 3978   5.372   5.971   8.092  0.2584 -0.3011 -0.1478
  249loPI   C5A 3979   5.455   5.632   7.829 -0.1432  0.1646 -0.0335
  249loPI   C6A 3980   5.583   5.177   7.844 -0.0641  0.0603 -0.3567
  249loPI   C1B 3981   3.977   5.659   9.715 -0.0954 -0.1273 -0.0001
  249loPI   C2B 3982   3.891   5.585   9.337 -0.1641 -0.0947  0.1389
  249loPI   C3B 3983   3.826   5.858   8.985 -0.0171  0.3972  0.0040
  249loPI   C4B 3984   3.868   5.972   8.552 -0.1803 -0.1210 -0.0398
  250loPI    C1 3985   3.045   3.087   9.956 -0.1946 -0.5891 -0.1167
  250loPI    C2 3986   3.175   2.984  10.321  0.0648 -0.0203 -0.0374
  250loPI    C3 3987   3.432   3.130  10.051 -0.1556 -0.2823 -0.3981
  250loPI   PO4 3988   2.727   2.931  10.040  0.0543 -0.0663  0.0359
  250loPI   GL1 3989   2.480   2.898   9.687  0.0139 -0.1132  0.1874
  250loPI   GL2 3990   2.885   2.759   9.610  0.1627 -0.0143  0.2379
  250loPI   C1A 3991   2.546   2.674   9.284  0.3351  0.2294 -0.2501
  250loPI   C2A 3992   2.300   2.489   8.963  0.0573 -0.2467 -0.1221
  250loPI   C3A 3993   2.259   2.450   8.488  0.0565 -0.0489  0.0413
  250loPI   C4A 3994   2.099   2.794   8.181  0.4216  0.1044 -0.0310
  250loPI   C5A 3995   1.879   2.892   7.935  0.0615 -0.0684  0.2568
  250loPI   C6A 3996   1.433   2.940   7.794 -0.1997 -0.2893  0.0609
  250loPI   C1B 3997   2.765   2.285   9.562 -0.3214  0.3296  0.5068
  250loPI   C2B 3998   2.392   2.116   9.358 -0.1322  0.0248  0.2436
  250loPI   C3B 3999   2.347   1.924   9.058  0.1714  0.2982 -0.3258
  250loPI   C4B 4000   2.460   2.048   8.645  0.1846  0.0479  0.0865
  251loPI    C1 4001   5.780  14.769  10.067  0.0206 -0.0447 -0.0717
  251loPI    C2 4002   5.556  15.087  10.159 -0.1098 -0.2333  0.2832
  251loPI    C3 4003   5.952  15.100  10.212 -0.0911 -0.0670  0.1149
  251loPI   PO4 4004   5.756  14.660   9.842  0.3317  0.1099 -0.0739
  251loPI   GL1 4005   5.561  14.571   9.463  0.0268  0.2054  0.0960
  251loPI   GL2 4006   5.723  14.301   9.384  0.2058 -0.0240  0.0625
  251loPI   C1A 4007   5.301  14.726   9.142  0.1903 -0.2295  0.0362
  251loPI   C2A 4008   5.251  14.624   8.766  0.4377 -0.2316 -0.1946
  251loPI   C3A 4009   5.315  14.569   8.410  0.0806 -0.3091 -0.1118
  251loPI   C4A 4010   5.254  14.502   8.028 -0.0078  0.1920 -0.3216
  251loPI   C5A 4011   5.092  14.198   7.755  0.0715  0.4032  0.3496
  251loPI   C6A 4012   4.840  13.795   7.660  0.2369 -0.0333 -0.5727
  251loPI   C1B 4013   5.716  14.430   8.924  0.0153  0.1535  0.1185
  251loPI   C2B 4014   5.790  14.478   8.551 -0.0018  0.1895  0.1629
  251loPI   C3B 4015   5.832  14.587   8.094  0.0144  0.0201  0.1472
  251loPI   C4B 4016   5.663  14.427   7.659 -0.1250 -0.4782 -0.1803
  252loPI    C1 4017   4.460   8.881  10.501 -0.0241  0.1486  0.1728
  252loPI    C2 4018   4.407   9.273  10.446  0.0075  0.1461  0.1255
  252loPI    C3 4019   4.615   9.142  10.762 -0.0734  0.1644  0.1865
  252loPI   PO4 4020   4.470   8.819  10.232 -0.2712 -0.2860 -0.2745
  252loPI   GL1 4021   4.600   8.803   9.774  0.0442 -0.1037  0.1014
  252loPI   GL2 4022   4.336   8.708   9.784  0.0379  0.1133  0.0542
  252loPI   C1A 4023   4.522   8.721   9.267  0.2395 -0.0995  0.2540
  252loPI   C2A 4024   4.425   8.373   9.025 -0.1495 -0.1280  0.0576
  252loPI   C3A 4025   4.514   8.015   8.740 -0.0950 -0.2252  0.0562
  252loPI   C4A 4026   4.265   7.863   8.431 -0.2576 -0.2421  0.1697
  252loPI   C5A 4027   4.020   7.536   8.479  0.1552 -0.2426 -0.2822
  252loPI   C6A 4028   3.758   7.223   8.625 -0.0081  0.2585  0.1914
  252loPI   C1B 4029   4.190   9.035   9.553 -0.3006 -0.0597 -0.1494
  252loPI   C2B 4030   4.182   9.006   9.077  0.0419  0.3411 -0.1594
  252loPI   C3B 4031   3.970   8.990   8.591 -0.0564 -0.3342  0.0535
  252loPI   C4B 4032   4.004   8.833   8.042 -0.1924  0.1045 -0.0920
  253loPI    C1 4033  13.486   1.844   9.882  0.0599  0.0769  0.1994
  253loPI    C2 4034  13.545   1.456   9.963  0.0946 -0.0276 -0.2941
  253loPI    C3 4035  13.854   1.710   9.963  0.0996 -0.0326 -0.1471
  253loPI   PO4 4036  13.401   1.865   9.633 -0.1373  0.2632 -0.0670
  253loPI   GL1 4037  13.410   1.984   9.283 -0.0506 -0.1008  0.4156
  253loPI   GL2 4038  13.299   1.577   9.221  0.0619 -0.1417  0.3287
  253loPI   C1A 4039  13.245   2.256   8.846 -0.0123  0.0075  0.0835
  253loPI   C2A 4040  13.092   2.402   8.365 -0.0095  0.0873 -0.2864
  253loPI   C3A 4041  12.575   2.330   8.425 -0.3489 -0.0058  0.2312
  253loPI   C4A 4042  12.329   1.988   8.332 -0.2343 -0.3124  0.0548
  253loPI   C5A 4043  12.198   1.896   7.883 -0.1017  0.1587 -0.3813
  253loPI   C6A 4044  12.149   1.988   7.480  0.0793  0.0015 -0.0643
  253loPI   C1B 4045  13.447   1.736   8.789 -0.1809  0.0659 -0.0969
  253loPI   C2B 4046  13.347   1.887   8.414  0.2774 -0.1132 -0.1369
  253loPI   C3B 4047  13.308   2.107   8.080  0.0593 -0.0140  0.1161
  253loPI   C4B 4048  13.436   2.467   7.687  0.2201 -0.6707 -0.0781
  254loPI    C1 4049  16.299  10.875   9.861 -0.1132  0.1313  0.0156
  254loPI    C2 4050  16.276  10.884  10.261 -0.0974 -0.1156  0.0240
  254loPI    C3 4051  16.592  11.043  10.075  0.0721 -0.3226  0.1309
  254loPI   PO4 4052  16.109  11.008   9.715 -0.0994 -0.0389  0.1758
  254loPI   GL1 4053  16.324  11.004   9.276 -0.1715 -0.1209  0.1364
  254loPI   GL2 4054  16.677  11.060   9.067  0.0769  0.0333  0.0734
  254loPI   C1A 4055  16.342  11.004   8.780  0.0104  0.1165  0.2086
  254loPI   C2A 4056  16.382  11.011   8.390 -0.3137  0.1351  0.0092
  254loPI   C3A 4057  16.121  11.053   8.063 -0.0114  0.1874  0.1018
  254loPI   C4A 4058  16.114  11.313   7.678  0.0800 -0.3471 -0.0788
  254loPI   C5A 4059  16.449  11.471   7.462  0.3470  0.0459 -0.0926
  254loPI   C6A 4060  16.564  11.534   7.052 -0.0935  0.1566 -0.4845
  254loPI   C1B 4061  16.818  11.181   8.690  0.3001 -0.0495 -0.1417
  254loPI   C2B 4062  16.938  11.321   8.276 -0.1541 -0.0520 -0.3466
  254loPI   C3B 4063  16.939  11.758   8.086 -0.0233 -0.0857  0.2745
  254loPI   C4B 4064  16.726  11.936   7.723 -0.0983 -0.0621  0.0346
  255loPI    C1 4065   8.000   5.419   9.845  0.3189  0.0320 -0.1916
  255loPI    C2 4066   7.894   5.036   9.798  0.1619  0.0541 -0.0261
  255loPI    C3 4067   8.108   5.147  10.117 -0.0021  0.1441  0.0540
  255loPI   PO4 4068   8.144   5.526   9.700  0.1641  0.0019 -0.2557
  255loPI   GL1 4069   8.243   5.382   9.368 -0.1186  0.2299  0.0361
  255loPI   GL2 4070   8.030   5.096   9.338  0.3996  0.1927 -0.1436
  255loPI   C1A 4071   8.098   5.633   9.015 -0.0115 -0.1768 -0.0124
  255loPI   C2A 4072   8.443   5.531   8.686  0.2434 -0.0845 -0.1593
  255loPI   C3A 4073   8.533   5.831   8.352  0.2730  0.1307 -0.3139
  255loPI   C4A 4074   8.696   6.006   7.987  0.1315  0.2106  0.1203
  255loPI   C5A 4075   8.807   5.979   7.648 -0.0753  0.0639  0.0556
  255loPI   C6A 4076   9.212   6.043   7.472  0.0152 -0.0517 -0.0259
  255loPI   C1B 4077   8.111   5.160   8.906  0.1043 -0.0272 -0.2217
  255loPI   C2B 4078   7.917   5.268   8.547  0.1037  0.1585 -0.0347
  255loPI   C3B 4079   8.159   5.439   8.141  0.2007 -0.1159 -0.1994
  255loPI   C4B 4080   7.981   5.594   7.700  0.1559  0.2480 -0.1150
  256loPI    C1 4081   0.467   9.778  10.390 -0.0873  0.0095 -0.0616
  256loPI    C2 4082   0.666   9.634  10.706 -0.1801 -0.1851 -0.0897
  256loPI    C3 4083   0.322   9.832  10.760 -0.1355 -0.1147 -0.0617
  256loPI   PO4 4084   0.537   9.626  10.184 -0.1673 -0.1250 -0.0761
  256loPI   GL1 4085   0.737   9.734   9.766 -0.2363  0.2103 -0.2777
  256loPI   GL2 4086   1.038   9.639   9.904 -0.0242 -0.2607  0.1697
  256loPI   C1A 4087   0.916   9.724   9.299  0.1537  0.3292  0.4108
  256loPI   C2A 4088   0.942   9.907   8.929 -0.1914  0.2916 -0.2878
  256loPI   C3A 4089   0.874   9.772   8.459  0.4224  0.0249 -0.3602
  256loPI   C4A 4090   0.841   9.628   8.088 -0.0830  0.2870 -0.1387
  256loPI   C5A 4091   0.717   9.202   7.913 -0.5222 -0.3440  0.1337
  256loPI   C6A 4092   0.531   9.011   7.666  0.2145  0.0988  0.3322
  256loPI   C1B 4093   1.367   9.692   9.472  0.0999 -0.0600 -0.0834
  256loPI   C2B 4094   1.396   9.815   9.069 -0.1918  0.0079 -0.1893
  256loPI   C3B 4095   1.341  10.037   8.605 -0.0040 -0.0647 -0.3787
  256loPI   C4B 4096   1.301   9.899   8.131  0.3671  0.2990 -0.1018
  257loPI    C1 4097  16.708   7.619   9.577 -0.0951  0.2123  0.0360
  257loPI    C2 4098  16.654   7.309   9.824 -0.1883  0.1992 -0.0002
  257loPI    C3 4099  16.771   7.663   9.969 -0.1436  0.1644  0.0491
  257loPI   PO4 4100  16.835   7.555   9.369  0.0284  0.0534 -0.3101
  257loPI   GL1 4101  17.099   7.636   9.073  0.3499 -0.3417  0.0875
  257loPI   GL2 4102  17.173   7.312   9.008 -0.3717  0.1269  0.2919
  257loPI   C1A 4103  16.895   7.638   8.719  0.0515  0.3374 -0.1559
  257loPI   C2A 4104  16.777   7.435   8.273  0.1022 -0.0890 -0.1727
  257loPI   C3A 4105  16.580   7.703   7.912  0.0748 -0.0629 -0.3914
  257loPI   C4A 4106  16.309   7.636   7.613  0.0133 -0.0537 -0.2525
  257loPI   C5A 4107  16.030   7.328   7.312  0.0433  0.2754  0.1868
  257loPI   C6A 4108  15.773   7.406   7.012  0.0754 -0.0059  0.2770
  257loPI   C1B 4109  17.110   7.244   8.550 -0.1248  0.1365 -0.1625
  257loPI   C2B 4110  17.166   7.148   8.065  0.0237 -0.0289 -0.1028
  257loPI   C3B 4111  17.143   7.031   7.667  0.0918  0.1282  0.0086
  257loPI   C4B 4112  17.084   7.130   7.189 -0.0353 -0.0450 -0.1672
  258loPI    C1 4113  17.274  14.458   9.145  0.2398  0.0498  0.0161
  258loPI    C2 4114  17.345  14.129   9.362 -0.1660 -0.0075  0.0700
  258loPI    C3 4115  17.293  14.100   8.967  0.0257  0.0237  0.0419
  258loPI   PO4 4116  16.960  14.566   9.216  0.0543 -0.2705  0.0071
  258loPI   GL1 4117  16.587  14.394   9.020  0.2819  0.1298  0.0855
  258loPI   GL2 4118  16.697  14.174   8.864 -0.0016 -0.1441  0.0169
  258loPI   C1A 4119  16.572  14.495   8.524 -0.0907 -0.3438 -0.0042
  258loPI   C2A 4120  16.786  14.404   8.089 -0.0577  0.0854  0.0340
  258loPI   C3A 4121  16.733  14.160   7.789  0.1570  0.2457 -0.1796
  258loPI   C4A 4122  16.711  14.101   7.340  0.3058 -0.2806  0.0227
  258loPI   C5A 4123  16.893  14.283   7.029  0.2456  0.1036  0.0498
  258loPI   C6A 4124  17.098  14.648   6.733 -0.0854 -0.1392 -0.0229
  258loPI   C1B 4125  16.745  13.956   8.571 -0.0728  0.1843  0.0246
  258loPI   C2B 4126  17.151  14.037   8.184 -0.0811 -0.0332  0.5441
  258loPI   C3B 4127  17.535  13.816   8.048  0.1126 -0.0237  0.0399
  258loPI   C4B 4128  17.928  13.826   8.134  0.3240  0.1109 -0.1004
  259loPI    C1 4129   7.777  12.909  10.195  0.1464  0.2368 -0.0384
  259loPI    C2 4130   7.380  12.956  10.178  0.1397  0.2257  0.0763
  259loPI    C3 4131   7.536  12.653  10.388  0.2077  0.2087  0.0015
  259loPI   PO4 4132   7.851  12.920   9.912  0.3359  0.0319 -0.0564
  259loPI   GL1 4133   7.687  12.787   9.475 -0.1362 -0.0500 -0.0921
  259loPI   GL2 4134   7.963  12.593   9.372 -0.0030  0.1906 -0.2516
  259loPI   C1A 4135   7.756  12.832   8.969 -0.1697 -0.2020 -0.2327
  259loPI   C2A 4136   7.655  12.799   8.509 -0.1102 -0.3074  0.0365
  259loPI   C3A 4137   7.606  12.949   8.213  0.0180  0.1717  0.2025
  259loPI   C4A 4138   7.326  12.578   7.969  0.1580 -0.2537  0.0900
  259loPI   C5A 4139   6.898  12.554   7.790 -0.2026  0.1070  0.2094
  259loPI   C6A 4140   6.591  12.722   7.553  0.2683  0.1008  0.0908
  259loPI   C1B 4141   7.725  12.185   9.330 -0.0086 -0.0303 -0.1857
  259loPI   C2B 4142   7.268  12.071   9.429  0.0803  0.0775  0.3338
  259loPI   C3B 4143   6.798  12.242   9.311 -0.0775  0.2031 -0.0118
  259loPI   C4B 4144   6.414  12.328   9.070  0.3808 -0.3284  0.2851
  260loPI    C1 4145  11.328   9.620   9.424 -0.2144  0.0113 -0.0312
  260loPI    C2 4146  11.636   9.580   9.675 -0.1795 -0.1687 -0.1011
  260loPI    C3 4147  11.263   9.528   9.808 -0.1944  0.2308  0.0261
  260loPI   PO4 4148  11.323   9.463   9.265  0.0530 -0.2074  0.1931
  260loPI   GL1 4149  11.179   9.368   8.918  0.1680 -0.0285 -0.2826
  260loPI   GL2 4150  11.591   9.432   8.865 -0.0884 -0.0130  0.0195
  260loPI   C1A 4151  11.076   9.359   8.482 -0.2095 -0.1956  0.1755
  260loPI   C2A 4152  10.870   9.329   8.153  0.3589  0.0165 -0.1535
  260loPI   C3A 4153  10.520   9.047   8.144 -0.3149 -0.1377  0.4426
  260loPI   C4A 4154  10.469   9.024   7.669 -0.2301  0.2469 -0.0561
  260loPI   C5A 4155  10.545   8.738   7.263 -0.0527 -0.0726  0.2516
  260loPI   C6A 4156  10.395   8.771   6.807  0.0377  0.1029 -0.1909
  260loPI   C1B 4157  11.593   9.565   8.451  0.0498 -0.1774 -0.0056
  260loPI   C2B 4158  11.742   9.740   8.045  0.2414  0.1257 -0.1312
  260loPI   C3B 4159  11.882   9.767   7.636 -0.0314  0.1455  0.0324
  260loPI   C4B 4160  12.133  10.013   7.336 -0.0073  0.3028  0.1822
  261loPI    C1 4161  14.497  11.477   9.116  0.1280  0.1090  0.0257
  261loPI    C2 4162  14.430  11.677   9.457 -0.1412 -0.1153  0.1078
  261loPI    C3 4163  14.125  11.505   9.262  0.0194 -0.0406 -0.2162
  261loPI   PO4 4164  14.665  11.315   9.090 -0.1358  0.2265  0.3415
  261loPI   GL1 4165  14.768  11.076   8.704  0.0497  0.0272  0.1165
  261loPI   GL2 4166  14.861  10.808   8.601  0.0307 -0.4026  0.2032
  261loPI   C1A 4167  14.910  11.263   8.312 -0.2053 -0.2503  0.3502
  261loPI   C2A 4168  15.048  11.438   7.845  0.4448  0.1506 -0.1256
  261loPI   C3A 4169  15.126  11.277   7.518  0.1854  0.0281 -0.3609
  261loPI   C4A 4170  15.414  11.013   7.230 -0.0373  0.0009 -0.1049
  261loPI   C5A 4171  15.763  10.921   6.905  0.2522  0.0755 -0.1197
  261loPI   C6A 4172  15.806  11.195   6.446 -0.0600 -0.4030  0.1861
  261loPI   C1B 4173  14.603  10.742   8.152 -0.0019 -0.1872  0.0050
  261loPI   C2B 4174  14.433  10.677   7.724 -0.0748 -0.1780 -0.1616
  261loPI   C3B 4175  14.527  10.594   7.361  0.1115 -0.0722  0.1360
  261loPI   C4B 4176  14.138  10.459   7.001  0.0763  0.1147  0.1892
  262loPI    C1 4177  11.248   0.620   9.317  0.2157 -0.0345 -0.0092
  262loPI    C2 4178  11.341   0.966   9.495  0.0330  0.1266 -0.2206
  262loPI    C3 4179  11.087   0.712   9.671  0.2832  0.0278  0.0055
  262loPI   PO4 4180  11.159   0.602   9.035  0.4142  0.0301 -0.1115
  262loPI   GL1 4181  11.229   0.433   8.734  0.1529 -0.1054 -0.1256
  262loPI   GL2 4182  11.525   0.345   8.747  0.1189 -0.0839  0.2900
  262loPI   C1A 4183  11.085   0.483   8.276  0.2419 -0.2126  0.2626
  262loPI   C2A 4184  11.137   0.431   7.766 -0.1356  0.2094 -0.2398
  262loPI   C3A 4185  11.060   0.415   7.355 -0.0170  0.0604 -0.0379
  262loPI   C4A 4186  11.110   0.517   7.006  0.0005  0.2460  0.1582
  262loPI   C5A 4187  11.603   0.316   6.821  0.0881 -0.3500  0.0042
  262loPI   C6A 4188  12.016   0.137   7.018 -0.2601 -0.2808 -0.0305
  262loPI   C1B 4189  11.482   0.161   8.412 -0.1639 -0.0601  0.4401
  262loPI   C2B 4190  11.568   0.315   8.137 -0.1709  0.0999 -0.1182
  262loPI   C3B 4191  11.657   0.177   7.752 -0.0471  0.3167  0.0583
  262loPI   C4B 4192  11.513   0.242   7.306  0.3207 -0.0953  0.0421
  263loPI    C1 4193  11.110  13.354  10.207 -0.1883  0.2676 -0.0041
  263loPI    C2 4194  10.750  13.457  10.347 -0.1000  0.4183  0.1159
  263loPI    C3 4195  11.076  13.512  10.573 -0.0412 -0.0823  0.1656
  263loPI   PO4 4196  11.059  13.490   9.934 -0.0990  0.1761  0.1212
  263loPI   GL1 4197  11.188  13.342   9.607  0.0696  0.0623 -0.2474
  263loPI   GL2 4198  10.896  13.215   9.494 -0.0128 -0.1436  0.1219
  263loPI   C1A 4199  11.307  13.134   9.114  0.1443 -0.0026 -0.0294
  263loPI   C2A 4200  11.454  13.327   8.716 -0.5290 -0.3407 -0.3296
  263loPI   C3A 4201  11.541  13.433   8.287  0.0287  0.1015  0.0164
  263loPI   C4A 4202  11.439  13.572   7.903 -0.1463  0.0231  0.0351
  263loPI   C5A 4203  11.609  13.760   7.373  0.0982 -0.1946  0.1141
  263loPI   C6A 4204  12.047  13.730   7.265 -0.0910  0.1193  0.1302
  263loPI   C1B 4205  10.887  12.947   9.049  0.0348 -0.4021  0.3500
  263loPI   C2B 4206  10.778  12.631   8.639 -0.0305  0.0260  0.1679
  263loPI   C3B 4207  11.043  12.290   8.409 -0.3429  0.0167 -0.0028
  263loPI   C4B 4208  11.039  12.340   8.019 -0.2405 -0.3986  0.3700
  264loPI    C1 4209  12.014  10.992   9.343  0.0498  0.3676  0.0339
  264loPI    C2 4210  12.121  11.088   9.717 -0.0860  0.3448  0.0795
  264loPI    C3 4211  11.839  10.811   9.655  0.1113  0.1686 -0.0457
  264loPI   PO4 4212  12.148  11.243   9.234 -0.1972 -0.0960  0.0170
  264loPI   GL1 4213  12.500  11.427   9.003 -0.3533 -0.3232 -0.3094
  264loPI   GL2 4214  12.328  11.712   9.114 -0.2100 -0.1182 -0.1116
  264loPI   C1A 4215  12.389  11.519   8.522 -0.0594 -0.0273  0.1247
  264loPI   C2A 4216  12.398  11.602   8.038  0.1811 -0.2595  0.0633
  264loPI   C3A 4217  12.490  11.690   7.589 -0.1561 -0.0140 -0.2117
  264loPI   C4A 4218  12.234  11.818   7.192  0.1944  0.1258  0.2205
  264loPI   C5A 4219  12.019  12.109   6.996  0.2485 -0.2356 -0.0951
  264loPI   C6A 4220  11.808  12.334   6.885  0.0323 -0.0710 -0.2410
  264loPI   C1B 4221  12.679  11.854   8.787 -0.0477 -0.0652 -0.0650
  264loPI   C2B 4222  12.733  11.989   8.346 -0.1935  0.0947  0.2394
  264loPI   C3B 4223  12.690  12.092   7.860  0.0771 -0.4213 -0.3019
  264loPI   C4B 4224  12.765  12.305   7.520 -0.1351 -0.3858 -0.0516
  265loPI    C1 4225  15.102   9.733   9.565  0.1684  0.0729 -0.2709
  265loPI    C2 4226  15.090  10.097   9.730 -0.2970 -0.0678  0.0278
  265loPI    C3 4227  15.396   9.851   9.809  0.0310  0.2574 -0.1920
  265loPI   PO4 4228  14.996   9.704   9.291 -0.0540 -0.0628 -0.1121
  265loPI   GL1 4229  15.270   9.718   8.904  0.0695  0.1027 -0.3365
  265loPI   GL2 4230  15.328   9.427   9.032 -0.2191 -0.1849 -0.1673
  265loPI   C1A 4231  15.351   9.791   8.484  0.0504  0.1713  0.0179
  265loPI   C2A 4232  15.577   9.695   8.258 -0.4865  0.0555  0.0913
  265loPI   C3A 4233  15.997   9.804   7.964 -0.0183 -0.0373 -0.3792
  265loPI   C4A 4234  15.986   9.989   7.682  0.0248  0.1916  0.0607
  265loPI   C5A 4235  15.762   9.921   7.336  0.0990 -0.0811 -0.2381
  265loPI   C6A 4236  15.515   9.522   7.244  0.0172 -0.2037  0.1977
  265loPI   C1B 4237  15.374   9.304   8.615  0.0803 -0.1195 -0.0758
  265loPI   C2B 4238  15.443   9.226   8.163  0.0580 -0.2334 -0.0886
  265loPI   C3B 4239  15.511   9.111   7.700 -0.1335  0.0885 -0.2505
  265loPI   C4B 4240  15.558   9.013   7.306 -0.1106 -0.0231 -0.1128
  266loPI    C1 4241   1.416  18.663  10.030  0.0803 -0.0076  0.0146
  266loPI    C2 4242   1.478  18.442   9.702 -0.0426  0.1593 -0.1228
  266loPI    C3 4243   1.568  18.294  10.063  0.1193 -0.0152 -0.2330
  266loPI   PO4 4244   1.506  18.922   9.881  0.2724  0.1152  0.0435
  266loPI   GL1 4245   1.622  19.198   9.491 -0.1095 -0.3655 -0.1341
  266loPI   GL2 4246   1.956  18.999   9.460  0.1051  0.0922 -0.2484
  266loPI   C1A 4247   1.640  19.151   9.083  0.2281 -0.2089  0.1044
  266loPI   C2A 4248   1.514  19.027   8.599 -0.1969 -0.4276  0.2544
  266loPI   C3A 4249   1.301  18.990   8.218  0.1695 -0.2859 -0.1310
  266loPI   C4A 4250   1.316  18.949   7.790  0.1849  0.0943  0.1842
  266loPI   C5A 4251   1.358  19.050   7.422  0.3550  0.2702 -0.1504
  266loPI   C6A 4252   1.382  19.126   7.088 -0.1189 -0.0045  0.2286
  266loPI   C1B 4253   2.257  18.713   9.081 -0.0899  0.0003 -0.1935
  266loPI   C2B 4254   2.099  18.488   8.690 -0.4050 -0.0329 -0.3180
  266loPI   C3B 4255   2.149  18.568   8.287  0.0807  0.1574  0.0075
  266loPI   C4B 4256   2.194  18.669   7.936 -0.1256  0.0457  0.0064
  267loPI    C1 4257   3.096  16.623   9.732 -0.2985 -0.0028 -0.2178
  267loPI    C2 4258   3.235  16.548   9.364  0.3342  0.1691 -0.0267
  267loPI    C3 4259   3.191  16.249   9.627  0.0758  0.0760 -0.1722
  267loPI   PO4 4260   2.850  16.760   9.622 -0.1744 -0.2308  0.0198
  267loPI   GL1 4261   2.642  16.846   9.330 -0.1124  0.2627  0.1295
  267loPI   GL2 4262   2.720  16.664   9.142  0.0245  0.0298  0.1022
  267loPI   C1A 4263   2.653  17.144   8.902 -0.0419 -0.0300 -0.2624
  267loPI   C2A 4264   2.555  17.159   8.495 -0.2366 -0.1674 -0.3116
  267loPI   C3A 4265   2.460  17.125   8.072 -0.2811  0.1125 -0.0755
  267loPI   C4A 4266   2.266  17.250   7.654  0.0215  0.0410  0.0326
  267loPI   C5A 4267   1.887  17.277   7.377  0.0073  0.0599 -0.1608
  267loPI   C6A 4268   1.517  17.535   7.393 -0.0487  0.0437  0.0111
  267loPI   C1B 4269   3.133  16.861   8.968 -0.0183  0.1157  0.0266
  267loPI   C2B 4270   3.137  17.061   8.471  0.0516  0.2304 -0.3130
  267loPI   C3B 4271   2.955  17.192   8.178  0.0041  0.1373  0.3509
  267loPI   C4B 4272   2.876  17.110   7.749 -0.0254  0.4746  0.0704
  268loPI    C1 4273   5.077   2.684  10.236 -0.0465 -0.0864 -0.0477
  268loPI    C2 4274   5.179   2.460   9.920  0.1632 -0.1306  0.0494
  268loPI    C3 4275   4.816   2.422  10.084  0.1129 -0.2273 -0.0827
  268loPI   PO4 4276   5.158   2.904  10.136  0.1101 -0.0814 -0.0179
  268loPI   GL1 4277   5.492   3.048   9.885 -0.1223  0.4139  0.0810
  268loPI   GL2 4278   5.533   3.270   9.606 -0.0108 -0.1996  0.0249
  268loPI   C1A 4279   5.344   2.844   9.455 -0.1942 -0.2409  0.0801
  268loPI   C2A 4280   5.149   2.730   9.014 -0.0865 -0.0049 -0.3285
  268loPI   C3A 4281   4.913   2.589   8.640 -0.0063 -0.0477 -0.3134
  268loPI   C4A 4282   4.917   2.611   8.253 -0.0821  0.1420 -0.0443
  268loPI   C5A 4283   5.015   2.526   7.870 -0.0997  0.4383 -0.0217
  268loPI   C6A 4284   5.232   2.215   7.575 -0.0510  0.1691 -0.0676
  268loPI   C1B 4285   5.500   3.194   9.120  0.3678 -0.0330 -0.2547
  268loPI   C2B 4286   5.227   3.151   8.683  0.2071  0.0603  0.0562
  268loPI   C3B 4287   4.956   3.080   8.344  0.0937 -0.1087  0.2057
  268loPI   C4B 4288   4.762   3.017   7.891  0.4223  0.1856  0.0801
  269loPI    C1 4289  16.866   9.968   9.952 -0.2922 -0.2316  0.2116
  269loPI    C2 4290  16.756  10.105  10.311 -0.1060 -0.0967  0.2186
  269loPI    C3 4291  17.137  10.006  10.243 -0.1543 -0.1894  0.0788
  269loPI   PO4 4292  16.864  10.112   9.768 -0.0886  0.2133 -0.0875
  269loPI   GL1 4293  17.210  10.199   9.378  0.1639 -0.0181  0.1514
  269loPI   GL2 4294  16.919  10.170   9.292 -0.1365 -0.1068 -0.1021
  269loPI   C1A 4295  17.207  10.363   8.939  0.1060  0.0512 -0.3214
  269loPI   C2A 4296  17.393  10.457   8.504 -0.1447 -0.1240  0.0586
  269loPI   C3A 4297  17.670  10.588   8.131 -0.0777 -0.0926 -0.0580
  269loPI   C4A 4298  17.743  10.521   7.704  0.1911 -0.1956  0.0841
  269loPI   C5A 4299  17.748  10.595   7.241 -0.3234  0.6358 -0.0236
  269loPI   C6A 4300  17.634  10.611   6.833  0.1341  0.1318  0.2976
  269loPI   C1B 4301  16.813  10.090   8.881 -0.2149  0.2057 -0.1374
  269loPI   C2B 4302  16.742  10.146   8.410  0.1207  0.1730  0.1384
  269loPI   C3B 4303  16.440  10.167   8.096 -0.4296 -0.0790  0.1758
  269loPI   C4B 4304  16.432  10.175   7.635  0.1714  0.0091  0.1467
  270loPI    C1 4305  10.825   5.039   9.620  0.1708 -0.1314  0.1784
  270loPI    C2 4306  10.451   5.024   9.760  0.1210  0.1157  0.0771
  270loPI    C3 4307  10.732   4.786   9.916 -0.1350 -0.2653 -0.0271
  270loPI   PO4 4308  10.797   5.166   9.369 -0.2055 -0.0014 -0.2838
  270loPI   GL1 4309  10.471   5.196   9.152 -0.3485  0.1821 -0.0864
  270loPI   GL2 4310  10.301   5.104   9.327 -0.3743  0.1661  0.0650
  270loPI   C1A 4311  10.324   5.517   8.865  0.0441 -0.2808  0.1011
  270loPI   C2A 4312  10.316   5.559   8.421  0.0749  0.1027 -0.2141
  270loPI   C3A 4313  10.276   5.547   7.999  0.4637 -0.2845  0.4366
  270loPI   C4A 4314  10.373   5.534   7.538 -0.0118  0.0901  0.0678
  270loPI   C5A 4315  10.687   5.476   7.220  0.1938 -0.1403 -0.0427
  270loPI   C6A 4316  11.013   5.343   7.008  0.2253  0.3992 -0.0650
  270loPI   C1B 4317  10.283   4.860   8.918  0.0855 -0.0423  0.2247
  270loPI   C2B 4318  10.274   5.053   8.613  0.1647 -0.1712 -0.4332
  270loPI   C3B 4319  10.258   5.107   8.208  0.2410  0.0797 -0.2152
  270loPI   C4B 4320  10.514   5.170   7.827 -0.1008 -0.0228 -0.1992
  271loPI    C1 4321   9.984   9.362   9.884  0.0989  0.0999  0.1380
  271loPI    C2 4322  10.376   9.356   9.966  0.1447 -0.1676 -0.0815
  271loPI    C3 4323  10.109   9.398  10.262  0.3369  0.0254  0.0680
  271loPI   PO4 4324   9.990   9.273   9.566 -0.3008 -0.0817  0.3695
  271loPI   GL1 4325   9.962   9.142   9.155 -0.0767 -0.1130  0.1601
  271loPI   GL2 4326  10.240   9.127   8.993 -0.2772 -0.0431  0.1021
  271loPI   C1A 4327   9.731   9.243   8.779 -0.0360  0.0887 -0.0820
  271loPI   C2A 4328   9.526   9.326   8.384  0.1311  0.0001 -0.0845
  271loPI   C3A 4329   9.611   9.396   7.940 -0.0390 -0.2666  0.2462
  271loPI   C4A 4330   9.716   9.285   7.468 -0.2515 -0.0873  0.0572
  271loPI   C5A 4331  10.122   9.045   7.221 -0.2999 -0.2175  0.0620
  271loPI   C6A 4332   9.958   8.746   7.064 -0.0367  0.1385 -0.1199
  271loPI   C1B 4333  10.364   8.829   8.582 -0.3143  0.0537  0.1138
  271loPI   C2B 4334  10.199   8.668   8.322  0.1017  0.0123 -0.1224
  271loPI   C3B 4335   9.962   8.426   8.043  0.5875  0.1902 -0.0952
  271loPI   C4B 4336   9.589   8.284   7.953 -0.1475  0.1720  0.2641
  272loPI    C1 4337   9.212  16.917   9.692  0.0147  0.3480 -0.0386
  272loPI    C2 4338   8.927  17.170   9.812  0.0189  0.4273 -0.1934
  272loPI    C3 4339   9.293  17.192   9.970 -0.1043  0.2123  0.1325
  272loPI   PO4 4340   9.125  16.848   9.428  0.0117 -0.0089 -0.3378
  272loPI   GL1 4341   9.217  16.586   9.061  0.2576  0.2307  0.0565
  272loPI   GL2 4342   9.253  16.922   8.935 -0.2989 -0.1457 -0.1330
  272loPI   C1A 4343   8.954  16.482   8.736 -0.1151  0.0282 -0.2139
  272loPI   C2A 4344   8.772  16.438   8.314  0.0447 -0.2161 -0.2331
  272loPI   C3A 4345   8.602  16.243   7.973  0.0738 -0.1594  0.1314
  272loPI   C4A 4346   8.780  16.161   7.586 -0.3419  0.0820  0.3262
  272loPI   C5A 4347   9.171  15.991   7.560  0.1764  0.3599  0.0493
  272loPI   C6A 4348   9.518  16.116   7.259 -0.1326 -0.1204 -0.2261
  272loPI   C1B 4349   9.130  16.907   8.474  0.1772  0.3382  0.0284
  272loPI   C2B 4350   8.850  16.957   8.108  0.3215 -0.1097 -0.0504
  272loPI   C3B 4351   8.601  16.726   7.839  0.2266 -0.0240  0.3689
  272loPI   C4B 4352   8.353  16.693   7.415 -0.2102  0.1499 -0.0110
  273loPI    C1 4353  13.387  16.632   9.691  0.0190  0.1648  0.0449
  273loPI    C2 4354  13.167  16.410   9.941  0.1330 -0.0968 -0.0831
  273loPI    C3 4355  13.566  16.391   9.955  0.1412 -0.0458 -0.2255
  273loPI   PO4 4356  13.182  16.555   9.446  0.1983 -0.0418  0.0984
  273loPI   GL1 4357  13.011  16.264   9.183 -0.0116  0.3118 -0.1981
  273loPI   GL2 4358  13.284  16.104   9.128 -0.2431  0.4476 -0.0247
  273loPI   C1A 4359  13.014  16.370   8.766 -0.1957  0.4578  0.2842
  273loPI   C2A 4360  12.890  16.467   8.258 -0.1698  0.2990 -0.1396
  273loPI   C3A 4361  12.830  16.339   7.876 -0.1262  0.0352 -0.0505
  273loPI   C4A 4362  13.007  16.173   7.443 -0.2360  0.0317 -0.0579
  273loPI   C5A 4363  13.326  15.938   7.136  0.0067 -0.4141  0.0488
  273loPI   C6A 4364  13.719  15.892   6.877  0.3428  0.0723 -0.0717
  273loPI   C1B 4365  13.294  15.930   8.745 -0.1193 -0.4447  0.2126
  273loPI   C2B 4366  13.241  16.033   8.307  0.2333  0.7447  0.0444
  273loPI   C3B 4367  13.072  15.874   7.948  0.1973 -0.2844  0.0618
  273loPI   C4B 4368  13.009  15.678   7.426  0.2356 -0.0171 -0.0956
  274loPI    C1 4369   4.050   3.751  10.734  0.2564 -0.1541  0.2557
  274loPI    C2 4370   3.697   3.849  10.896  0.1428  0.1188 -0.1447
  274loPI    C3 4371   3.971   3.657  11.115 -0.2047  0.0133  0.2074
  274loPI   PO4 4372   3.923   3.608  10.503 -0.1751  0.0888  0.1333
  274loPI   GL1 4373   3.770   3.564  10.165 -0.2155  0.2666 -0.0940
  274loPI   GL2 4374   3.971   3.588  10.027 -0.2100  0.2839  0.0709
  274loPI   C1A 4375   3.667   3.877   9.764 -0.1929  0.1406  0.0942
  274loPI   C2A 4376   3.514   4.074   9.453 -0.0998 -0.2836  0.0983
  274loPI   C3A 4377   3.431   4.168   9.099  0.3209 -0.1741  0.2565
  274loPI   C4A 4378   3.245   4.234   8.679 -0.1377 -0.0216  0.0409
  274loPI   C5A 4379   3.212   4.115   8.208 -0.0972  0.0426  0.1875
  274loPI   C6A 4380   2.934   3.982   7.869 -0.3784 -0.0299  0.1959
  274loPI   C1B 4381   3.742   3.410   9.663 -0.2188  0.1624  0.0944
  274loPI   C2B 4382   3.830   3.329   9.253  0.1824 -0.0027 -0.1581
  274loPI   C3B 4383   3.755   3.249   8.751  0.1835 -0.4108 -0.0360
  274loPI   C4B 4384   3.645   3.383   8.339  0.0339 -0.0173 -0.1407
  275loPI    C1 4385   1.802  14.473   9.879 -0.2983  0.0753  0.0162
  275loPI    C2 4386   2.014  14.366  10.201  0.0035 -0.0710 -0.2252
  275loPI    C3 4387   1.620  14.427  10.232  0.0213 -0.1264  0.1599
  275loPI   PO4 4388   1.919  14.282   9.712 -0.2495  0.1193  0.4317
  275loPI   GL1 4389   2.178  14.188   9.380 -0.0202 -0.1379  0.2225
  275loPI   GL2 4390   2.519  14.242   9.290  0.1649  0.1725  0.3763
  275loPI   C1A 4391   2.088  14.089   9.017 -0.2529 -0.0140 -0.2447
  275loPI   C2A 4392   1.787  14.102   8.783  0.1168 -0.0226  0.2310
  275loPI   C3A 4393   1.667  14.029   8.369 -0.1393 -0.1900  0.0796
  275loPI   C4A 4394   1.881  13.784   8.089 -0.1080 -0.2444  0.4300
  275loPI   C5A 4395   1.937  13.649   7.696 -0.0294  0.2097  0.2418
  275loPI   C6A 4396   1.681  13.760   7.292 -0.0359  0.0957 -0.0433
  275loPI   C1B 4397   2.559  14.038   8.893 -0.0317  0.2364 -0.0543
  275loPI   C2B 4398   2.528  13.811   8.468  0.4696  0.0881  0.0477
  275loPI   C3B 4399   2.555  13.969   7.998  0.1395 -0.0521  0.0284
  275loPI   C4B 4400   2.619  14.044   7.534  0.0136 -0.2538 -0.4585
  276loPI    C1 4401  12.038  16.796   9.852  0.3895  0.0288  0.2722
  276loPI    C2 4402  12.175  17.045   9.571  0.1903 -0.1312  0.0287
  276loPI    C3 4403  12.158  17.164   9.952  0.0753  0.2359 -0.0874
  276loPI   PO4 4404  11.917  16.574   9.699 -0.0593 -0.2803  0.3333
  276loPI   GL1 4405  11.826  16.477   9.327 -0.0183 -0.2331 -0.2034
  276loPI   GL2 4406  11.974  16.741   9.131  0.1369 -0.4323 -0.1508
  276loPI   C1A 4407  12.044  16.320   8.949 -0.1171 -0.0780 -0.0741
  276loPI   C2A 4408  11.914  16.348   8.566  0.1645 -0.1090  0.2071
  276loPI   C3A 4409  11.791  16.394   8.125 -0.2704  0.0491  0.0452
  276loPI   C4A 4410  11.871  16.292   7.774  0.0983  0.0753  0.0222
  276loPI   C5A 4411  11.532  16.213   7.496  0.1912 -0.0107  0.2886
  276loPI   C6A 4412  11.659  16.006   7.019  0.1143 -0.0214 -0.1062
  276loPI   C1B 4413  12.074  16.880   8.640 -0.1229  0.2008  0.0119
  276loPI   C2B 4414  12.110  16.895   8.173  0.1768 -0.2382 -0.1261
  276loPI   C3B 4415  12.040  16.812   7.776 -0.1951 -0.2368 -0.2863
  276loPI   C4B 4416  11.957  16.579   7.385  0.0749  0.1079 -0.0897
  277loPI    C1 4417  13.709  17.698   9.149  0.0189 -0.2097 -0.0734
  277loPI    C2 4418  13.314  17.643   9.117  0.0218 -0.1533 -0.2117
  277loPI    C3 4419  13.562  17.329   9.099 -0.0040 -0.1673 -0.3286
  277loPI   PO4 4420  13.765  17.817   8.965  0.0040  0.1053  0.0595
  277loPI   GL1 4421  13.617  17.851   8.627 -0.3030  0.3273 -0.0329
  277loPI   GL2 4422  13.475  17.516   8.638 -0.1102 -0.1515 -0.0263
  277loPI   C1A 4423  13.712  17.964   8.176 -0.1316 -0.0917  0.0631
  277loPI   C2A 4424  13.746  18.091   7.788 -0.1503  0.1114 -0.0558
  277loPI   C3A 4425  13.793  18.120   7.321  0.2110 -0.1019 -0.1210
  277loPI   C4A 4426  13.967  18.104   6.875  0.1124 -0.0077  0.3433
  277loPI   C5A 4427  13.696  18.035   6.517 -0.4547  0.0832 -0.0396
  277loPI   C6A 4428  13.661  18.246   6.130  0.0524 -0.0121  0.0760
  277loPI   C1B 4429  13.494  17.372   8.194 -0.0429 -0.1313  0.1156
  277loPI   C2B 4430  13.372  17.280   7.826  0.2687  0.0944 -0.1869
  277loPI   C3B 4431  13.366  17.280   7.338  0.2374 -0.1484  0.1506
  277loPI   C4B 4432  13.266  16.911   6.960 -0.0833 -0.0820  0.1250
  278loPI    C1 4433  14.065   5.862   9.549  0.4580 -0.0558  0.1139
  278loPI    C2 4434  14.064   6.129   9.846  0.1586 -0.0113  0.0762
  278loPI    C3 4435  13.814   5.817   9.857  0.2783 -0.1125 -0.0387
  278loPI   PO4 4436  14.078   6.015   9.350 -0.0522  0.1513 -0.5187
  278loPI   GL1 4437  14.058   5.863   8.941 -0.0193  0.0506 -0.2916
  278loPI   GL2 4438  14.276   5.630   9.127  0.1412 -0.0974  0.3498
  278loPI   C1A 4439  13.828   5.661   8.594  0.1761 -0.0368  0.2233
  278loPI   C2A 4440  13.788   5.578   8.103 -0.1094 -0.0725  0.1246
  278loPI   C3A 4441  13.639   5.283   7.811  0.0148 -0.2424  0.1830
  278loPI   C4A 4442  13.610   5.088   7.374  0.0699 -0.1255 -0.2007
  278loPI   C5A 4443  13.344   4.920   7.027 -0.1180  0.0708 -0.1128
  278loPI   C6A 4444  13.178   4.552   6.868  0.0746  0.1506  0.1074
  278loPI   C1B 4445  14.302   5.558   8.669  0.0994 -0.2376 -0.0661
  278loPI   C2B 4446  14.335   5.608   8.233 -0.0268  0.0610  0.0491
  278loPI   C3B 4447  14.153   5.488   7.776 -0.3205  0.0377  0.0322
  278loPI   C4B 4448  14.255   5.080   7.600  0.2721  0.4194  0.0123
  279loPI    C1 4449  13.490  12.618   9.820 -0.2242 -0.1194 -0.0185
  279loPI    C2 4450  13.640  12.989   9.803  0.1022 -0.2219  0.4301
  279loPI    C3 4451  13.746  12.717   9.528 -0.2171  0.0356  0.0397
  279loPI   PO4 4452  13.187  12.640   9.722 -0.1329  0.2920 -0.0771
  279loPI   GL1 4453  13.163  12.707   9.380 -0.0783  0.0075 -0.1759
  279loPI   GL2 4454  13.376  12.469   9.312 -0.0002  0.4212  0.2242
  279loPI   C1A 4455  13.051  12.762   8.969  0.1158 -0.2208  0.1017
  279loPI   C2A 4456  12.936  12.386   8.621 -0.0449  0.0347 -0.0110
  279loPI   C3A 4457  13.162  12.235   8.296 -0.1369  0.2086 -0.0680
  279loPI   C4A 4458  13.266  12.169   7.856  0.3721 -0.2271  0.0752
  279loPI   C5A 4459  13.327  12.076   7.487 -0.2391 -0.0074  0.0232
  279loPI   C6A 4460  13.457  12.125   7.090 -0.1131 -0.1670  0.1548
  279loPI   C1B 4461  13.400  12.360   8.835  0.0621  0.0888 -0.1958
  279loPI   C2B 4462  13.635  12.330   8.493 -0.3676  0.1032 -0.1951
  279loPI   C3B 4463  13.719  12.392   8.104 -0.1962 -0.0906  0.0092
  279loPI   C4B 4464  13.990  12.493   7.762  0.1394  0.2202  0.3571
  280loPI    C1 4465   8.635   3.504   9.713 -0.1732 -0.2090  0.1234
  280loPI    C2 4466   8.558   3.133   9.585  0.1295 -0.3145  0.2378
  280loPI    C3 4467   8.761   3.190   9.925 -0.1656 -0.0400  0.3742
  280loPI   PO4 4468   8.707   3.623   9.590  0.0605  0.0104 -0.0241
  280loPI   GL1 4469   8.951   3.721   9.201  0.0018  0.0378 -0.4958
  280loPI   GL2 4470   8.738   3.363   9.132 -0.1817  0.2107 -0.0215
  280loPI   C1A 4471   8.904   3.971   8.803 -0.0456 -0.2530 -0.2690
  280loPI   C2A 4472   8.891   4.079   8.276  0.0909 -0.0371  0.0595
  280loPI   C3A 4473   8.942   4.228   7.902 -0.0637 -0.1295  0.1000
  280loPI   C4A 4474   8.584   4.262   7.572  0.0445  0.1678  0.0136
  280loPI   C5A 4475   8.365   4.103   7.272  0.2345 -0.3852  0.2426
  280loPI   C6A 4476   8.136   4.076   7.053 -0.0651  0.2239 -0.2863
  280loPI   C1B 4477   8.846   3.477   8.710  0.3200 -0.1766  0.4407
  280loPI   C2B 4478   8.614   3.701   8.320  0.1449 -0.3082  0.2140
  280loPI   C3B 4479   8.713   3.830   7.843  0.1304  0.0157 -0.1752
  280loPI   C4B 4480   9.025   3.748   7.563  0.1445  0.1117  0.1678
  281loPI    C1 4481   5.893  11.451  10.657  0.3581  0.0465  0.0137
  281loPI    C2 4482   5.714  11.730  10.881  0.3195 -0.0102  0.0541
  281loPI    C3 4483   5.663  11.343  10.966  0.1768 -0.0374 -0.1482
  281loPI   PO4 4484   5.837  11.580  10.384  0.0949 -0.0254  0.0344
  281loPI   GL1 4485   5.732  11.924  10.175 -0.2060  0.1104  0.0365
  281loPI   GL2 4486   5.431  11.965  10.169  0.2272 -0.0106 -0.0801
  281loPI   C1A 4487   5.680  12.113   9.752 -0.0547 -0.0075  0.0771
  281loPI   C2A 4488   5.365  12.370   9.501 -0.3084  0.0458  0.3706
  281loPI   C3A 4489   5.123  12.700   9.218  0.0505 -0.2505 -0.1161
  281loPI   C4A 4490   5.170  12.791   8.845  0.0861  0.2805 -0.4301
  281loPI   C5A 4491   5.439  12.870   8.529  0.1937  0.5626 -0.0951
  281loPI   C6A 4492   5.475  12.838   8.092  0.0752  0.0793  0.1786
  281loPI   C1B 4493   5.237  11.761   9.737 -0.0835  0.0281 -0.1176
  281loPI   C2B 4494   5.371  11.893   9.343 -0.0332 -0.1216  0.3025
  281loPI   C3B 4495   5.357  12.163   8.989  0.3751 -0.0989 -0.1986
  281loPI   C4B 4496   5.697  12.234   8.748  0.0390 -0.0090 -0.2113
  282loPI    C1 4497   1.943   0.009  10.017  0.1421  0.1671 -0.0052
  282loPI    C2 4498   2.128   0.335  10.157  0.1382  0.1630  0.0097
  282loPI    C3 4499   1.766   0.237  10.295  0.2229  0.0434  0.1493
  282loPI   PO4 4500   1.975   0.056   9.750  0.1420 -0.0099 -0.1352
  282loPI   GL1 4501   2.120   0.157   9.388 -0.2790  0.0296  0.0613
  282loPI   GL2 4502   1.895   0.368   9.304  0.1618 -0.1117  0.0842
  282loPI   C1A 4503   2.111  -0.100   8.979 -0.1535 -0.0055 -0.1646
  282loPI   C2A 4504   2.056  -0.392   8.614  0.1848  0.1889 -0.2690
  282loPI   C3A 4505   1.916  -0.299   8.251  0.1926  0.1255  0.2465
  282loPI   C4A 4506   1.887  -0.328   7.826  0.1686 -0.2214  0.1662
  282loPI   C5A 4507   2.016  -0.276   7.382  0.3340 -0.1797  0.0608
  282loPI   C6A 4508   2.234  -0.093   7.025 -0.0380 -0.2121  0.2531
  282loPI   C1B 4509   1.826   0.274   8.887  0.1657  0.0934  0.0787
  282loPI   C2B 4510   1.936   0.172   8.532 -0.0919  0.0594 -0.2643
  282loPI   C3B 4511   2.188   0.082   8.101  0.0625  0.1094 -0.0598
  282loPI   C4B 4512   2.109   0.151   7.708 -0.0662  0.1561  0.0741
  283loPI    C1 4513  13.625  17.226   9.730  0.0706  0.0019  0.3576
  283loPI    C2 4514  13.487  17.575   9.590 -0.1496 -0.1915  0.0830
  283loPI    C3 4515  13.381  17.450   9.955 -0.1806 -0.0362  0.1279
  283loPI   PO4 4516  13.673  17.149   9.512  0.3297  0.3186 -0.0988
  283loPI   GL1 4517  13.565  16.808   9.182 -0.0038 -0.0331 -0.1729
  283loPI   GL2 4518  13.534  16.506   9.125  0.0243  0.0891  0.2783
  283loPI   C1A 4519  13.367  16.890   8.812 -0.0937  0.0889  0.1497
  283loPI   C2A 4520  13.168  16.820   8.394 -0.0997 -0.3005  0.4221
  283loPI   C3A 4521  13.043  16.836   7.929  0.1282 -0.0138 -0.0035
  283loPI   C4A 4522  12.983  16.907   7.489 -0.0422 -0.2546 -0.2810
  283loPI   C5A 4523  12.859  17.155   7.153 -0.0129 -0.1521 -0.0946
  283loPI   C6A 4524  12.453  17.200   7.027  0.2623  0.1632  0.1633
  283loPI   C1B 4525  13.512  16.455   8.663 -0.3210  0.0890 -0.2292
  283loPI   C2B 4526  13.382  16.440   8.105  0.2869  0.1096  0.0008
  283loPI   C3B 4527  13.295  16.474   7.699  0.2443  0.0510 -0.0584
  283loPI   C4B 4528  13.290  16.538   7.305 -0.2697  0.1876  0.0149
  284loPI    C1 4529  14.127  12.129   9.520 -0.0496  0.0858 -0.2460
  284loPI    C2 4530  13.892  12.288   9.802 -0.2105  0.0446 -0.3557
  284loPI    C3 4531  14.181  12.031   9.904 -0.2275  0.0779 -0.2224
  284loPI   PO4 4532  14.113  12.397   9.345 -0.0821  0.1049  0.2994
  284loPI   GL1 4533  13.844  12.600   9.013  0.4864  0.1336 -0.2961
  284loPI   GL2 4534  13.961  12.857   8.723 -0.2539 -0.0367 -0.0508
  284loPI   C1A 4535  14.115  12.361   8.614  0.2932  0.0248 -0.3252
  284loPI   C2A 4536  14.271  12.349   8.135 -0.0429  0.1512 -0.0941
  284loPI   C3A 4537  14.312  12.153   7.762 -0.3220  0.0148  0.5820
  284loPI   C4A 4538  14.417  12.082   7.327 -0.0418 -0.0658 -0.1452
  284loPI   C5A 4539  14.592  11.706   7.180  0.1267 -0.2478 -0.0276
  284loPI   C6A 4540  14.866  11.376   7.089  0.1148  0.2328 -0.3984
  284loPI   C1B 4541  13.982  12.757   8.351 -0.1402 -0.0371 -0.0929
  284loPI   C2B 4542  13.741  12.914   7.945 -0.0027  0.0386 -0.0093
  284loPI   C3B 4543  13.842  12.914   7.540  0.0622 -0.1774 -0.0513
  284loPI   C4B 4544  13.686  13.110   7.196 -0.2441 -0.2934 -0.3331
  285loPI    C1 4545  15.985  14.732   9.457  0.1794 -0.0304  0.1263
  285loPI    C2 4546  15.726  14.444   9.557  0.0434  0.0052 -0.1155
  285loPI    C3 4547  15.873  14.688   9.838 -0.1212 -0.0679  0.0358
  285loPI   PO4 4548  15.994  14.728   9.081 -0.1483  0.2773 -0.1230
  285loPI   GL1 4549  16.183  14.635   8.743 -0.1195 -0.0746  0.3076
  285loPI   GL2 4550  16.348  14.887   8.766  0.1356  0.3073 -0.0123
  285loPI   C1A 4551  15.919  14.688   8.214  0.1918  0.2198  0.0074
  285loPI   C2A 4552  15.827  14.777   7.819 -0.2095 -0.2229 -0.3908
  285loPI   C3A 4553  15.839  14.775   7.397  0.0247 -0.2553  0.3121
  285loPI   C4A 4554  15.975  14.689   6.995  0.2479  0.3708 -0.0839
  285loPI   C5A 4555  16.100  14.382   6.655 -0.1871 -0.1919 -0.5438
  285loPI   C6A 4556  16.010  14.323   6.239  0.1024 -0.0229 -0.0144
  285loPI   C1B 4557  16.461  15.020   8.425  0.0179 -0.4142  0.1857
  285loPI   C2B 4558  16.492  14.853   7.927  0.0121 -0.3060  0.0995
  285loPI   C3B 4559  16.351  14.626   7.713 -0.1853  0.1208 -0.2281
  285loPI   C4B 4560  16.313  14.405   7.378  0.1100 -0.0476 -0.3343
  286loPI    C1 4561  11.585  11.932   9.470 -0.1705  0.2638 -0.1295
  286loPI    C2 4562  11.583  11.741   9.821 -0.0586  0.0621 -0.2369
  286loPI    C3 4563  11.560  12.140   9.811 -0.2849  0.0573 -0.0098
  286loPI   PO4 4564  11.805  11.938   9.298 -0.4031  0.1332  0.2220
  286loPI   GL1 4565  11.904  11.711   8.779  0.0593  0.0449  0.0261
  286loPI   GL2 4566  11.945  11.446   8.799  0.1637 -0.0520  0.0084
  286loPI   C1A 4567  12.104  11.936   8.392  0.0293 -0.2597  0.1563
  286loPI   C2A 4568  12.185  12.097   8.076  0.0391  0.1386 -0.3340
  286loPI   C3A 4569  12.130  12.154   7.654  0.1179  0.0734 -0.0916
  286loPI   C4A 4570  12.272  12.346   7.335  0.3970 -0.2293  0.1963
  286loPI   C5A 4571  12.285  12.599   6.943 -0.4848  0.2680 -0.2526
  286loPI   C6A 4572  12.215  12.362   6.584 -0.0433  0.1503  0.1310
  286loPI   C1B 4573  11.976  11.466   8.329  0.0183  0.1004 -0.0001
  286loPI   C2B 4574  11.867  11.539   7.965 -0.2459  0.2386  0.0824
  286loPI   C3B 4575  11.998  11.699   7.644  0.1281  0.0057  0.1908
  286loPI   C4B 4576  11.724  11.980   7.351 -0.3179  0.0965  0.0781
  287loPI    C1 4577  14.567   3.306   9.707 -0.0239 -0.1654 -0.1086
  287loPI    C2 4578  14.597   2.969   9.919 -0.0475 -0.2207 -0.1928
  287loPI    C3 4579  14.609   3.323  10.104  0.0447 -0.2660 -0.1114
  287loPI   PO4 4580  14.392   3.290   9.525 -0.0484 -0.0524 -0.4857
  287loPI   GL1 4581  14.333   3.310   9.162  0.1701 -0.1427  0.1362
  287loPI   GL2 4582  14.557   3.516   9.010 -0.0732  0.2838 -0.0327
  287loPI   C1A 4583  13.995   3.132   8.884  0.0391 -0.2937 -0.1070
  287loPI   C2A 4584  13.626   2.949   8.796  0.0429  0.1234 -0.0337
  287loPI   C3A 4585  13.244   2.824   8.500 -0.1602  0.0484  0.0297
  287loPI   C4A 4586  13.137   2.769   8.020  0.0867  0.0839  0.2313
  287loPI   C5A 4587  12.926   2.445   7.886 -0.4914 -0.3844  0.1821
  287loPI   C6A 4588  12.570   2.215   7.716 -0.0467  0.1089  0.0299
  287loPI   C1B 4589  14.522   3.305   8.695 -0.0138  0.1572 -0.1142
  287loPI   C2B 4590  14.621   3.286   8.225  0.2116 -0.2353 -0.0448
  287loPI   C3B 4591  14.636   3.322   7.792  0.2536 -0.0858  0.0715
  287loPI   C4B 4592  14.676   3.370   7.460  0.0098  0.0792  0.1049
  288loPI    C1 4593  16.403   3.003   9.707  0.1142 -0.2538  0.0368
  288loPI    C2 4594  16.061   3.009   9.915  0.2119 -0.0588  0.1956
  288loPI    C3 4595  16.410   3.066  10.102  0.2896  0.2745 -0.0427
  288loPI   PO4 4596  16.351   3.216   9.575  0.0054  0.4686 -0.1464
  288loPI   GL1 4597  16.323   3.374   9.214  0.1450  0.2066  0.3877
  288loPI   GL2 4598  16.044   3.497   8.993 -0.1908  0.1588  0.1563
  288loPI   C1A 4599  16.505   3.312   8.818  0.2548 -0.0932  0.2411
  288loPI   C2A 4600  16.543   3.289   8.385  0.0147 -0.0860 -0.0143
  288loPI   C3A 4601  16.599   3.392   7.896 -0.1534 -0.1818  0.2619
  288loPI   C4A 4602  16.616   3.374   7.499  0.2665 -0.1050 -0.0362
  288loPI   C5A 4603  16.838   3.125   7.214 -0.0486 -0.2431  0.0355
  288loPI   C6A 4604  16.992   2.928   6.908  0.1026 -0.2284 -0.1708
  288loPI   C1B 4605  16.095   3.673   8.586 -0.2068  0.4210  0.0952
  288loPI   C2B 4606  16.181   3.591   8.169  0.0787  0.3152  0.1865
  288loPI   C3B 4607  16.136   3.386   7.725 -0.0211  0.0277 -0.0797
  288loPI   C4B 4608  15.759   3.706   7.606 -0.0425 -0.2258  0.0070
  289loPI    C1 4609   2.599  10.107  10.542  0.0608 -0.0623 -0.2481
  289loPI    C2 4610   2.913   9.899  10.677  0.0070 -0.1650 -0.2804
  289loPI    C3 4611   2.778  10.214  10.883  0.0023 -0.2460 -0.1591
  289loPI   PO4 4612   2.589  10.240  10.307 -0.0923 -0.0296  0.3084
  289loPI   GL1 4613   2.822  10.300  10.021 -0.3824 -0.1904  0.3203
  289loPI   GL2 4614   2.771  10.440   9.677  0.2912 -0.2498 -0.2687
  289loPI   C1A 4615   2.971   9.987   9.660 -0.3033  0.0907 -0.2647
  289loPI   C2A 4616   2.925   9.817   9.311 -0.0715 -0.1552  0.3071
  289loPI   C3A 4617   2.892   9.643   8.921  0.1497  0.2198 -0.0596
  289loPI   C4A 4618   2.836   9.527   8.630  0.0491  0.1244  0.3325
  289loPI   C5A 4619   2.869   9.518   8.164 -0.1412 -0.0504 -0.4136
  289loPI   C6A 4620   3.073   9.435   7.767  0.3819  0.0766  0.1069
  289loPI   C1B 4621   2.949  10.338   9.318 -0.3694 -0.3201  0.0975
  289loPI   C2B 4622   2.935  10.271   8.906 -0.1784  0.3089 -0.1557
  289loPI   C3B 4623   3.192  10.037   8.789 -0.1676 -0.0409  0.1387
  289loPI   C4B 4624   3.485  10.150   8.471  0.3487  0.0487 -0.3101
  290loPI    C1 4625   5.793   2.136  10.123 -0.1214  0.1077  0.2258
  290loPI    C2 4626   5.709   1.777  10.279  0.1671 -0.2172 -0.3319
  290loPI    C3 4627   6.080   1.924  10.306  0.0644  0.0172 -0.1594
  290loPI   PO4 4628   5.580   2.119   9.901  0.2619 -0.1170  0.1138
  290loPI   GL1 4629   5.508   2.023   9.361  0.0426 -0.3047 -0.1010
  290loPI   GL2 4630   5.421   2.250   9.467  0.1251 -0.0701 -0.1053
  290loPI   C1A 4631   5.503   1.850   9.053  0.1843 -0.0456 -0.3614
  290loPI   C2A 4632   5.570   2.020   8.656 -0.0744 -0.1113 -0.1135
  290loPI   C3A 4633   5.609   1.989   8.280  0.0433 -0.2802 -0.1114
  290loPI   C4A 4634   5.607   1.951   7.862 -0.1872  0.1456 -0.0508
  290loPI   C5A 4635   5.451   1.651   7.424  0.0074 -0.1832 -0.1193
  290loPI   C6A 4636   5.157   1.313   7.234  0.4773 -0.2302 -0.2153
  290loPI   C1B 4637   5.531   2.457   9.152  0.0901 -0.2548 -0.1200
  290loPI   C2B 4638   5.503   2.561   8.698  0.2447  0.1822  0.1053
  290loPI   C3B 4639   5.418   2.843   8.307  0.1671  0.4028 -0.4551
  290loPI   C4B 4640   5.256   3.060   7.935  0.0189 -0.0202 -0.1144
  291loPI    C1 4641   6.335   7.918  10.100  0.0159  0.1405  0.0023
  291loPI    C2 4642   6.358   7.811   9.716  0.2033 -0.3459  0.1419
  291loPI    C3 4643   6.052   8.034   9.843  0.0627 -0.3020 -0.2591
  291loPI   PO4 4644   6.582   8.041  10.105  0.3169  0.3056  0.0507
  291loPI   GL1 4645   6.639   8.368   9.785 -0.0712  0.0278 -0.3588
  291loPI   GL2 4646   6.754   8.642   9.587 -0.0678  0.3957  0.3545
  291loPI   C1A 4647   6.465   8.188   9.467  0.1918  0.1454  0.1021
  291loPI   C2A 4648   6.339   8.105   9.123  0.2311  0.0228  0.3648
  291loPI   C3A 4649   6.435   8.286   8.733  0.1889  0.4087  0.0135
  291loPI   C4A 4650   6.289   8.335   8.304 -0.4320 -0.0338  0.0926
  291loPI   C5A 4651   6.193   8.141   8.002  0.0768  0.0697  0.0797
  291loPI   C6A 4652   6.018   8.009   7.616  0.1797  0.0698 -0.1371
  291loPI   C1B 4653   6.707   8.523   9.124  0.0974 -0.2875  0.2743
  291loPI   C2B 4654   6.751   8.673   8.736 -0.1419 -0.1089  0.0256
  291loPI   C3B 4655   6.733   8.613   8.399 -0.0320  0.0797 -0.2182
  291loPI   C4B 4656   6.739   8.169   8.125 -0.0763  0.2231  0.0335
  292loPI    C1 4657   3.972   6.182  10.484 -0.0925 -0.4635  0.0769
  292loPI    C2 4658   4.159   6.364  10.787  0.2068 -0.2248 -0.2429
  292loPI    C3 4659   4.216   5.973  10.722  0.0157 -0.3141  0.0983
  292loPI   PO4 4660   4.007   6.356  10.250  0.1839  0.3829  0.0067
  292loPI   GL1 4661   3.753   6.457  10.053  0.0021  0.0720 -0.1575
  292loPI   GL2 4662   3.899   6.538   9.824 -0.3608 -0.2135  0.1555
  292loPI   C1A 4663   3.610   6.133   9.765 -0.1392  0.0009  0.1337
  292loPI   C2A 4664   3.915   6.080   9.430 -0.0255 -0.1639  0.2948
  292loPI   C3A 4665   4.035   6.373   9.050 -0.1657 -0.1221  0.1803
  292loPI   C4A 4666   4.302   6.216   8.622 -0.0516  0.2598 -0.3072
  292loPI   C5A 4667   4.307   5.824   8.275  0.3273 -0.2088 -0.1798
  292loPI   C6A 4668   4.545   5.418   8.243 -0.0117 -0.1021  0.0331
  292loPI   C1B 4669   3.755   6.622   9.375  0.2576  0.2646  0.0128
  292loPI   C2B 4670   3.585   6.652   8.962 -0.3804 -0.3186 -0.1388
  292loPI   C3B 4671   3.453   6.819   8.595 -0.1354 -0.1485  0.0414
  292loPI   C4B 4672   3.421   7.094   8.266  0.1555  0.2763  0.0532
  293loPI    C1 4673  12.597   6.650   9.483  0.0126 -0.0518  0.0731
  293loPI    C2 4674  12.732   6.684   9.858 -0.0064 -0.1751  0.0914
  293loPI    C3 4675  12.387   6.495   9.786  0.1346 -0.3964 -0.0140
  293loPI   PO4 4676  12.787   6.555   9.350 -0.3136  0.0435 -0.0261
  293loPI   GL1 4677  12.724   6.274   8.976  0.1455 -0.3599 -0.3755
  293loPI   GL2 4678  12.668   6.589   8.865  0.1353  0.0998 -0.1228
  293loPI   C1A 4679  12.565   6.167   8.501  0.0113  0.2531  0.0095
  293loPI   C2A 4680  12.571   6.295   8.043  0.1293 -0.2394 -0.1151
  293loPI   C3A 4681  12.405   6.585   7.855  0.3190  0.2974 -0.3508
  293loPI   C4A 4682  12.231   6.532   7.481 -0.2039  0.0333 -0.0197
  293loPI   C5A 4683  12.106   6.664   7.054 -0.2880  0.2904 -0.3192
  293loPI   C6A 4684  12.142   7.078   6.871  0.2359 -0.0442 -0.0485
  293loPI   C1B 4685  12.385   6.672   8.453 -0.0098  0.1716 -0.3991
  293loPI   C2B 4686  12.030   6.710   8.314  0.2430 -0.1059  0.2125
  293loPI   C3B 4687  11.901   6.840   7.925  0.2812  0.2425  0.1920
  293loPI   C4B 4688  12.063   7.077   7.521 -0.0810 -0.2717 -0.1918
  294loPI    C1 4689   8.774   2.419   9.673 -0.5534  0.0888  0.1375
  294loPI    C2 4690   8.862   2.572  10.031  0.1487 -0.0745  0.0491
  294loPI    C3 4691   8.777   2.183   9.996  0.1188 -0.0665  0.0332
  294loPI   PO4 4692   8.515   2.495   9.532 -0.1773 -0.1999  0.0093
  294loPI   GL1 4693   8.300   2.538   9.167 -0.2878 -0.2063 -0.1942
  294loPI   GL2 4694   8.554   2.772   9.172  0.1832 -0.1570 -0.3166
  294loPI   C1A 4695   8.197   2.670   8.771  0.1677  0.1644 -0.1708
  294loPI   C2A 4696   8.232   2.949   8.406  0.0593 -0.0431  0.2484
  294loPI   C3A 4697   8.015   2.939   8.014  0.0414 -0.0755  0.2264
  294loPI   C4A 4698   7.967   2.949   7.513 -0.3585  0.3409 -0.3528
  294loPI   C5A 4699   7.902   2.814   7.168  0.0348 -0.1186  0.3255
  294loPI   C6A 4700   7.583   2.636   6.943  0.3637  0.1892 -0.0247
  294loPI   C1B 4701   8.747   2.839   8.771 -0.0648  0.0645  0.1110
  294loPI   C2B 4702   8.786   3.026   8.474 -0.1496  0.0176  0.1221
  294loPI   C3B 4703   8.600   3.186   8.167 -0.1730  0.2913 -0.0622
  294loPI   C4B 4704   8.354   3.350   7.891  0.4123 -0.2274 -0.4090
  295loPI    C1 4705   8.348   6.815  10.139 -0.0111 -0.0691  0.1695
  295loPI    C2 4706   8.137   7.153  10.173  0.0144 -0.0403  0.0503
  295loPI    C3 4707   8.403   7.053  10.455 -0.0541 -0.0042  0.1284
  295loPI   PO4 4708   8.242   6.470  10.019 -0.0294  0.2027  0.0646
  295loPI   GL1 4709   8.205   6.227   9.524  0.0961 -0.0417 -0.0235
  295loPI   GL2 4710   8.281   6.490   9.480  0.0550 -0.1622 -0.3073
  295loPI   C1A 4711   7.987   6.106   9.280 -0.1123  0.4128  0.1767
  295loPI   C2A 4712   7.930   6.180   8.818  0.1532 -0.2031 -0.0305
  295loPI   C3A 4713   8.022   6.026   8.420  0.3189  0.0810  0.0451
  295loPI   C4A 4714   8.147   6.054   8.013 -0.2050  0.0883 -0.0318
  295loPI   C5A 4715   8.323   6.087   7.593  0.0049 -0.0127 -0.1981
  295loPI   C6A 4716   8.228   6.097   7.129 -0.2764 -0.1427  0.1197
  295loPI   C1B 4717   8.318   6.494   9.084 -0.3250  0.0934 -0.0921
  295loPI   C2B 4718   8.397   6.337   8.731  0.1779  0.2391  0.0524
  295loPI   C3B 4719   8.545   6.389   8.293  0.1747  0.1878  0.0455
  295loPI   C4B 4720   8.482   6.444   7.863  0.0503 -0.0519  0.2368
  296loPI    C1 4721   9.777  12.238   9.891 -0.2209  0.0223 -0.0584
  296loPI    C2 4722   9.677  12.538  10.135 -0.0599  0.0154  0.0174
  296loPI    C3 4723   9.806  12.192  10.288 -0.0353 -0.0166 -0.0755
  296loPI   PO4 4724   9.636  12.355   9.687  0.0306 -0.4465 -0.1226
  296loPI   GL1 4725   9.424  12.299   9.388 -0.0755  0.0264 -0.0030
  296loPI   GL2 4726   9.080  12.359   9.289 -0.1291  0.2270 -0.0697
  296loPI   C1A 4727   9.461  12.135   8.877  0.0431  0.0273  0.2251
  296loPI   C2A 4728   9.244  12.116   8.442  0.4903 -0.1069  0.0384
  296loPI   C3A 4729   8.982  12.107   8.048  0.3547 -0.1007  0.1429
  296loPI   C4A 4730   8.743  12.141   7.641 -0.1468 -0.2989 -0.0020
  296loPI   C5A 4731   8.648  12.075   7.295  0.0748 -0.0270  0.0387
  296loPI   C6A 4732   8.301  12.282   7.042 -0.1276  0.1376  0.1472
  296loPI   C1B 4733   8.933  12.115   8.971 -0.2726 -0.0327 -0.0586
  296loPI   C2B 4734   8.791  12.061   8.572 -0.3207  0.2439 -0.1249
  296loPI   C3B 4735   8.600  11.843   8.209 -0.1733 -0.0741 -0.2002
  296loPI   C4B 4736   8.361  11.861   7.857 -0.4285  0.0658 -0.1263
  297loPI    C1 4737   6.577  15.193   9.719  0.1256 -0.2692  0.0193
  297loPI    C2 4738   6.830  15.439   9.531 -0.0542 -0.1780 -0.1064
  297loPI    C3 4739   6.732  15.507   9.913 -0.0205 -0.1161 -0.1085
  297loPI   PO4 4740   6.520  15.034   9.503  0.0173 -0.0069 -0.1671
  297loPI   GL1 4741   6.207  15.008   9.182 -0.0542 -0.1392 -0.1074
  297loPI   GL2 4742   5.974  14.722   9.167 -0.2759  0.0288  0.0485
  297loPI   C1A 4743   6.157  15.319   8.848 -0.2916  0.1750 -0.1764
  297loPI   C2A 4744   6.166  15.264   8.407  0.0112 -0.1077 -0.0670
  297loPI   C3A 4745   6.369  15.158   8.043  0.0032 -0.1757 -0.2355
  297loPI   C4A 4746   6.527  15.204   7.594 -0.0323  0.4208  0.3090
  297loPI   C5A 4747   6.475  14.832   7.265  0.1015 -0.1492 -0.0622
  297loPI   C6A 4748   6.675  14.519   7.422  0.0236 -0.0813  0.4580
  297loPI   C1B 4749   5.885  14.896   8.790 -0.0936  0.0606 -0.0524
  297loPI   C2B 4750   5.739  14.972   8.454  0.1287  0.3138  0.1549
  297loPI   C3B 4751   5.473  15.003   8.071 -0.1362  0.0861  0.0529
  297loPI   C4B 4752   5.317  14.814   7.683  0.0328 -0.2104 -0.0645
  298loPI    C1 4753  15.439   7.572   9.630 -0.2033 -0.2397 -0.1546
  298loPI    C2 4754  15.382   7.176   9.645 -0.0279 -0.2620 -0.0530
  298loPI    C3 4755  15.419   7.385   9.984  0.2276 -0.2111 -0.1097
  298loPI   PO4 4756  15.697   7.547   9.484 -0.1336 -0.3124 -0.2630
  298loPI   GL1 4757  15.736   7.454   9.053  0.0247 -0.0791  0.0711
  298loPI   GL2 4758  16.008   7.707   8.947 -0.1175  0.0886  0.1344
  298loPI   C1A 4759  15.905   7.388   8.617  0.1333 -0.0949 -0.4071
  298loPI   C2A 4760  15.771   7.536   8.212  0.1034 -0.1642  0.0464
  298loPI   C3A 4761  15.936   7.812   7.898 -0.1075 -0.2901  0.0900
  298loPI   C4A 4762  15.923   7.963   7.560 -0.3191  0.1715  0.0577
  298loPI   C5A 4763  15.655   8.019   7.237  0.0643  0.1263 -0.2049
  298loPI   C6A 4764  15.287   8.020   7.085 -0.2528  0.0938 -0.0026
  298loPI   C1B 4765  16.018   7.849   8.585  0.3858  0.4018  0.1800
  298loPI   C2B 4766  16.305   7.964   8.183 -0.0583  0.0681 -0.0423
  298loPI   C3B 4767  16.386   8.149   7.819  0.2046  0.0658 -0.1125
  298loPI   C4B 4768  16.418   8.397   7.458 -0.0528  0.0920  0.2895
  299loPI    C1 4769   1.957   9.344  10.330  0.0898 -0.2390 -0.0477
  299loPI    C2 4770   1.796   8.997  10.446 -0.1558 -0.1122 -0.0026
  299loPI    C3 4771   1.735   9.327  10.663 -0.2120  0.0290 -0.2296
  299loPI   PO4 4772   1.853   9.371  10.066 -0.2553 -0.2544 -0.2336
  299loPI   GL1 4773   1.748   9.198   9.603 -0.2751  0.1262  0.1708
  299loPI   GL2 4774   2.087   9.165   9.425 -0.3596  0.2550  0.0808
  299loPI   C1A 4775   1.526   9.308   9.176  0.0226  0.1321 -0.3121
  299loPI   C2A 4776   1.344   9.439   8.764  0.0567 -0.2175 -0.1554
  299loPI   C3A 4777   1.323   9.415   8.290 -0.2919  0.3582  0.2705
  299loPI   C4A 4778   1.234   9.286   7.983 -0.1957  0.1366  0.1113
  299loPI   C5A 4779   1.043   9.488   7.602  0.1189  0.2392  0.2675
  299loPI   C6A 4780   1.107   9.413   7.177 -0.1263  0.1471 -0.2110
  299loPI   C1B 4781   2.008   9.078   9.084 -0.2073 -0.1456  0.1250
  299loPI   C2B 4782   1.931   9.161   8.623 -0.4161 -0.0958 -0.1842
  299loPI   C3B 4783   1.827   8.959   8.382  0.1558 -0.1020  0.0837
  299loPI   C4B 4784   1.569   8.861   8.014 -0.0666 -0.0519 -0.0530
  300loPI    C1 4785   8.898   3.982   9.940  0.0017  0.1225 -0.0165
  300loPI    C2 4786   9.164   3.869  10.218 -0.2216 -0.1497  0.0918
  300loPI    C3 4787   9.087   3.630   9.906 -0.1409  0.0518 -0.0849
  300loPI   PO4 4788   8.893   4.254   9.804  0.2574  0.1867  0.3118
  300loPI   GL1 4789   9.040   4.340   9.401  0.1782 -0.2251 -0.2007
  300loPI   GL2 4790   8.703   4.178   9.227  0.0465  0.0984  0.0995
  300loPI   C1A 4791   8.976   4.485   8.981  0.1946 -0.1998  0.3216
  300loPI   C2A 4792   8.886   4.574   8.608 -0.3524  0.1339  0.1817
  300loPI   C3A 4793   8.914   4.592   8.241 -0.0738  0.0439  0.0274
  300loPI   C4A 4794   8.946   4.696   7.710  0.4866  0.0320 -0.1384
  300loPI   C5A 4795   9.164   5.117   7.435 -0.0971 -0.0929 -0.0080
  300loPI   C6A 4796   9.067   5.267   7.060  0.3522  0.5048  0.0592
  300loPI   C1B 4797   8.518   4.316   8.872 -0.0019 -0.2031 -0.1493
  300loPI   C2B 4798   8.471   4.356   8.455 -0.2713  0.3433  0.0360
  300loPI   C3B 4799   8.418   4.095   8.109 -0.2100 -0.0285  0.2256
  300loPI   C4B 4800   8.143   3.824   7.860  0.0688  0.1097 -0.2753
  301loPI    C1 4801   4.544  17.972   9.702 -0.0683 -0.0138  0.0743
  301loPI    C2 4802   4.502  18.273   9.442  0.1524 -0.0629 -0.0201
  301loPI    C3 4803   4.463  18.341   9.834 -0.1341  0.0207 -0.0609
  301loPI   PO4 4804   4.386  17.746   9.615 -0.3440  0.1806 -0.1894
  301loPI   GL1 4805   4.140  17.863   9.232  0.0417  0.2120 -0.4096
  301loPI   GL2 4806   4.090  18.185   9.127 -0.1407  0.4337 -0.0743
  301loPI   C1A 4807   4.147  17.569   8.978  0.2999 -0.0180  0.0300
  301loPI   C2A 4808   4.406  17.516   8.654 -0.0890  0.1006 -0.0534
  301loPI   C3A 4809   4.548  17.326   8.370  0.0681  0.2030 -0.0276
  301loPI   C4A 4810   4.480  17.207   7.890  0.3603 -0.0955  0.0239
  301loPI   C5A 4811   4.549  17.393   7.331 -0.0454 -0.2477  0.1104
  301loPI   C6A 4812   4.381  17.668   6.966  0.1279 -0.3016 -0.2435
  301loPI   C1B 4813   4.210  18.011   8.767  0.2736 -0.2104  0.2622
  301loPI   C2B 4814   3.905  17.727   8.522  0.2172 -0.0946 -0.1684
  301loPI   C3B 4815   4.000  17.315   8.410 -0.1103  0.0493 -0.4994
  301loPI   C4B 4816   3.998  17.118   8.018  0.1034  0.0851 -0.0079
  302loPI    C1 4817   7.552   6.762   9.784  0.1019 -0.0418 -0.1804
  302loPI    C2 4818   7.940   6.802   9.698  0.2080 -0.0235  0.2826
  302loPI    C3 4819   7.827   6.703  10.068 -0.2246 -0.1924  0.1109
  302loPI   PO4 4820   7.442   6.728   9.668 -0.0853  0.3126 -0.4450
  302loPI   GL1 4821   7.513   6.611   9.325  0.1011 -0.0771  0.1427
  302loPI   GL2 4822   7.827   6.585   9.229 -0.0542 -0.1488 -0.0626
  302loPI   C1A 4823   7.463   6.271   8.931  0.3526 -0.0021 -0.4186
  302loPI   C2A 4824   7.418   6.250   8.581  0.3417 -0.1214  0.0894
  302loPI   C3A 4825   7.560   6.185   8.124  0.1115  0.1697  0.1853
  302loPI   C4A 4826   7.703   6.039   7.758  0.0308 -0.2308  0.0693
  302loPI   C5A 4827   7.704   5.864   7.321  0.1751  0.2117  0.0706
  302loPI   C6A 4828   7.484   5.677   6.985  0.4408  0.2361 -0.0464
  302loPI   C1B 4829   7.709   6.636   8.742 -0.1972  0.2816 -0.0329
  302loPI   C2B 4830   7.795   6.523   8.348  0.2147 -0.0854 -0.0641
  302loPI   C3B 4831   7.955   6.571   7.916  0.2625 -0.2979 -0.0990
  302loPI   C4B 4832   8.135   6.657   7.491 -0.1062 -0.3128 -0.1158
  303loPI    C1 4833   7.328   6.673  10.224 -0.0263 -0.0512 -0.0070
  303loPI    C2 4834   7.190   6.321  10.354  0.0744 -0.1471 -0.1557
  303loPI    C3 4835   7.444   6.532  10.580  0.1001 -0.2219 -0.1141
  303loPI   PO4 4836   7.099   6.731  10.063  0.0155  0.1405  0.1333
  303loPI   GL1 4837   6.933   6.622   9.621 -0.0254 -0.0199  0.2635
  303loPI   GL2 4838   6.684   6.762   9.384  0.0813  0.1215 -0.1178
  303loPI   C1A 4839   7.085   6.547   9.155 -0.0093 -0.1962  0.3735
  303loPI   C2A 4840   7.122   6.645   8.720  0.4246  0.0271 -0.0901
  303loPI   C3A 4841   7.303   6.636   8.277 -0.1287 -0.0057  0.1041
  303loPI   C4A 4842   7.417   6.683   7.938  0.0574  0.0022 -0.1249
  303loPI   C5A 4843   7.153   6.681   7.517 -0.0022 -0.0996  0.0252
  303loPI   C6A 4844   6.878   6.517   7.178 -0.1448  0.1461  0.1355
  303loPI   C1B 4845   6.787   6.926   9.001 -0.1078  0.1208  0.1026
  303loPI   C2B 4846   6.867   6.879   8.407 -0.2863  0.0182 -0.1817
  303loPI   C3B 4847   6.966   6.782   7.983 -0.0049  0.1817 -0.2292
  303loPI   C4B 4848   6.756   6.454   7.752 -0.1223 -0.2192 -0.2789
  304loPI    C1 4849  17.035  12.455   9.839 -0.2750  0.1931  0.0589
  304loPI    C2 4850  17.193  12.656  10.146 -0.1006  0.2308 -0.0541
  304loPI    C3 4851  16.863  12.437  10.199  0.1362 -0.0634  0.2489
  304loPI   PO4 4852  17.159  12.323   9.658  0.0703 -0.2675  0.0055
  304loPI   GL1 4853  17.391  12.400   9.299 -0.2690  0.2457 -0.2101
  304loPI   GL2 4854  17.558  12.694   9.173 -0.0254 -0.1139  0.1034
  304loPI   C1A 4855  17.295  12.189   8.897  0.0828  0.0923  0.0119
  304loPI   C2A 4856  17.437  11.944   8.610 -0.1939 -0.2097  0.3146
  304loPI   C3A 4857  17.390  11.897   8.238  0.3492 -0.1593  0.2182
  304loPI   C4A 4858  17.476  11.920   7.851  0.0500  0.1511  0.0128
  304loPI   C5A 4859  17.213  11.901   7.425  0.1471 -0.3908  0.2816
  304loPI   C6A 4860  16.892  11.815   7.236 -0.1108  0.0907 -0.0805
  304loPI   C1B 4861  17.407  12.615   8.697 -0.2344 -0.1282 -0.0489
  304loPI   C2B 4862  17.442  12.408   8.336  0.1224 -0.1267  0.3588
  304loPI   C3B 4863  17.686  12.414   8.024 -0.0933 -0.1910  0.0600
  304loPI   C4B 4864  17.854  12.482   7.592  0.1210 -0.2224 -0.1225
  305loPI    C1 4865   0.790   6.003  10.611 -0.2770 -0.0152  0.1620
  305loPI    C2 4866   0.908   5.630  10.694 -0.2583 -0.0761 -0.1274
  305loPI    C3 4867   1.107   5.941  10.847 -0.2279 -0.1833  0.0540
  305loPI   PO4 4868   0.814   6.025  10.300 -0.0737 -0.0167 -0.1687
  305loPI   GL1 4869   0.712   6.052   9.938  0.1761 -0.1161 -0.1964
  305loPI   GL2 4870   0.483   5.882   9.804 -0.2595 -0.5201 -0.3199
  305loPI   C1A 4871   0.834   6.164   9.549  0.0992  0.0000  0.4979
  305loPI   C2A 4872   0.810   6.197   9.115 -0.4307 -0.0466  0.0136
  305loPI   C3A 4873   0.986   6.390   8.766 -0.0809  0.2193  0.1001
  305loPI   C4A 4874   1.052   6.656   8.442 -0.0024 -0.0693  0.0824
  305loPI   C5A 4875   0.917   7.003   8.089 -0.0214 -0.0126  0.3332
  305loPI   C6A 4876   0.555   7.336   7.864  0.1037  0.2589  0.0373
  305loPI   C1B 4877   0.461   5.816   9.381  0.4581 -0.1044 -0.1326
  305loPI   C2B 4878   0.536   5.641   8.953 -0.1959  0.1169 -0.0100
  305loPI   C3B 4879   0.553   5.640   8.481  0.2151  0.3752 -0.1717
  305loPI   C4B 4880   0.802   5.698   8.078  0.3177 -0.0255 -0.1266
  306loPI    C1 4881   0.149   8.219  10.449 -0.0486 -0.2204  0.1227
  306loPI    C2 4882  -0.126   8.464  10.605 -0.0456 -0.1608  0.0353
  306loPI    C3 4883   0.212   8.389  10.805  0.0952  0.1563 -0.0765
  306loPI   PO4 4884   0.131   8.239  10.200 -0.0251 -0.1061 -0.0129
  306loPI   GL1 4885   0.401   8.397   9.877  0.0746  0.1922 -0.1717
  306loPI   GL2 4886   0.691   8.127   9.920  0.2185 -0.0140 -0.1661
  306loPI   C1A 4887   0.393   8.107   9.536  0.0426  0.0129 -0.1039
  306loPI   C2A 4888   0.345   7.708   9.418  0.1144  0.0171 -0.1807
  306loPI   C3A 4889   0.154   7.402   9.168 -0.1156 -0.2560  0.3271
  306loPI   C4A 4890  -0.153   7.251   8.790  0.0140 -0.1924 -0.0815
  306loPI   C5A 4891  -0.499   7.016   8.579  0.0231  0.0888  0.0974
  306loPI   C6A 4892  -0.889   6.844   8.606 -0.3409 -0.1932  0.3496
  306loPI   C1B 4893   0.835   7.866   9.444 -0.0911  0.1751 -0.3089
  306loPI   C2B 4894   0.672   7.692   9.106  0.0536 -0.0470 -0.1898
  306loPI   C3B 4895   0.670   7.984   8.689 -0.1284  0.3941  0.0383
  306loPI   C4B 4896   1.081   8.035   8.413 -0.1016 -0.0091  0.1163
  307loPI    C1 4897   7.205   2.025   9.546  0.0319 -0.0465  0.1213
  307loPI    C2 4898   7.364   2.191   9.873  0.0737  0.3384 -0.0886
  307loPI    C3 4899   7.591   2.130   9.550  0.0876 -0.2420  0.0205
  307loPI   PO4 4900   6.892   2.141   9.554 -0.1231 -0.3191  0.3015
  307loPI   GL1 4901   6.612   2.262   9.261  0.3263 -0.1067 -0.0648
  307loPI   GL2 4902   7.056   2.195   8.986  0.1938  0.2892 -0.2079
  307loPI   C1A 4903   6.612   2.339   8.856  0.0422 -0.3577 -0.0152
  307loPI   C2A 4904   6.817   2.476   8.587 -0.2651  0.0383  0.0936
  307loPI   C3A 4905   6.766   2.750   8.263 -0.2490  0.1079  0.0319
  307loPI   C4A 4906   6.625   2.830   7.903  0.2680 -0.2136  0.0916
  307loPI   C5A 4907   6.630   2.737   7.454 -0.1767 -0.2312 -0.0708
  307loPI   C6A 4908   6.694   2.449   7.116 -0.1950  0.3660  0.0644
  307loPI   C1B 4909   6.958   2.003   8.683  0.2183  0.0851  0.2901
  307loPI   C2B 4910   6.920   2.008   8.238  0.2162 -0.0474  0.1153
  307loPI   C3B 4911   6.937   1.965   7.752  0.0771  0.1392  0.2537
  307loPI   C4B 4912   6.900   1.979   7.338 -0.0187  0.1953 -0.3205
  308loPI    C1 4913   8.471  19.108   9.730  0.0251 -0.1337 -0.2512
  308loPI    C2 4914   8.088  19.022   9.807 -0.0236  0.1396 -0.1764
  308loPI    C3 4915   8.361  19.002  10.099 -0.0314  0.2165 -0.1636
  308loPI   PO4 4916   8.467  18.970   9.492  0.0031  0.0940 -0.1191
  308loPI   GL1 4917   8.469  19.027   9.027 -0.0221 -0.1653  0.2657
  308loPI   GL2 4918   8.445  18.781   8.889  0.2263  0.1919 -0.1043
  308loPI   C1A 4919   8.718  19.090   8.598  0.1671 -0.1499  0.2768
  308loPI   C2A 4920   8.941  18.961   8.239  0.2846  0.1004  0.4168
  308loPI   C3A 4921   9.234  19.298   7.934 -0.1495  0.0023  0.0476
  308loPI   C4A 4922   9.569  19.456   7.766  0.0626 -0.2920  0.1025
  308loPI   C5A 4923   9.641  19.356   7.283  0.1147  0.3615 -0.0318
  308loPI   C6A 4924   9.831  19.258   6.952 -0.2091  0.2696 -0.0510
  308loPI   C1B 4925   8.463  18.638   8.454 -0.0194 -0.1424  0.1762
  308loPI   C2B 4926   8.566  18.768   7.925 -0.1025  0.2632 -0.0198
  308loPI   C3B 4927   8.935  18.771   7.716 -0.2236  0.0695 -0.1747
  308loPI   C4B 4928   9.234  18.573   7.358 -0.0095  0.0250 -0.0673
  309loPI    C1 4929  16.440   5.717   9.901  0.1716 -0.1860  0.0870
  309loPI    C2 4930  16.248   6.028  10.065  0.1436  0.0041 -0.2969
  309loPI    C3 4931  16.526   5.831  10.275 -0.2582 -0.0916  0.1626
  309loPI   PO4 4932  16.474   5.832   9.574  0.0598  0.0761  0.2431
  309loPI   GL1 4933  16.565   5.969   9.227  0.1512 -0.1575 -0.0943
  309loPI   GL2 4934  16.350   5.684   9.029  0.2766 -0.2277  0.1086
  309loPI   C1A 4935  16.498   6.060   8.789  0.1939  0.0546 -0.0877
  309loPI   C2A 4936  16.213   6.255   8.546  0.0760 -0.0941 -0.1129
  309loPI   C3A 4937  16.239   6.348   8.082  0.5217 -0.1517 -0.2088
  309loPI   C4A 4938  16.439   6.413   7.673  0.2426  0.5022  0.1092
  309loPI   C5A 4939  16.769   6.764   7.489 -0.1173  0.1538 -0.3539
  309loPI   C6A 4940  16.623   7.268   7.315 -0.0666  0.1350 -0.3270
  309loPI   C1B 4941  16.322   5.611   8.635 -0.5536 -0.1709 -0.0842
  309loPI   C2B 4942  16.306   5.760   8.174  0.1070 -0.1091 -0.2506
  309loPI   C3B 4943  16.239   5.938   7.777 -0.0160 -0.0480 -0.2121
  309loPI   C4B 4944  16.226   5.888   7.307 -0.0432 -0.0750  0.0309
  310loPI    C1 4945  13.326   5.785   9.663 -0.1298  0.0259 -0.0157
  310loPI    C2 4946  13.025   5.771   9.925 -0.0547 -0.0347  0.0679
  310loPI    C3 4947  13.325   5.508   9.951 -0.1129 -0.1259 -0.1605
  310loPI   PO4 4948  13.188   5.877   9.480  0.1669 -0.0980  0.2247
  310loPI   GL1 4949  13.061   5.871   9.021 -0.2539  0.3432 -0.1453
  310loPI   GL2 4950  13.176   5.983   8.765  0.1073  0.0214 -0.4494
  310loPI   C1A 4951  13.382   5.516   8.751  0.0915 -0.1694  0.3316
  310loPI   C2A 4952  13.247   5.414   8.299 -0.2609 -0.2215  0.0013
  310loPI   C3A 4953  13.113   5.214   7.918  0.0155 -0.1057 -0.2237
  310loPI   C4A 4954  13.080   5.353   7.557 -0.1772  0.2436 -0.3797
  310loPI   C5A 4955  13.451   5.526   7.251  0.0252 -0.0702 -0.3027
  310loPI   C6A 4956  13.584   5.365   6.845  0.3287 -0.1566  0.0165
  310loPI   C1B 4957  13.004   5.836   8.399  0.0729 -0.0760 -0.2693
  310loPI   C2B 4958  12.690   5.789   8.198 -0.1885 -0.1848  0.1078
  310loPI   C3B 4959  12.770   5.751   7.800  0.0413  0.1430 -0.0452
  310loPI   C4B 4960  12.918   5.829   7.382  0.2806  0.0083  0.3170
  311loPI    C1 4961   3.211  13.585  10.378 -0.0922 -0.0908 -0.0916
  311loPI    C2 4962   3.095  13.288  10.619 -0.4179  0.3537  0.3186
  311loPI    C3 4963   3.435  13.484  10.693 -0.1081 -0.0224 -0.0582
  311loPI   PO4 4964   3.036  13.383  10.115  0.2494  0.0719  0.0764
  311loPI   GL1 4965   3.219  13.193   9.710 -0.0228 -0.2933 -0.0284
  311loPI   GL2 4966   2.827  13.185   9.614 -0.0245  0.1871 -0.0709
  311loPI   C1A 4967   3.168  13.194   9.187  0.3428  0.3219  0.1161
  311loPI   C2A 4968   3.018  13.122   8.769  0.1347 -0.1883 -0.0394
  311loPI   C3A 4969   3.151  12.884   8.379 -0.0445  0.1519  0.1762
  311loPI   C4A 4970   3.353  12.636   8.115 -0.0345  0.2040 -0.0724
  311loPI   C5A 4971   3.561  12.439   7.790  0.2638 -0.0448  0.0711
  311loPI   C6A 4972   3.751  12.000   7.799  0.0315 -0.4367  0.0915
  311loPI   C1B 4973   2.717  13.063   9.145 -0.1945  0.0727 -0.1313
  311loPI   C2B 4974   2.579  12.790   8.740  0.0474  0.0763 -0.1465
  311loPI   C3B 4975   2.598  12.751   8.364  0.0204 -0.1408 -0.0614
  311loPI   C4B 4976   2.832  12.906   7.965  0.0948 -0.2839 -0.1461
  312loPI    C1 4977  11.309   4.932   9.620  0.2141 -0.1831  0.0599
  312loPI    C2 4978  11.385   4.635   9.877  0.0911 -0.1075  0.1848
  312loPI    C3 4979  11.180   4.956   9.998  0.0729 -0.0501  0.0040
  312loPI   PO4 4980  11.255   4.823   9.359 -0.1226  0.1199 -0.0787
  312loPI   GL1 4981  10.879   4.825   9.010 -0.0819 -0.0913 -0.0886
  312loPI   GL2 4982  11.099   5.079   8.956 -0.1435 -0.3019 -0.0436
  312loPI   C1A 4983  10.762   4.999   8.598 -0.0401 -0.0028 -0.0525
  312loPI   C2A 4984  10.851   4.974   8.182  0.1128  0.1467 -0.1544
  312loPI   C3A 4985  11.010   5.181   7.832 -0.1883  0.2085  0.0142
  312loPI   C4A 4986  11.179   5.129   7.412  0.1939  0.2548 -0.3859
  312loPI   C5A 4987  11.557   5.159   7.316  0.2514 -0.1024  0.1510
  312loPI   C6A 4988  11.685   4.873   7.059 -0.1274 -0.0841 -0.0545
  312loPI   C1B 4989  11.250   5.289   8.512 -0.3326 -0.2094 -0.0202
  312loPI   C2B 4990  11.285   5.461   8.191 -0.1271  0.3434  0.1314
  312loPI   C3B 4991  11.429   5.481   7.744 -0.2346 -0.4111 -0.1766
  312loPI   C4B 4992  11.657   5.625   7.336 -0.4795  0.0539 -0.2227
  313loPI    C1 4993   0.699   6.955  10.429 -0.1483  0.0509 -0.0934
  313loPI    C2 4994   0.907   7.066  10.752 -0.0212 -0.0436 -0.1420
  313loPI    C3 4995   0.507   7.075  10.759 -0.0166  0.1325 -0.0458
  313loPI   PO4 4996   0.809   7.043  10.234 -0.2167  0.0518 -0.1578
  313loPI   GL1 4997   0.946   7.093   9.872  0.0545 -0.0296 -0.0319
  313loPI   GL2 4998   0.707   7.401   9.877 -0.3074  0.0034  0.1252
  313loPI   C1A 4999   1.165   7.031   9.661  0.3457  0.2891  0.1127
  313loPI   C2A 5000   1.580   6.934   9.663 -0.3477 -0.2541 -0.0378
  313loPI   C3A 5001   1.880   6.776   9.236  0.0835  0.0158 -0.1190
  313loPI   C4A 5002   1.978   6.747   8.882 -0.2020  0.0081  0.0654
  313loPI   C5A 5003   2.235   6.951   8.525  0.0727 -0.0231 -0.1225
  313loPI   C6A 5004   2.559   6.973   8.150 -0.0527 -0.2677 -0.1657
  313loPI   C1B 5005   0.667   7.261   9.536  0.1229 -0.0327  0.1646
  313loPI   C2B 5006   0.597   7.161   9.092  0.0265 -0.0681 -0.1661
  313loPI   C3B 5007   0.495   7.462   8.708 -0.2006  0.0142  0.0402
  313loPI   C4B 5008   0.246   7.553   8.523  0.1853  0.2244  0.1242
  314loPI    C1 5009  14.496   3.796   9.526 -0.1091 -0.0242  0.0920
  314loPI    C2 5010  14.798   3.746   9.783 -0.0912  0.2994  0.1369
  314loPI    C3 5011  14.422   3.772   9.918 -0.1542 -0.1972  0.0738
  314loPI   PO4 5012  14.621   3.952   9.349  0.0744 -0.1762  0.0612
  314loPI   GL1 5013  14.675   3.976   8.957  0.0979  0.1750 -0.0625
  314loPI   GL2 5014  14.842   4.211   8.773  0.0455 -0.2091 -0.0519
  314loPI   C1A 5015  14.684   3.757   8.535  0.1837 -0.1488  0.1108
  314loPI   C2A 5016  14.579   3.770   8.085 -0.0906  0.0471 -0.1384
  314loPI   C3A 5017  14.529   3.839   7.636  0.0744  0.0918  0.1071
  314loPI   C4A 5018  14.276   3.890   7.315 -0.1722 -0.0319  0.0197
  314loPI   C5A 5019  13.863   3.616   7.121  0.2260  0.1434 -0.0912
  314loPI   C6A 5020  13.451   3.390   7.295  0.0194  0.0100  0.2431
  314loPI   C1B 5021  14.681   4.220   8.427  0.2171  0.2810 -0.1175
  314loPI   C2B 5022  14.564   4.336   7.945  0.1177 -0.2390  0.2592
  314loPI   C3B 5023  14.661   4.318   7.522  0.0144 -0.3386 -0.0134
  314loPI   C4B 5024  14.731   4.089   7.183 -0.1298 -0.1671 -0.2720
  315loPI    C1 5025  19.049  18.490   9.425  0.1293 -0.2508 -0.0290
  315loPI    C2 5026  19.004  18.885   9.382  0.0529 -0.2671 -0.1040
  315loPI    C3 5027  19.011  18.723   9.748 -0.0165 -0.2081 -0.0759
  315loPI   PO4 5028  18.877  18.349   9.331 -0.1802  0.3266  0.1936
  315loPI   GL1 5029  18.962  18.292   8.976  0.4667  0.0422  0.2753
  315loPI   GL2 5030  19.182  18.343   8.865 -0.3008  0.2958 -0.2356
  315loPI   C1A 5031  18.773  18.310   8.550  0.1263 -0.4154  0.2646
  315loPI   C2A 5032  18.792  18.268   8.250  0.1811 -0.3403  0.3435
  315loPI   C3A 5033  18.840  18.064   7.860 -0.1384  0.0092  0.0105
  315loPI   C4A 5034  18.976  18.168   7.446  0.3314 -0.0606 -0.3021
  315loPI   C5A 5035  19.295  18.318   7.239 -0.1622  0.0250 -0.1066
  315loPI   C6A 5036  19.097  18.635   6.936  0.1055 -0.0332  0.1229
  315loPI   C1B 5037  19.260  18.374   8.462  0.1903 -0.0021 -0.0368
  315loPI   C2B 5038  19.320  18.330   8.153 -0.0479 -0.3972 -0.1088
  315loPI   C3B 5039  19.321  18.500   7.753  0.0343  0.2858  0.0929
  315loPI   C4B 5040  19.387  18.762   7.376  0.2198 -0.3724  0.0893
  316loPI    C1 5041   2.394  14.255   9.893 -0.0586 -0.0339  0.0982
  316loPI    C2 5042   2.623  13.975   9.723  0.2170  0.0251  0.3632
  316loPI    C3 5043   2.255  13.883   9.849  0.0304 -0.0347 -0.1971
  316loPI   PO4 5044   2.404  14.513   9.732 -0.2177 -0.1455 -0.0513
  316loPI   GL1 5045   2.198  14.695   9.460  0.0311  0.1767  0.1001
  316loPI   GL2 5046   1.919  14.714   9.427  0.0953 -0.0345  0.2946
  316loPI   C1A 5047   2.263  14.610   9.044 -0.0876  0.0508 -0.2264
  316loPI   C2A 5048   2.160  14.413   8.712  0.2143 -0.0448 -0.1615
  316loPI   C3A 5049   2.101  14.194   8.350  0.1710 -0.2896 -0.6785
  316loPI   C4A 5050   2.100  14.253   7.954  0.2213  0.0985 -0.0448
  316loPI   C5A 5051   2.207  14.280   7.443 -0.2988  0.2121  0.2395
  316loPI   C6A 5052   2.561  14.443   7.257 -0.2369 -0.0501 -0.0008
  316loPI   C1B 5053   1.770  14.634   9.076 -0.1588  0.0529 -0.1380
  316loPI   C2B 5054   1.573  14.554   8.627 -0.0453  0.0442 -0.3518
  316loPI   C3B 5055   1.767  14.519   8.186 -0.2998 -0.3473  0.3014
  316loPI   C4B 5056   1.487  14.495   7.850  0.1833 -0.0693  0.0894
  317loPI    C1 5057  18.965   8.012  10.172 -0.0968  0.0779 -0.0896
  317loPI    C2 5058  18.787   8.316  10.362  0.0634  0.0975  0.0312
  317loPI    C3 5059  19.027   8.067  10.563  0.1609  0.0622 -0.1266
  317loPI   PO4 5060  19.100   8.177   9.936  0.1099  0.2281  0.1030
  317loPI   GL1 5061  19.238   8.357   9.537 -0.2897  0.3000 -0.2167
  317loPI   GL2 5062  18.951   8.179   9.463 -0.0607 -0.2150  0.0648
  317loPI   C1A 5063  19.230   8.827   9.235  0.0670 -0.3306 -0.0361
  317loPI   C2A 5064  19.225   8.791   8.765  0.0599 -0.1305 -0.0399
  317loPI   C3A 5065  19.066   8.906   8.348  0.0601 -0.3323  0.0285
  317loPI   C4A 5066  19.335   9.256   8.206  0.0643  0.1922  0.0435
  317loPI   C5A 5067  19.621   9.446   7.974 -0.1484  0.1175 -0.1825
  317loPI   C6A 5068  19.917   9.642   7.634  0.2114 -0.2578  0.1041
  317loPI   C1B 5069  19.270   8.292   9.089  0.1226  0.1037  0.2821
  317loPI   C2B 5070  19.263   8.282   8.705 -0.1364 -0.0640 -0.1743
  317loPI   C3B 5071  19.210   8.362   8.247  0.0566 -0.1862  0.0274
  317loPI   C4B 5072  18.979   8.510   7.880 -0.1815 -0.1294 -0.1178
  318loPI    C1 5073  11.070   2.209   9.856  0.0388 -0.0648 -0.1488
  318loPI    C2 5074  11.108   2.533  10.087 -0.2048 -0.0868 -0.0750
  318loPI    C3 5075  11.232   2.177  10.221  0.0794 -0.0238 -0.1632
  318loPI   PO4 5076  11.076   2.461   9.563  0.1347  0.0035 -0.1917
  318loPI   GL1 5077  11.099   2.289   9.001  0.0857 -0.0202 -0.2383
  318loPI   GL2 5078  11.386   2.313   8.754 -0.3864  0.2507  0.2180
  318loPI   C1A 5079  10.867   2.243   8.622  0.3331 -0.0635  0.3364
  318loPI   C2A 5080  10.782   2.273   8.209  0.0788  0.4130  0.0109
  318loPI   C3A 5081  10.639   2.304   7.760  0.1966  0.1783 -0.1044
  318loPI   C4A 5082  10.571   2.373   7.405  0.0557 -0.2359  0.1997
  318loPI   C5A 5083  10.457   2.023   7.028  0.1862 -0.2464 -0.2893
  318loPI   C6A 5084  10.147   1.889   6.605  0.1353 -0.2312 -0.1823
  318loPI   C1B 5085  11.152   2.592   8.519 -0.1496  0.1301  0.0953
  318loPI   C2B 5086  11.321   2.444   8.162 -0.0832  0.1163 -0.1671
  318loPI   C3B 5087  11.308   2.496   7.750 -0.3024  0.0448  0.2446
  318loPI   C4B 5088  11.086   2.294   7.493  0.1457  0.1612  0.0169
  319loPI    C1 5089  18.538  16.731   9.629  0.0261 -0.2426  0.2511
  319loPI    C2 5090  18.581  16.879   9.998 -0.0602  0.2074  0.0863
  319loPI    C3 5091  18.439  17.111   9.705  0.1441 -0.1018 -0.2651
  319loPI   PO4 5092  18.718  16.635   9.573 -0.1926  0.0528  0.2493
  319loPI   GL1 5093  18.992  16.501   9.257  0.2918 -0.0589  0.0523
  319loPI   GL2 5094  19.304  16.429   9.114 -0.0959 -0.1050 -0.1161
  319loPI   C1A 5095  18.733  16.629   8.844 -0.3474  0.0394  0.0274
  319loPI   C2A 5096  18.336  16.376   8.590  0.2397  0.0802  0.3171
  319loPI   C3A 5097  18.188  16.309   8.248  0.2151 -0.0280  0.1827
  319loPI   C4A 5098  18.060  16.180   7.891  0.0702 -0.2946 -0.2678
  319loPI   C5A 5099  17.820  16.262   7.523  0.0298  0.2284 -0.1061
  319loPI   C6A 5100  17.481  16.476   7.574 -0.0503  0.0163 -0.3317
  319loPI   C1B 5101  19.183  16.383   8.735  0.2508  0.0274 -0.2229
  319loPI   C2B 5102  19.243  16.354   8.227  0.0620  0.1376 -0.0515
  319loPI   C3B 5103  19.431  16.438   7.899  0.0169 -0.2820  0.0123
  319loPI   C4B 5104  19.437  16.227   7.505  0.1010 -0.1422 -0.0678
  320loPI    C1 5105  11.483   9.053   9.663  0.0850  0.0058 -0.1298
  320loPI    C2 5106  11.628   8.799   9.936 -0.0952 -0.1204 -0.1501
  320loPI    C3 5107  11.315   8.694   9.711  0.0152  0.0056 -0.3663
  320loPI   PO4 5108  11.647   9.117   9.448  0.0554 -0.0408 -0.0886
  320loPI   GL1 5109  11.663   8.989   9.086  0.2106  0.0241 -0.1340
  320loPI   GL2 5110  11.868   9.003   8.811 -0.1542 -0.0678  0.1588
  320loPI   C1A 5111  11.356   8.952   8.734 -0.1611  0.0808 -0.2010
  320loPI   C2A 5112  11.400   9.076   8.270  0.1063  0.0247 -0.2389
  320loPI   C3A 5113  11.292   9.403   7.875  0.0007  0.4673 -0.0440
  320loPI   C4A 5114  11.303   9.351   7.446 -0.0062 -0.2729 -0.1072
  320loPI   C5A 5115  11.654   9.425   7.249 -0.1208 -0.0572 -0.2286
  320loPI   C6A 5116  12.118   9.536   7.213 -0.4165 -0.0372  0.2497
  320loPI   C1B 5117  11.848   9.159   8.478  0.0169  0.0394  0.1271
  320loPI   C2B 5118  11.798   9.260   8.019  0.2354  0.1675 -0.1397
  320loPI   C3B 5119  11.992   9.244   7.601 -0.0805 -0.0274  0.1112
  320loPI   C4B 5120  12.122   9.049   7.249  0.0685  0.0063 -0.0236
  321loPI    C1 5121  14.271   1.283   9.508  0.0730 -0.1817  0.3170
  321loPI    C2 5122  14.332   1.239   9.901 -0.2460 -0.0690  0.3815
  321loPI    C3 5123  13.960   1.285   9.760 -0.1217  0.0337  0.0802
  321loPI   PO4 5124  14.521   1.315   9.414 -0.3899  0.4366 -0.0716
  321loPI   GL1 5125  14.710   1.348   9.007  0.1849  0.2290 -0.0054
  321loPI   GL2 5126  14.476   1.606   8.694  0.2154  0.1954  0.3490
  321loPI   C1A 5127  14.846   1.270   8.605 -0.2001  0.1393 -0.0061
  321loPI   C2A 5128  15.108   1.171   8.217  0.1774 -0.3591  0.0247
  321loPI   C3A 5129  14.964   1.014   7.858 -0.0982  0.2353  0.1766
  321loPI   C4A 5130  14.680   1.010   7.538  0.1015  0.0234 -0.1205
  321loPI   C5A 5131  14.175   1.152   7.347  0.0169  0.1840 -0.1076
  321loPI   C6A 5132  13.777   1.232   7.032 -0.1840  0.1289 -0.4512
  321loPI   C1B 5133  14.215   1.674   8.399  0.0709  0.2414 -0.2402
  321loPI   C2B 5134  14.125   1.591   7.997  0.0685 -0.3206  0.0421
  321loPI   C3B 5135  14.024   1.567   7.649  0.0304  0.3895 -0.3412
  321loPI   C4B 5136  13.622   1.598   7.371 -0.0296  0.1547 -0.1414
  322loPI    C1 5137  12.684  10.682   9.749  0.0975 -0.0178  0.0653
  322loPI    C2 5138  12.659  11.034   9.937  0.1444  0.1187 -0.1791
  322loPI    C3 5139  12.585  10.695  10.136 -0.0610  0.2758  0.0183
  322loPI   PO4 5140  12.544  10.714   9.506  0.1064 -0.2168 -0.0967
  322loPI   GL1 5141  12.351  10.678   9.081  0.1085 -0.0884 -0.1804
  322loPI   GL2 5142  12.466  10.913   9.065 -0.1160 -0.0074  0.0414
  322loPI   C1A 5143  12.389  10.564   8.659  0.1239  0.3067 -0.0365
  322loPI   C2A 5144  12.449  10.645   8.247  0.0439  0.1642  0.0724
  322loPI   C3A 5145  12.602  10.848   7.843 -0.1794 -0.0048 -0.0788
  322loPI   C4A 5146  12.599  10.806   7.407  0.2388 -0.4037  0.1162
  322loPI   C5A 5147  12.966  10.887   7.189 -0.1345 -0.0588  0.0633
  322loPI   C6A 5148  13.151  11.379   7.176 -0.3185  0.0708  0.0541
  322loPI   C1B 5149  12.453  11.037   8.596  0.0938 -0.3446 -0.1050
  322loPI   C2B 5150  12.363  11.131   8.113 -0.1136  0.0708 -0.2339
  322loPI   C3B 5151  12.253  11.211   7.686 -0.2226 -0.1373  0.0391
  322loPI   C4B 5152  12.175  10.986   7.318  0.0672  0.2915  0.0095
  323loPI    C1 5153   3.210  15.398   9.936  0.2840  0.2679  0.1531
  323loPI    C2 5154   3.048  15.738   9.804  0.0879  0.1093 -0.0219
  323loPI    C3 5155   2.812  15.435   9.915  0.2552  0.1295  0.4062
  323loPI   PO4 5156   3.427  15.337   9.687 -0.1182  0.1553 -0.0594
  323loPI   GL1 5157   3.530  15.229   9.286  0.1379  0.0541  0.1535
  323loPI   GL2 5158   3.598  15.092   9.007  0.1078  0.0222 -0.2792
  323loPI   C1A 5159   3.492  15.624   8.963  0.0267 -0.0420  0.4153
  323loPI   C2A 5160   3.256  15.502   8.588 -0.2728  0.1293 -0.1815
  323loPI   C3A 5161   3.069  15.370   8.148  0.0688  0.1122  0.4154
  323loPI   C4A 5162   2.852  15.310   7.787  0.1652  0.1034  0.2035
  323loPI   C5A 5163   2.925  15.512   7.383  0.1422 -0.0934  0.2390
  323loPI   C6A 5164   2.961  15.946   7.371  0.2137 -0.3452 -0.1289
  323loPI   C1B 5165   3.619  15.120   8.631  0.0608 -0.0602  0.4267
  323loPI   C2B 5166   3.319  14.976   8.281  0.0134  0.1260 -0.4436
  323loPI   C3B 5167   3.376  14.767   7.911  0.3004  0.0790 -0.4619
  323loPI   C4B 5168   3.346  15.131   7.693  0.1217  0.0341  0.0277
  324loPI    C1 5169   8.177   1.357   9.316  0.1522 -0.2462 -0.1814
  324loPI    C2 5170   8.225   1.259   9.701  0.0754  0.1255 -0.0733
  324loPI    C3 5171   8.460   1.537   9.534  0.2681 -0.2041 -0.3647
  324loPI   PO4 5172   8.211   1.016   9.200 -0.0628  0.0153 -0.4348
  324loPI   GL1 5173   8.251   0.899   8.818 -0.2500 -0.3527  0.1270
  324loPI   GL2 5174   8.227   0.555   8.774 -0.3546 -0.1003  0.1454
  324loPI   C1A 5175   8.375   1.023   8.398 -0.2033  0.3471  0.1114
  324loPI   C2A 5176   8.433   1.179   8.001 -0.3640  0.0355  0.0974
  324loPI   C3A 5177   8.644   1.174   7.603 -0.0320 -0.1036  0.2865
  324loPI   C4A 5178   8.936   1.409   7.395 -0.1507 -0.4263 -0.0847
  324loPI   C5A 5179   8.897   1.760   7.059 -0.2071  0.2500 -0.5810
  324loPI   C6A 5180   9.026   1.708   6.757  0.0676  0.1162  0.0266
  324loPI   C1B 5181   8.028   0.631   8.413  0.3546 -0.4218 -0.0876
  324loPI   C2B 5182   8.143   0.707   7.952 -0.0990  0.1279 -0.0239
  324loPI   C3B 5183   8.392   0.602   7.572  0.1683  0.1800 -0.1569
  324loPI   C4B 5184   8.691   0.336   7.386 -0.1110  0.2139  0.2662
  325loPI    C1 5185   3.023  12.570  10.309 -0.2118  0.1683  0.1442
  325loPI    C2 5186   3.226  12.913  10.276 -0.1591  0.1377  0.1502
  325loPI    C3 5187   3.110  12.783  10.636 -0.1392  0.1258  0.1523
  325loPI   PO4 5188   3.196  12.356  10.147  0.0888  0.1171 -0.0671
  325loPI   GL1 5189   3.161  12.111   9.766  0.1201  0.1118 -0.0394
  325loPI   GL2 5190   3.008  12.424   9.668  0.0931 -0.1224 -0.0215
  325loPI   C1A 5191   3.212  11.751   9.509 -0.1525 -0.0777  0.0061
  325loPI   C2A 5192   3.373  11.836   9.062 -0.3540 -0.0016  0.0817
  325loPI   C3A 5193   3.566  11.992   8.686  0.0345 -0.0088  0.1914
  325loPI   C4A 5194   3.460  12.119   8.341  0.0708 -0.2135 -0.0677
  325loPI   C5A 5195   3.156  12.175   7.961 -0.1396  0.1442 -0.1296
  325loPI   C6A 5196   2.724  12.399   7.885  0.2798  0.1052  0.3574
  325loPI   C1B 5197   2.926  12.213   9.311  0.1324 -0.0146  0.0099
  325loPI   C2B 5198   2.792  11.809   9.163  0.0611 -0.0384 -0.1172
  325loPI   C3B 5199   2.594  11.774   8.774 -0.0567 -0.2789 -0.0585
  325loPI   C4B 5200   2.532  11.523   8.376  0.2341  0.0869  0.0822
  326loPI    C1 5201   3.047  10.585  10.636  0.0099 -0.3498 -0.0379
  326loPI    C2 5202   2.658  10.661  10.589  0.0472 -0.1910 -0.0949
  326loPI    C3 5203   2.827  10.699  10.950  0.0991  0.1632 -0.1522
  326loPI   PO4 5204   3.060  10.656  10.334  0.2568  0.1018 -0.2234
  326loPI   GL1 5205   3.063  10.736   9.920  0.3887 -0.1180 -0.2056
  326loPI   GL2 5206   3.384  10.901   9.859 -0.0620 -0.2714 -0.2333
  326loPI   C1A 5207   3.119  10.840   9.450 -0.0463  0.1290 -0.1801
  326loPI   C2A 5208   3.037  10.747   8.981  0.1400  0.3206 -0.0780
  326loPI   C3A 5209   3.250  10.683   8.499  0.0730  0.0350 -0.1302
  326loPI   C4A 5210   3.247  10.648   8.085  0.0802 -0.1617 -0.0550
  326loPI   C5A 5211   3.202  10.485   7.629 -0.3724 -0.0104 -0.1014
  326loPI   C6A 5212   3.008  10.065   7.293 -0.2527 -0.0949 -0.0615
  326loPI   C1B 5213   3.593  10.864   9.470  0.3123 -0.0015 -0.2175
  326loPI   C2B 5214   3.588  10.936   8.985 -0.1930 -0.1891  0.0322
  326loPI   C3B 5215   3.427  11.106   8.711 -0.0367  0.4465 -0.1518
  326loPI   C4B 5216   3.395  11.131   8.172  0.1004  0.0370  0.0808
  327loPI    C1 5217   7.652  15.857   9.776 -0.3031 -0.1531 -0.1674
  327loPI    C2 5218   7.697  15.557  10.037 -0.0404 -0.0685 -0.1128
  327loPI    C3 5219   7.531  15.902  10.155  0.2000  0.0176 -0.0188
  327loPI   PO4 5220   7.813  15.775   9.576  0.0856 -0.0034 -0.3316
  327loPI   GL1 5221   7.943  15.901   9.126 -0.1861  0.1039  0.1083
  327loPI   GL2 5222   7.933  15.605   8.791  0.2389  0.0233 -0.2073
  327loPI   C1A 5223   7.833  16.224   8.762 -0.0068 -0.2605  0.1068
  327loPI   C2A 5224   7.687  16.270   8.367 -0.1881 -0.2422 -0.1062
  327loPI   C3A 5225   7.725  16.437   7.964  0.1624 -0.1767  0.0026
  327loPI   C4A 5226   7.721  16.706   7.539  0.2757 -0.0837  0.1462
  327loPI   C5A 5227   7.783  16.772   7.135  0.2288  0.3612 -0.5588
  327loPI   C6A 5228   7.586  16.587   6.786 -0.2646 -0.1096 -0.1045
  327loPI   C1B 5229   8.019  15.866   8.385 -0.2491 -0.1882 -0.0786
  327loPI   C2B 5230   7.837  15.980   7.897 -0.4563  0.0300  0.1716
  327loPI   C3B 5231   7.687  16.101   7.551 -0.0500 -0.3375  0.1094
  327loPI   C4B 5232   7.377  16.480   7.278  0.0080 -0.3287 -0.0218
  328loPI    C1 5233   0.503  11.845  10.053 -0.1901  0.2927  0.0450
  328loPI    C2 5234   0.321  11.489  10.064  0.1316  0.1129 -0.2535
  328loPI    C3 5235   0.399  11.685  10.404  0.1155 -0.1868 -0.0739
  328loPI   PO4 5236   0.574  11.785   9.795 -0.2003  0.3206  0.1593
  328loPI   GL1 5237   0.536  11.983   9.440 -0.0983  0.0763  0.0774
  328loPI   GL2 5238   0.245  12.095   9.535 -0.1656 -0.2091  0.1967
  328loPI   C1A 5239   0.813  11.907   9.110 -0.0500 -0.1114  0.0315
  328loPI   C2A 5240   1.017  11.759   8.772 -0.0129  0.1581  0.1202
  328loPI   C3A 5241   1.293  11.647   8.388  0.0771  0.4578  0.1644
  328loPI   C4A 5242   1.346  11.554   7.979 -0.0581  0.3100  0.2629
  328loPI   C5A 5243   1.497  11.901   7.719  0.3287  0.1340 -0.1569
  328loPI   C6A 5244   1.192  12.258   7.689  0.1288  0.2412 -0.0203
  328loPI   C1B 5245   0.328  12.280   9.060  0.1271 -0.3974 -0.3653
  328loPI   C2B 5246   0.338  12.160   8.591  0.0121  0.0341  0.3008
  328loPI   C3B 5247   0.424  12.102   8.163  0.0219  0.2348  0.1439
  328loPI   C4B 5248   0.680  12.340   7.780 -0.0510  0.2702 -0.0644
  329loPI    C1 5249   7.527  17.496   9.593  0.0203  0.1427  0.1660
  329loPI    C2 5250   7.195  17.296   9.693  0.0527 -0.0816 -0.1593
  329loPI    C3 5251   7.172  17.681   9.585 -0.0773 -0.0490 -0.0190
  329loPI   PO4 5252   7.689  17.393   9.419  0.1755 -0.0289 -0.2274
  329loPI   GL1 5253   7.786  17.578   8.966 -0.0135  0.0138  0.0919
  329loPI   GL2 5254   7.922  17.780   8.840 -0.1758  0.3443  0.1042
  329loPI   C1A 5255   7.605  17.210   8.816 -0.2912 -0.0710  0.1212
  329loPI   C2A 5256   7.324  17.000   8.477  0.0410 -0.1056  0.0124
  329loPI   C3A 5257   7.073  17.066   8.122  0.0208  0.0264  0.1636
  329loPI   C4A 5258   6.918  17.094   7.727  0.0065 -0.2243 -0.1287
  329loPI   C5A 5259   6.553  17.002   7.596  0.1975  0.2684 -0.0237
  329loPI   C6A 5260   6.116  17.006   7.500  0.0565  0.1484 -0.1182
  329loPI   C1B 5261   7.894  17.816   8.479  0.1276  0.1603  0.2456
  329loPI   C2B 5262   7.918  17.946   7.990  0.3156  0.0071 -0.1603
  329loPI   C3B 5263   8.056  18.150   7.582  0.2637  0.1179  0.1029
  329loPI   C4B 5264   7.845  18.415   7.226 -0.1838  0.0867 -0.1141
  330loPI    C1 5265  15.538  14.939   9.353 -0.3142  0.1161 -0.2191
  330loPI    C2 5266  15.147  14.863   9.389 -0.2337 -0.1049  0.2655
  330loPI    C3 5267  15.393  14.795   9.697  0.2166 -0.1350 -0.0902
  330loPI   PO4 5268  15.500  15.055   9.080 -0.3238  0.0797 -0.1517
  330loPI   GL1 5269  15.391  14.913   8.687 -0.1013  0.1132  0.4452
  330loPI   GL2 5270  15.685  14.681   8.597 -0.0891 -0.3104 -0.1948
  330loPI   C1A 5271  15.044  15.005   8.357  0.1531  0.1277  0.1236
  330loPI   C2A 5272  14.782  15.305   8.077  0.2596  0.0717  0.3204
  330loPI   C3A 5273  14.532  15.367   7.748 -0.0009 -0.3224 -0.1158
  330loPI   C4A 5274  14.522  15.276   7.387  0.0095  0.0276  0.0624
  330loPI   C5A 5275  14.634  15.283   6.921  0.2373 -0.1871 -0.0616
  330loPI   C6A 5276  14.721  15.528   6.589  0.2768  0.3554  0.2781
  330loPI   C1B 5277  15.801  14.276   8.513  0.1277 -0.2296 -0.0348
  330loPI   C2B 5278  15.964  13.920   8.126 -0.1461 -0.0758 -0.0160
  330loPI   C3B 5279  15.810  13.774   7.748 -0.1306 -0.1601  0.0567
  330loPI   C4B 5280  15.742  13.501   7.425 -0.0891  0.1960  0.3533
  331loPI    C1 5281  14.196  16.784   9.593 -0.2379  0.1098 -0.2882
  331loPI    C2 5282  13.841  16.762   9.776 -0.0156 -0.0632  0.1372
  331loPI    C3 5283  14.087  17.068   9.854 -0.0747  0.0664 -0.1707
  331loPI   PO4 5284  14.068  16.625   9.380 -0.0681  0.0200  0.0288
  331loPI   GL1 5285  14.322  16.721   9.038 -0.2286  0.2998 -0.2896
  331loPI   GL2 5286  14.125  16.532   8.876 -0.2723 -0.0148 -0.1760
  331loPI   C1A 5287  14.370  16.932   8.652  0.1621  0.0604 -0.2103
  331loPI   C2A 5288  14.223  16.939   8.285 -0.3746  0.0927  0.3031
  331loPI   C3A 5289  14.007  17.104   7.940 -0.0385 -0.0879  0.2594
  331loPI   C4A 5290  13.872  17.253   7.462  0.0423 -0.1028 -0.3667
  331loPI   C5A 5291  14.011  17.312   6.992  0.2627  0.2464  0.2035
  331loPI   C6A 5292  14.200  17.087   6.711 -0.0864  0.3141 -0.0958
  331loPI   C1B 5293  13.935  16.529   8.380 -0.0354 -0.4256  0.0676
  331loPI   C2B 5294  13.908  16.520   7.986 -0.1546 -0.1118  0.3705
  331loPI   C3B 5295  14.050  16.728   7.671 -0.2417 -0.0222  0.1770
  331loPI   C4B 5296  14.408  16.995   7.693 -0.0816  0.2037 -0.0187
  332loPI    C1 5297  18.521  19.030   9.605 -0.2196  0.1260 -0.0366
  332loPI    C2 5298  18.542  18.659   9.460 -0.1963  0.1214 -0.0215
  332loPI    C3 5299  18.448  18.718   9.844  0.0702  0.1189  0.0464
  332loPI   PO4 5300  18.441  19.218   9.401 -0.0605  0.0815  0.0350
  332loPI   GL1 5301  18.271  18.955   9.088 -0.1572 -0.1252 -0.2233
  332loPI   GL2 5302  18.021  18.966   9.176  0.1660  0.3178  0.2290
  332loPI   C1A 5303  18.513  19.113   8.773  0.3195  0.1346  0.0988
  332loPI   C2A 5304  18.754  19.138   8.349 -0.2140 -0.0910  0.0395
  332loPI   C3A 5305  18.750  19.400   8.012 -0.1181  0.1522  0.0467
  332loPI   C4A 5306  18.995  19.638   7.719 -0.2278  0.1440  0.1524
  332loPI   C5A 5307  19.132  19.623   7.262 -0.0618  0.2379 -0.2966
  332loPI   C6A 5308  19.428  19.650   6.933  0.0645 -0.1403  0.1681
  332loPI   C1B 5309  17.892  18.919   8.721  0.0903 -0.2680 -0.1609
  332loPI   C2B 5310  17.801  18.955   8.348  0.0044  0.1471 -0.2114
  332loPI   C3B 5311  17.963  18.811   7.880  0.0455 -0.2813  0.1083
  332loPI   C4B 5312  18.289  18.780   7.603  0.0062  0.0531 -0.1907
  333loPI    C1 5313  17.376   1.952   9.463  0.1012  0.2417 -0.0645
  333loPI    C2 5314  17.750   2.094   9.475  0.1728  0.0677 -0.1941
  333loPI    C3 5315  17.474   2.236   9.727  0.3445  0.1448 -0.0474
  333loPI   PO4 5316  17.352   1.896   9.213 -0.3534 -0.3670  0.0330
  333loPI   GL1 5317  17.534   1.776   8.798 -0.1605  0.1278  0.0929
  333loPI   GL2 5318  17.329   1.991   8.615  0.1204  0.0925 -0.1612
  333loPI   C1A 5319  17.716   1.698   8.380  0.1534  0.0676  0.0678
  333loPI   C2A 5320  18.026   1.811   8.231  0.1910  0.0228  0.1419
  333loPI   C3A 5321  17.974   1.777   7.823 -0.1065 -0.0196  0.0525
  333loPI   C4A 5322  18.004   1.415   7.574 -0.2706  0.1056  0.1145
  333loPI   C5A 5323  17.990   1.301   7.169  0.3056 -0.0895 -0.0055
  333loPI   C6A 5324  17.765   1.008   6.893  0.0057 -0.0765 -0.0287
  333loPI   C1B 5325  17.107   1.949   8.183 -0.3856  0.0313 -0.2102
  333loPI   C2B 5326  17.107   1.590   7.870  0.0468 -0.2379 -0.1304
  333loPI   C3B 5327  17.058   1.621   7.461 -0.0682  0.1697 -0.0560
  333loPI   C4B 5328  16.727   1.722   7.200  0.0250  0.0239  0.0251
  334loPI    C1 5329   4.274  15.337   9.797  0.3682 -0.0000 -0.0368
  334loPI    C2 5330   4.409  15.306  10.172  0.1005  0.3094  0.0896
  334loPI    C3 5331   4.026  15.223  10.090  0.1768  0.1676 -0.1312
  334loPI   PO4 5332   4.370  15.308   9.571 -0.2565 -0.0224 -0.6267
  334loPI   GL1 5333   4.235  15.147   9.133  0.3123 -0.3038  0.2791
  334loPI   GL2 5334   4.071  15.345   9.038 -0.0001  0.2787 -0.1893
  334loPI   C1A 5335   4.201  14.968   8.679  0.3657  0.1170  0.4816
  334loPI   C2A 5336   3.990  14.936   8.228 -0.0461  0.0058 -0.0848
  334loPI   C3A 5337   3.944  14.906   7.816  0.0242 -0.1781  0.2271
  334loPI   C4A 5338   4.179  14.761   7.535 -0.1755 -0.4044 -0.0522
  334loPI   C5A 5339   4.307  14.380   7.444 -0.1616  0.6273 -0.1756
  334loPI   C6A 5340   4.479  14.048   7.369 -0.1023  0.0561 -0.0486
  334loPI   C1B 5341   4.051  15.414   8.652  0.2952 -0.2953 -0.1614
  334loPI   C2B 5342   4.110  15.406   8.152  0.1572 -0.0871  0.4899
  334loPI   C3B 5343   4.259  15.700   7.885 -0.0308  0.0078 -0.0954
  334loPI   C4B 5344   4.520  15.877   7.592  0.3778  0.5156 -0.0676
  335loPI    C1 5345   7.091   8.128  10.199  0.1052  0.1078  0.0374
  335loPI    C2 5346   7.239   8.459  10.368  0.2036  0.0731  0.0204
  335loPI    C3 5347   6.920   8.278  10.528  0.2316  0.1002  0.1074
  335loPI   PO4 5348   7.074   8.216   9.960 -0.0369  0.0079  0.1314
  335loPI   GL1 5349   7.107   8.233   9.557 -0.0588  0.0675 -0.0284
  335loPI   GL2 5350   6.896   8.001   9.544  0.1751 -0.1847  0.0846
  335loPI   C1A 5351   7.160   8.669   9.324 -0.1332  0.0965 -0.2451
  335loPI   C2A 5352   7.335   8.721   8.898  0.3690  0.2816 -0.0977
  335loPI   C3A 5353   7.654   8.898   8.639 -0.0282 -0.1920 -0.0083
  335loPI   C4A 5354   7.687   9.106   8.240  0.0156  0.0327  0.1997
  335loPI   C5A 5355   7.582   9.358   7.887 -0.2315 -0.0609 -0.0688
  335loPI   C6A 5356   7.707   9.632   7.851 -0.0967 -0.1317 -0.0180
  335loPI   C1B 5357   6.829   8.007   9.218 -0.2021 -0.4041 -0.0140
  335loPI   C2B 5358   7.181   8.213   8.867 -0.0542 -0.1001 -0.2765
  335loPI   C3B 5359   7.436   8.359   8.551  0.0923  0.1343 -0.0887
  335loPI   C4B 5360   7.667   8.080   8.468 -0.1098 -0.3039 -0.1606
  336loPI    C1 5361   3.276  18.082   9.686 -0.1675  0.0667 -0.0470
  336loPI    C2 5362   3.183  18.463   9.604  0.0005  0.1411  0.1020
  336loPI    C3 5363   3.277  18.356   9.978  0.1419 -0.0080  0.0247
  336loPI   PO4 5364   3.542  17.990   9.529  0.0035  0.1694  0.0850
  336loPI   GL1 5365   3.542  17.627   9.167  0.1556 -0.1045  0.0670
  336loPI   GL2 5366   3.709  17.825   8.959  0.0264  0.0389 -0.1756
  336loPI   C1A 5367   3.253  17.872   8.792 -0.4281  0.3034 -0.0650
  336loPI   C2A 5368   2.885  18.092   8.570  0.0042 -0.0286 -0.3837
  336loPI   C3A 5369   2.909  18.142   8.139  0.1483  0.1108 -0.1566
  336loPI   C4A 5370   2.851  18.016   7.651 -0.4654  0.1098 -0.4333
  336loPI   C5A 5371   2.843  17.809   7.245  0.0072  0.1120 -0.1094
  336loPI   C6A 5372   3.012  17.420   6.924 -0.0861 -0.0508  0.1690
  336loPI   C1B 5373   3.673  18.131   8.712 -0.0266 -0.1718 -0.0028
  336loPI   C2B 5374   3.810  18.209   8.260 -0.0694 -0.1538 -0.0988
  336loPI   C3B 5375   3.796  18.369   7.898 -0.1770  0.0713 -0.2550
  336loPI   C4B 5376   3.786  18.542   7.376 -0.0849  0.0632 -0.0861
  337loPI    C1 5377  13.544  15.779   9.605 -0.1575 -0.0066  0.1059
  337loPI    C2 5378  13.846  15.919   9.826 -0.0020 -0.0619 -0.0688
  337loPI    C3 5379  13.671  15.573   9.923 -0.0046 -0.0337  0.0284
  337loPI   PO4 5380  13.649  15.773   9.305 -0.1478 -0.0796 -0.0163
  337loPI   GL1 5381  13.550  15.528   9.019 -0.0677 -0.2672  0.0698
  337loPI   GL2 5382  13.400  15.190   8.937  0.1779 -0.1790 -0.2213
  337loPI   C1A 5383  13.721  15.437   8.606  0.4681  0.2160  0.4105
  337loPI   C2A 5384  13.677  15.104   8.365  0.0103 -0.2634 -0.1559
  337loPI   C3A 5385  13.767  15.121   7.948 -0.2038 -0.0303  0.1448
  337loPI   C4A 5386  13.784  15.039   7.462  0.1511  0.2200  0.2140
  337loPI   C5A 5387  13.745  14.976   7.067 -0.0080 -0.1220 -0.2304
  337loPI   C6A 5388  13.540  14.545   6.866 -0.3260  0.0114 -0.0363
  337loPI   C1B 5389  13.418  14.817   8.773  0.1051 -0.2104 -0.1114
  337loPI   C2B 5390  13.473  14.645   8.344 -0.3844  0.0163  0.0713
  337loPI   C3B 5391  13.548  14.682   7.871 -0.2085  0.2692 -0.0128
  337loPI   C4B 5392  13.536  14.569   7.391 -0.3726 -0.1272 -0.0508
  338loPI    C1 5393   6.178  15.921   9.678  0.0497 -0.0356 -0.2588
  338loPI    C2 5394   5.791  15.858   9.596  0.0227 -0.0871 -0.0959
  338loPI    C3 5395   5.898  16.013   9.949  0.1378  0.1183 -0.2189
  338loPI   PO4 5396   6.177  16.102   9.333 -0.0404 -0.1500  0.1987
  338loPI   GL1 5397   6.064  16.248   8.878  0.0738  0.0896  0.1518
  338loPI   GL2 5398   6.350  16.411   8.950  0.3703 -0.0285 -0.0158
  338loPI   C1A 5399   5.937  16.390   8.351  0.0777 -0.0795 -0.0983
  338loPI   C2A 5400   5.538  16.404   8.156  0.1603 -0.1219  0.0948
  338loPI   C3A 5401   5.307  16.579   7.730  0.1320  0.3477  0.1874
  338loPI   C4A 5402   5.307  16.657   7.271  0.1876 -0.2376 -0.1958
  338loPI   C5A 5403   4.912  16.629   7.043 -0.1304 -0.4211  0.2730
  338loPI   C6A 5404   4.722  16.458   6.793 -0.1971  0.1563  0.3452
  338loPI   C1B 5405   6.452  16.384   8.470 -0.2850  0.3145  0.2241
  338loPI   C2B 5406   6.371  16.331   8.041  0.2642  0.1674  0.1341
  338loPI   C3B 5407   6.425  16.496   7.627  0.0740 -0.5288 -0.1264
  338loPI   C4B 5408   6.458  16.571   7.173 -0.3023 -0.0380  0.0933
  339loPI    C1 5409  15.344  18.889   9.597  0.0649 -0.3670  0.1321
  339loPI    C2 5410  14.978  18.919   9.754  0.0056  0.1814 -0.0893
  339loPI    C3 5411  15.288  18.822   9.987 -0.2477 -0.1101  0.1352
  339loPI   PO4 5412  15.356  19.188   9.409 -0.1964  0.2122 -0.0545
  339loPI   GL1 5413  15.162  19.410   8.950  0.2644  0.0325  0.1201
  339loPI   GL2 5414  14.892  19.488   8.684 -0.1670 -0.0847  0.0646
  339loPI   C1A 5415  15.319  19.296   8.480  0.5350 -0.0055 -0.0283
  339loPI   C2A 5416  15.318  19.243   8.032 -0.1238  0.2903  0.2799
  339loPI   C3A 5417  15.353  19.146   7.650  0.2994  0.0514 -0.0081
  339loPI   C4A 5418  15.468  19.054   7.266  0.0890 -0.0710  0.0631
  339loPI   C5A 5419  15.687  18.985   7.006  0.1889  0.4503  0.0698
  339loPI   C6A 5420  15.792  18.559   6.749 -0.2908 -0.0920  0.1926
  339loPI   C1B 5421  14.940  19.457   8.224  0.0253  0.0636  0.1220
  339loPI   C2B 5422  14.991  19.579   7.927  0.0312  0.2351 -0.1505
  339loPI   C3B 5423  14.816  19.909   7.674 -0.0905 -0.2300 -0.1425
  339loPI   C4B 5424  14.811  19.814   7.242  0.1210 -0.0057 -0.3001
  340loPI    C1 5425  11.609   3.256   9.711 -0.0926 -0.1049 -0.2059
  340loPI    C2 5426  11.989   3.368   9.659  0.0427 -0.3838  0.1407
  340loPI    C3 5427  11.806   3.437  10.008 -0.3179 -0.0076 -0.1128
  340loPI   PO4 5428  11.424   3.259   9.475 -0.4303  0.1379 -0.0166
  340loPI   GL1 5429  11.280   3.311   9.071 -0.0922  0.0646  0.0333
  340loPI   GL2 5430  11.476   3.140   8.949  0.1078 -0.1954  0.2554
  340loPI   C1A 5431  11.313   3.607   8.712  0.1874  0.0831  0.0561
  340loPI   C2A 5432  11.411   3.449   8.334 -0.1684 -0.3849 -0.3119
  340loPI   C3A 5433  11.599   3.396   7.957  0.3551  0.0397 -0.1131
  340loPI   C4A 5434  11.448   3.376   7.574 -0.1963 -0.2349 -0.2076
  340loPI   C5A 5435  11.282   3.412   7.176 -0.1921  0.3989 -0.0031
  340loPI   C6A 5436  11.142   3.245   6.874  0.0678 -0.0117  0.2253
  340loPI   C1B 5437  11.197   3.115   8.617 -0.0994  0.2828  0.0532
  340loPI   C2B 5438  11.189   2.916   8.182  0.1042 -0.1441  0.1186
  340loPI   C3B 5439  10.923   2.705   7.878 -0.0236 -0.2440  0.0343
  340loPI   C4B 5440  10.748   2.839   7.489 -0.0222 -0.0523 -0.0189
  341loPI    C1 5441  12.748  16.122   9.959 -0.1659 -0.0278  0.0328
  341loPI    C2 5442  12.506  16.138  10.278 -0.1013 -0.0432  0.0829
  341loPI    C3 5443  12.748  16.446  10.194  0.1320 -0.1780  0.2471
  341loPI   PO4 5444  12.614  16.008   9.735  0.0720 -0.0966  0.1914
  341loPI   GL1 5445  12.539  16.059   9.324  0.0984  0.3336 -0.1492
  341loPI   GL2 5446  12.321  16.001   9.178 -0.0060  0.2861 -0.0892
  341loPI   C1A 5447  12.795  15.927   8.961 -0.0049  0.2165 -0.1003
  341loPI   C2A 5448  12.771  15.963   8.582 -0.1548  0.1519  0.1050
  341loPI   C3A 5449  12.631  15.871   8.117  0.0265  0.0851 -0.1228
  341loPI   C4A 5450  12.609  15.917   7.744 -0.0248  0.1003 -0.1190
  341loPI   C5A 5451  12.517  15.863   7.253  0.0563  0.1526 -0.2706
  341loPI   C6A 5452  12.282  15.922   6.989  0.0995  0.1844 -0.0445
  341loPI   C1B 5453  12.246  15.883   8.800  0.0388  0.0950 -0.0269
  341loPI   C2B 5454  12.247  15.919   8.405 -0.1507  0.0482  0.2984
  341loPI   C3B 5455  12.087  15.879   7.980  0.4124 -0.0116 -0.1091
  341loPI   C4B 5456  12.053  15.906   7.506 -0.1509 -0.0438 -0.1399
  342loPI    C1 5457  13.691   4.627   9.940  0.3208 -0.1599 -0.0275
  342loPI    C2 5458  13.804   4.363  10.219  0.3953 -0.3835 -0.2647
  342loPI    C3 5459  14.070   4.622  10.069  0.3362 -0.2094 -0.0747
  342loPI   PO4 5460  13.554   4.560   9.799  0.0177 -0.3335 -0.1643
  342loPI   GL1 5461  13.593   4.733   9.412 -0.1074 -0.1821  0.0986
  342loPI   GL2 5462  13.606   4.328   9.335 -0.1951 -0.0717 -0.1547
  342loPI   C1A 5463  13.391   4.618   8.996  0.2558 -0.2075  0.0535
  342loPI   C2A 5464  13.241   4.414   8.623 -0.1978  0.2836 -0.0137
  342loPI   C3A 5465  13.405   4.440   8.216 -0.2941 -0.2838 -0.3419
  342loPI   C4A 5466  13.442   4.807   7.839  0.0996  0.0433 -0.1414
  342loPI   C5A 5467  13.284   4.660   7.463 -0.1419 -0.4170  0.0954
  342loPI   C6A 5468  13.290   4.239   7.241 -0.1221 -0.0326  0.0695
  342loPI   C1B 5469  13.860   4.490   9.021 -0.0086 -0.0224 -0.1191
  342loPI   C2B 5470  13.803   4.616   8.689  0.4609 -0.0702 -0.1633
  342loPI   C3B 5471  13.736   4.768   8.319  0.0459  0.0398 -0.1782
  342loPI   C4B 5472  13.541   5.016   8.255 -0.2108  0.0578  0.1240
  343loPI    C1 5473   2.797   0.718   9.769 -0.0699  0.0105  0.0329
  343loPI    C2 5474   2.888   0.418  10.017  0.1542  0.2022  0.1881
  343loPI    C3 5475   2.573   0.653  10.094  0.0812  0.1146  0.1595
  343loPI   PO4 5476   2.823   0.571   9.557 -0.0634  0.0654  0.3139
  343loPI   GL1 5477   2.900   0.566   9.250  0.1990 -0.1386  0.0934
  343loPI   GL2 5478   2.966   0.920   9.171 -0.2593 -0.1152 -0.0057
  343loPI   C1A 5479   2.862   0.475   8.876 -0.0378 -0.1070 -0.0236
  343loPI   C2A 5480   2.943   0.609   8.465 -0.0412  0.1409 -0.0600
  343loPI   C3A 5481   2.960   0.642   7.992 -0.0956 -0.4420 -0.1183
  343loPI   C4A 5482   2.986   0.544   7.609 -0.1724  0.3453  0.3794
  343loPI   C5A 5483   3.175   0.671   7.269  0.1774 -0.0302  0.0624
  343loPI   C6A 5484   2.916   0.794   6.915  0.3153 -0.3104 -0.0822
  343loPI   C1B 5485   3.072   1.040   8.798 -0.0632  0.2672 -0.1393
  343loPI   C2B 5486   2.987   1.170   8.528 -0.0989  0.0469  0.1499
  343loPI   C3B 5487   2.926   1.345   8.101  0.1071  0.0576  0.2732
  343loPI   C4B 5488   2.798   1.547   7.734 -0.1085  0.1470  0.4450
  344loPI    C1 5489  11.571  13.638  10.118  0.2081 -0.1873 -0.0777
  344loPI    C2 5490  11.901  13.649  10.344  0.1233  0.0696  0.0378
  344loPI    C3 5491  11.552  13.775  10.493  0.0100 -0.0207 -0.1466
  344loPI   PO4 5492  11.473  13.764   9.807 -0.1040  0.3187 -0.3337
  344loPI   GL1 5493  11.576  14.045   9.477  0.2389  0.2672 -0.0036
  344loPI   GL2 5494  11.761  13.907   9.344  0.4088 -0.0314 -0.1485
  344loPI   C1A 5495  11.363  13.700   9.137  0.1704 -0.3906  0.2972
  344loPI   C2A 5496  11.105  13.822   8.714 -0.2696 -0.2459 -0.0645
  344loPI   C3A 5497  11.187  13.920   8.271 -0.2764 -0.0767  0.1509
  344loPI   C4A 5498  11.110  14.068   7.764 -0.1112 -0.1112 -0.0468
  344loPI   C5A 5499  11.178  13.994   7.295  0.1311  0.1510 -0.3608
  344loPI   C6A 5500  11.181  13.615   7.001  0.0887  0.0137 -0.3782
  344loPI   C1B 5501  11.725  13.972   8.945 -0.0904  0.0452  0.1032
  344loPI   C2B 5502  11.640  13.859   8.491  0.0645  0.2592 -0.0263
  344loPI   C3B 5503  11.661  14.050   8.019  0.1819 -0.5397 -0.2578
  344loPI   C4B 5504  11.875  14.122   7.707  0.1912 -0.0181  0.0124
  345loPI    C1 5505  12.758   0.774   9.514 -0.0521 -0.1318  0.0858
  345loPI    C2 5506  12.842   0.877   9.891  0.0684 -0.0936  0.0487
  345loPI    C3 5507  13.100   0.654   9.682 -0.0604 -0.2304  0.0336
  345loPI   PO4 5508  12.583   0.585   9.456  0.4734  0.0946  0.2081
  345loPI   GL1 5509  12.280   0.473   9.135  0.0141  0.0533  0.4348
  345loPI   GL2 5510  12.415   0.502   8.944 -0.0284 -0.1503  0.0614
  345loPI   C1A 5511  12.046   0.331   8.755  0.1165 -0.1474  0.2038
  345loPI   C2A 5512  11.969   0.308   8.392  0.2925 -0.0208  0.1660
  345loPI   C3A 5513  12.067   0.226   8.040  0.3104  0.1744 -0.0029
  345loPI   C4A 5514  12.120   0.481   7.814  0.2092 -0.0873  0.4512
  345loPI   C5A 5515  11.968   0.570   7.396  0.0474 -0.1133 -0.0400
  345loPI   C6A 5516  11.509   0.741   7.217 -0.0095  0.0861 -0.2523
  345loPI   C1B 5517  12.661   0.482   8.620  0.0434  0.2650 -0.2266
  345loPI   C2B 5518  12.511   0.338   8.265 -0.0327 -0.3572  0.0055
  345loPI   C3B 5519  12.517   0.197   7.729 -0.0438  0.1515 -0.2403
  345loPI   C4B 5520  12.536   0.202   7.298  0.0099  0.0147 -0.2989
  346loPI    C1 5521   7.110  15.885   9.766  0.0260 -0.1067 -0.0000
  346loPI    C2 5522   7.333  16.217   9.760 -0.0343 -0.0636  0.1122
  346loPI    C3 5523   7.092  16.143  10.071 -0.2147 -0.0844 -0.0304
  346loPI   PO4 5524   7.178  15.760   9.425  0.1852  0.1378 -0.1576
  346loPI   GL1 5525   7.515  15.645   9.214  0.1614 -0.1410  0.0441
  346loPI   GL2 5526   7.400  15.276   9.121  0.1757 -0.3053  0.1099
  346loPI   C1A 5527   7.443  15.699   8.771 -0.2037  0.0062  0.0141
  346loPI   C2A 5528   7.089  15.639   8.383 -0.2940 -0.1403 -0.0162
  346loPI   C3A 5529   6.980  15.376   8.162  0.2618  0.4174  0.0478
  346loPI   C4A 5530   6.992  15.228   7.749  0.1887  0.1956  0.1460
  346loPI   C5A 5531   7.231  15.169   7.466 -0.0147 -0.1142  0.0947
  346loPI   C6A 5532   7.395  15.352   7.225 -0.0121  0.1853  0.1991
  346loPI   C1B 5533   7.712  15.207   8.687 -0.3371  0.3566  0.2178
  346loPI   C2B 5534   7.664  15.477   8.379 -0.3807 -0.2190 -0.0089
  346loPI   C3B 5535   7.516  15.813   8.227  0.0932  0.2188  0.2390
  346loPI   C4B 5536   7.329  16.121   8.099 -0.3245  0.1563 -0.0885
  347loPI    C1 5537  17.632   7.752   9.855 -0.1111 -0.0020 -0.1017
  347loPI    C2 5538  17.596   8.008  10.161  0.0027 -0.1634  0.0491
  347loPI    C3 5539  17.509   7.621  10.213  0.0520 -0.1973 -0.1152
  347loPI   PO4 5540  17.569   7.925   9.665  0.2061 -0.1834  0.0018
  347loPI   GL1 5541  17.573   7.982   9.239  0.0645  0.3818 -0.1807
  347loPI   GL2 5542  17.692   7.764   9.121  0.1934  0.3401 -0.1047
  347loPI   C1A 5543  17.616   8.203   8.852 -0.3805  0.1136  0.1758
  347loPI   C2A 5544  17.505   8.582   8.552  0.2826 -0.0795 -0.1938
  347loPI   C3A 5545  17.664   9.013   8.638 -0.2091 -0.3905  0.1972
  347loPI   C4A 5546  17.897   9.232   8.374 -0.3078  0.1414 -0.2066
  347loPI   C5A 5547  18.218   9.135   7.993 -0.4275  0.3507  0.1783
  347loPI   C6A 5548  18.539   9.518   7.805 -0.2024  0.0921  0.2030
  347loPI   C1B 5549  17.417   7.753   8.729 -0.0848 -0.2520 -0.2260
  347loPI   C2B 5550  17.209   7.660   8.326  0.0107 -0.0180  0.4186
  347loPI   C3B 5551  17.066   7.618   7.944  0.0680 -0.3915  0.2449
  347loPI   C4B 5552  16.963   7.512   7.571  0.2523 -0.5463  0.1093
  348loPI    C1 5553  12.603  17.968   9.568  0.0866  0.2340 -0.1131
  348loPI    C2 5554  12.582  18.315   9.765  0.0475  0.1563  0.0207
  348loPI    C3 5555  12.847  18.036   9.877 -0.3099 -0.0866  0.2852
  348loPI   PO4 5556  12.438  17.983   9.385 -0.0788 -0.0484  0.3697
  348loPI   GL1 5557  12.417  17.930   8.905  0.0585  0.1254  0.1224
  348loPI   GL2 5558  12.556  17.897   8.634 -0.3535 -0.0873  0.1367
  348loPI   C1A 5559  12.088  17.805   8.583  0.1142 -0.0321 -0.0750
  348loPI   C2A 5560  12.030  17.777   8.131 -0.2012  0.2113 -0.0347
  348loPI   C3A 5561  12.053  17.736   7.779 -0.2610  0.1158  0.1231
  348loPI   C4A 5562  11.908  17.541   7.425  0.0551  0.1311  0.3325
  348loPI   C5A 5563  12.000  17.594   7.035 -0.0656 -0.0426  0.3878
  348loPI   C6A 5564  11.901  17.825   6.744 -0.0134 -0.2447  0.4081
  348loPI   C1B 5565  12.598  17.911   8.249 -0.1420 -0.1468  0.3674
  348loPI   C2B 5566  12.623  17.767   7.899  0.1025  0.1049 -0.3563
  348loPI   C3B 5567  12.890  17.970   7.720  0.1100  0.2319  0.0525
  348loPI   C4B 5568  12.942  18.193   7.298  0.5172  0.0525 -0.2752
  349loPI    C1 5569  13.518  13.795   9.472 -0.1271 -0.0293  0.0665
  349loPI    C2 5570  13.689  13.509   9.693  0.0975  0.0939  0.0554
  349loPI    C3 5571  13.609  13.866   9.855  0.1742  0.1527 -0.0348
  349loPI   PO4 5572  13.629  13.854   9.182 -0.1577 -0.0750 -0.1782
  349loPI   GL1 5573  13.658  13.762   8.820  0.3298 -0.2218 -0.3726
  349loPI   GL2 5574  13.385  13.523   8.888  0.1329  0.0403 -0.0167
  349loPI   C1A 5575  13.520  13.762   8.373 -0.0477  0.2119 -0.0657
  349loPI   C2A 5576  13.567  13.753   7.988 -0.0690  0.1461 -0.1168
  349loPI   C3A 5577  13.383  13.682   7.576 -0.1137 -0.0057 -0.1322
  349loPI   C4A 5578  13.313  13.887   7.127 -0.1498 -0.1416 -0.1744
  349loPI   C5A 5579  13.231  14.082   6.729  0.0625 -0.0896 -0.2155
  349loPI   C6A 5580  13.250  14.281   6.340 -0.1615 -0.1179  0.0698
  349loPI   C1B 5581  13.043  13.666   8.568  0.1041 -0.2521  0.0471
  349loPI   C2B 5582  13.005  13.643   8.067  0.1782  0.1554 -0.0137
  349loPI   C3B 5583  12.881  13.328   7.826  0.1976  0.1796  0.1565
  349loPI   C4B 5584  12.825  12.956   7.599 -0.0272  0.0928 -0.2164
  350loPI    C1 5585  18.161  18.349   9.870 -0.1385  0.0737  0.1253
  350loPI    C2 5586  17.994  18.643  10.084  0.2878  0.2422  0.2380
  350loPI    C3 5587  18.289  18.423  10.241  0.1982 -0.0306  0.0336
  350loPI   PO4 5588  18.070  18.474   9.611  0.2492  0.0784  0.0793
  350loPI   GL1 5589  18.133  18.395   9.158  0.0015 -0.2465  0.2411
  350loPI   GL2 5590  17.910  18.508   8.965  0.1688  0.2292 -0.2158
  350loPI   C1A 5591  18.326  18.565   8.749  0.0223 -0.1270  0.1723
  350loPI   C2A 5592  18.319  18.880   8.422  0.0914  0.0486 -0.3308
  350loPI   C3A 5593  18.391  19.085   7.989  0.2360  0.1947 -0.0675
  350loPI   C4A 5594  18.727  19.049   7.690  0.1071  0.1815  0.3745
  350loPI   C5A 5595  18.914  19.207   7.364  0.4106 -0.0869  0.0516
  350loPI   C6A 5596  18.748  19.363   6.960  0.2262 -0.0695 -0.2699
  350loPI   C1B 5597  18.000  18.116   8.732 -0.0506  0.3243  0.3470
  350loPI   C2B 5598  18.292  18.043   8.430  0.1554  0.0748  0.0963
  350loPI   C3B 5599  18.333  18.009   7.996 -0.1473  0.0585 -0.1831
  350loPI   C4B 5600  18.375  18.174   7.670  0.0742  0.0690 -0.1121
  351loPI    C1 5601  18.949   3.053  10.243 -0.0717 -0.2327  0.1704
  351loPI    C2 5602  18.701   2.745  10.182 -0.2616 -0.0372 -0.0693
  351loPI    C3 5603  18.553   3.111  10.246 -0.0347  0.0499 -0.0320
  351loPI   PO4 5604  19.194   3.114   9.979 -0.0711  0.2689 -0.0074
  351loPI   GL1 5605  19.265   3.313   9.620 -0.1589 -0.0926  0.4543
  351loPI   GL2 5606  19.068   3.516   9.502 -0.0865 -0.1067  0.3916
  351loPI   C1A 5607  19.475   3.336   9.255  0.0296 -0.1875  0.0799
  351loPI   C2A 5608  19.480   3.541   8.776 -0.1217  0.0177 -0.0943
  351loPI   C3A 5609  19.424   3.660   8.288  0.0438 -0.0690 -0.1427
  351loPI   C4A 5610  19.588   3.879   7.909  0.0790  0.1247 -0.1443
  351loPI   C5A 5611  19.626   4.177   7.589  0.0610 -0.2337  0.0282
  351loPI   C6A 5612  19.586   4.211   7.162  0.2638  0.0338  0.1102
  351loPI   C1B 5613  19.002   3.849   9.088 -0.2508  0.2578 -0.1099
  351loPI   C2B 5614  19.097   3.981   8.651 -0.0807  0.0497 -0.2693
  351loPI   C3B 5615  19.216   4.132   8.297 -0.0949  0.2335  0.0906
  351loPI   C4B 5616  19.082   4.122   7.898 -0.1620 -0.1844 -0.2811
  352loPI    C1 5617   0.873  14.489  10.063 -0.0601  0.1380 -0.1729
  352loPI    C2 5618   0.759  14.752  10.343 -0.0373  0.1582 -0.1827
  352loPI    C3 5619   0.509  14.462  10.228  0.0407  0.0035  0.0314
  352loPI   PO4 5620   1.198  14.494  10.011 -0.0385  0.2937 -0.1098
  352loPI   GL1 5621   1.424  14.538   9.563  0.2330  0.0722 -0.1669
  352loPI   GL2 5622   1.279  14.872   9.388  0.3638 -0.0403  0.0143
  352loPI   C1A 5623   1.366  14.311   9.062 -0.0899  0.0586 -0.1999
  352loPI   C2A 5624   1.320  14.098   8.756  0.0741 -0.0136  0.0098
  352loPI   C3A 5625   1.190  13.900   8.357 -0.3266  0.0377  0.1173
  352loPI   C4A 5626   1.375  13.610   8.079 -0.2613 -0.2887  0.2830
  352loPI   C5A 5627   1.474  13.518   7.678  0.1080  0.2914  0.1476
  352loPI   C6A 5628   1.330  13.150   7.517  0.1015 -0.0668  0.0147
  352loPI   C1B 5629   1.133  14.747   9.025 -0.5254 -0.3932  0.2268
  352loPI   C2B 5630   1.092  14.601   8.647  0.0254 -0.0201 -0.1581
  352loPI   C3B 5631   1.216  14.464   8.290 -0.0812  0.2038  0.2884
  352loPI   C4B 5632   1.404  14.088   7.960 -0.0407  0.2119  0.0552
  353loPI    C1 5633   5.134  18.487   9.831  0.0307 -0.1625  0.2627
  353loPI    C2 5634   5.347  18.348  10.140  0.0039  0.0032  0.3567
  353loPI    C3 5635   5.532  18.529   9.835  0.0239 -0.1014  0.3063
  353loPI   PO4 5636   4.942  18.381   9.698 -0.0512 -0.2541  0.0442
  353loPI   GL1 5637   4.984  18.282   9.192  0.3558  0.0409 -0.2069
  353loPI   GL2 5638   5.063  18.573   9.152 -0.0065 -0.2285  0.1934
  353loPI   C1A 5639   4.947  17.963   8.915 -0.0401 -0.1168 -0.0587
  353loPI   C2A 5640   4.877  17.701   8.494  0.1442  0.0769  0.0815
  353loPI   C3A 5641   4.860  17.582   8.019  0.0295  0.3735 -0.1070
  353loPI   C4A 5642   5.009  17.392   7.548  0.3755 -0.1025 -0.0242
  353loPI   C5A 5643   5.294  17.498   7.248 -0.1756  0.0148 -0.2269
  353loPI   C6A 5644   5.411  17.840   6.901 -0.0309 -0.1469 -0.3158
  353loPI   C1B 5645   5.046  18.371   8.715  0.1077 -0.1528 -0.1172
  353loPI   C2B 5646   5.104  18.241   8.279  0.0240 -0.2055  0.0443
  353loPI   C3B 5647   4.940  18.056   7.929  0.1533 -0.0175  0.3827
  353loPI   C4B 5648   4.744  17.886   7.463 -0.3230  0.0547  0.2826
  354loPI    C1 5649   1.549   7.164  10.915 -0.1174 -0.1010  0.0067
  354loPI    C2 5650   1.768   7.075  11.237 -0.1727 -0.1343  0.0353
  354loPI    C3 5651   1.592   7.433  11.209  0.0968 -0.0097 -0.1058
  354loPI   PO4 5652   1.710   7.031  10.695  0.2021 -0.2901 -0.2769
  354loPI   GL1 5653   1.830   6.891  10.314  0.1370 -0.4038  0.4687
  354loPI   GL2 5654   1.902   7.309  10.291 -0.1112 -0.1251 -0.0900
  354loPI   C1A 5655   2.054   6.827   9.841 -0.5364  0.0622  0.0454
  354loPI   C2A 5656   2.171   7.082   9.446  0.3393 -0.0830 -0.0106
  354loPI   C3A 5657   2.045   7.258   9.121 -0.0465  0.1891 -0.0242
  354loPI   C4A 5658   1.743   7.157   8.789  0.1609 -0.1370  0.1049
  354loPI   C5A 5659   1.655   7.214   8.238 -0.2988 -0.1531 -0.1472
  354loPI   C6A 5660   1.254   7.348   7.993  0.1378 -0.3123 -0.2174
  354loPI   C1B 5661   1.985   7.355   9.819 -0.1537 -0.1115 -0.1211
  354loPI   C2B 5662   2.069   7.740   9.450  0.5678  0.2501  0.2650
  354loPI   C3B 5663   2.084   7.754   8.963 -0.2657 -0.1134 -0.2067
  354loPI   C4B 5664   1.955   7.576   8.601 -0.1034 -0.3313 -0.1802
  355loPI    C1 5665   0.655  13.061  10.101 -0.0245  0.0486  0.0281
  355loPI    C2 5666   0.308  12.897   9.989 -0.0979  0.1691  0.0760
  355loPI    C3 5667   0.314  13.268  10.137  0.0578  0.1843  0.0328
  355loPI   PO4 5668   0.851  12.914   9.895 -0.0798 -0.1068 -0.2190
  355loPI   GL1 5669   0.739  12.782   9.544 -0.0910  0.1641 -0.0920
  355loPI   GL2 5670   0.436  12.596   9.503  0.1151  0.1277  0.1086
  355loPI   C1A 5671   0.837  12.368   9.286 -0.0859 -0.0325  0.0408
  355loPI   C2A 5672   0.812  12.349   8.870 -0.3041  0.2091 -0.1334
  355loPI   C3A 5673   0.881  12.588   8.400 -0.1925  0.2324 -0.0794
  355loPI   C4A 5674   1.164  12.497   8.152 -0.0281 -0.0139 -0.1033
  355loPI   C5A 5675   1.623  12.269   8.088 -0.6315  0.5309  0.0535
  355loPI   C6A 5676   1.652  11.949   8.433  0.1575  0.2843  0.2650
  355loPI   C1B 5677   0.607  12.746   9.122  0.3346  0.1677  0.1221
  355loPI   C2B 5678   0.442  12.689   8.789 -0.0849 -0.1904 -0.2211
  355loPI   C3B 5679   0.358  12.668   8.361  0.0137  0.0769  0.2833
  355loPI   C4B 5680   0.378  12.721   7.940 -0.1808  0.1283  0.0687
  356loPI    C1 5681  19.377   9.858  10.315  0.3884  0.0883  0.0513
  356loPI    C2 5682  19.534  10.195  10.462  0.1162  0.3166 -0.1712
  356loPI    C3 5683  19.244  10.006  10.662  0.3061  0.1814 -0.0195
  356loPI   PO4 5684  19.399   9.923   9.996  0.1808 -0.0780 -0.2084
  356loPI   GL1 5685  19.253   9.847   9.581 -0.0096  0.3126  0.1113
  356loPI   GL2 5686  19.082   9.594   9.610 -0.0887  0.1074  0.1126
  356loPI   C1A 5687  19.402   9.933   9.200  0.0049 -0.1314 -0.3926
  356loPI   C2A 5688  19.407   9.868   8.717 -0.1355 -0.2008 -0.1948
  356loPI   C3A 5689  19.438   9.707   8.362 -0.0744 -0.2000  0.2451
  356loPI   C4A 5690  19.165   9.687   7.932  0.0081 -0.0721 -0.0685
  356loPI   C5A 5691  19.315   9.780   7.479  0.0228  0.1476 -0.5843
  356loPI   C6A 5692  19.383  10.268   7.304  0.1295 -0.1849 -0.2971
  356loPI   C1B 5693  19.609   9.574   9.423  0.2415 -0.1988 -0.1400
  356loPI   C2B 5694  19.982   9.346   9.547 -0.2929 -0.1959 -0.1492
  356loPI   C3B 5695  20.341   9.239   9.354  0.0004 -0.2605  0.0866
  356loPI   C4B 5696  20.518   9.036   9.013  0.0874 -0.0718  0.0584
  357loPI    C1 5697   9.616  10.528   9.745  0.2715 -0.0919  0.0097
  357loPI    C2 5698   9.475  10.170   9.636  0.0704 -0.0510  0.1291
  357loPI    C3 5699   9.750  10.197   9.925  0.0022 -0.1018  0.1992
  357loPI   PO4 5700   9.424  10.696   9.556  0.0787  0.0956  0.0865
  357loPI   GL1 5701   9.426  10.765   9.031 -0.1199 -0.0840 -0.0126
  357loPI   GL2 5702   9.813  10.707   9.211 -0.0348  0.1753  0.1342
  357loPI   C1A 5703   9.032  10.751   8.889 -0.3819  0.3503 -0.1690
  357loPI   C2A 5704   8.776  10.591   8.565 -0.0160 -0.0545 -0.2700
  357loPI   C3A 5705   8.721  10.646   8.176  0.0992  0.0711 -0.2989
  357loPI   C4A 5706   8.498  10.603   7.806 -0.0148  0.1733  0.1564
  357loPI   C5A 5707   8.251  10.930   7.631 -0.0929 -0.0211  0.0742
  357loPI   C6A 5708   7.959  11.299   7.471  0.0171 -0.0856  0.1210
  357loPI   C1B 5709   9.911  10.603   8.729 -0.0532 -0.3383  0.0395
  357loPI   C2B 5710   9.755  10.736   8.379  0.2245 -0.0325  0.2287
  357loPI   C3B 5711   9.647  10.744   7.919 -0.2346 -0.0778 -0.2802
  357loPI   C4B 5712   9.433  10.853   7.542 -0.3663  0.0852  0.1380
  358loPI    C1 5713  16.020   2.405   9.311  0.1061 -0.0811 -0.1142
  358loPI    C2 5714  16.315   2.549   9.540 -0.0111  0.0668 -0.0546
  358loPI    C3 5715  16.293   2.156   9.466  0.1976  0.0541 -0.0568
  358loPI   PO4 5716  16.086   2.437   9.033 -0.1236 -0.0476 -0.1477
  358loPI   GL1 5717  15.864   2.422   8.575 -0.0841  0.1242 -0.1037
  358loPI   GL2 5718  15.534   2.508   8.493 -0.1561 -0.1418 -0.3214
  358loPI   C1A 5719  15.942   2.553   8.219 -0.3480 -0.1363  0.2128
  358loPI   C2A 5720  16.023   2.494   7.863  0.1445  0.2111  0.1929
  358loPI   C3A 5721  15.826   2.414   7.379  0.2315 -0.2142  0.0742
  358loPI   C4A 5722  15.826   2.196   6.996 -0.2130 -0.0437 -0.0230
  358loPI   C5A 5723  16.206   2.249   6.776  0.2124 -0.3869 -0.0685
  358loPI   C6A 5724  16.678   2.044   6.828 -0.6364  0.2503  0.0721
  358loPI   C1B 5725  15.450   2.532   8.012  0.0981  0.0268  0.1134
  358loPI   C2B 5726  15.387   2.691   7.536  0.0302  0.0635  0.2817
  358loPI   C3B 5727  15.595   2.791   7.195 -0.2986  0.1170  0.1826
  358loPI   C4B 5728  15.970   2.722   6.934 -0.1108  0.0371 -0.0527
  359loPI    C1 5729   0.624  18.784  10.023 -0.1614 -0.2029 -0.0502
  359loPI    C2 5730   0.247  18.710  10.135 -0.2119  0.2211  0.0788
  359loPI    C3 5731   0.514  18.840  10.404  0.0831 -0.2616  0.0308
  359loPI   PO4 5732   0.584  18.934   9.713 -0.0319  0.3618 -0.1236
  359loPI   GL1 5733   0.546  18.745   9.313 -0.4104 -0.2193 -0.1866
  359loPI   GL2 5734   0.641  18.538   9.335  0.0982  0.2263 -0.0360
  359loPI   C1A 5735   0.749  18.962   9.001  0.1366 -0.0639  0.1362
  359loPI   C2A 5736   0.945  19.075   8.588  0.0993  0.0505 -0.1979
  359loPI   C3A 5737   0.996  19.409   8.203 -0.2147  0.0225  0.0350
  359loPI   C4A 5738   0.969  19.674   7.875 -0.1890 -0.2239 -0.1737
  359loPI   C5A 5739   0.932  19.862   7.447 -0.1814 -0.0150 -0.0255
  359loPI   C6A 5740   0.630  19.937   7.160 -0.2110  0.2434  0.1038
  359loPI   C1B 5741   0.581  18.527   8.836 -0.0604 -0.0786 -0.2441
  359loPI   C2B 5742   0.605  18.650   8.527  0.0418 -0.1858  0.1347
  359loPI   C3B 5743   0.823  18.769   8.225  0.2442  0.0490  0.0660
  359loPI   C4B 5744   1.093  18.589   7.920  0.0473  0.2776  0.1393
  360loPI    C1 5745  10.261   9.755   9.520 -0.1535 -0.0435 -0.0123
  360loPI    C2 5746  10.550   9.805   9.793 -0.1756  0.0259 -0.0013
  360loPI    C3 5747  10.166   9.792   9.907 -0.1851  0.0572 -0.0293
  360loPI   PO4 5748  10.343   9.663   9.259 -0.2138  0.0538 -0.0667
  360loPI   GL1 5749  10.496   9.567   8.899 -0.1723  0.0750 -0.1151
  360loPI   GL2 5750  10.639   9.344   8.667 -0.1887 -0.2901  0.1223
  360loPI   C1A 5751  10.079   9.560   8.687  0.1727 -0.2560 -0.1053
  360loPI   C2A 5752   9.969   9.754   8.273  0.0421 -0.2342  0.3694
  360loPI   C3A 5753   9.838   9.839   7.832 -0.0622  0.2898 -0.0265
  360loPI   C4A 5754   9.487   9.815   7.573  0.1291 -0.0039 -0.0999
  360loPI   C5A 5755   9.255   9.557   7.367 -0.0552  0.0496  0.2788
  360loPI   C6A 5756   9.088   9.337   6.994 -0.2101  0.3250 -0.0954
  360loPI   C1B 5757  10.451   9.521   8.361 -0.3412  0.1367 -0.4643
  360loPI   C2B 5758  10.407   9.593   7.954  0.1305  0.0655  0.3123
  360loPI   C3B 5759  10.235   9.475   7.575 -0.2241 -0.2648  0.0918
  360loPI   C4B 5760  10.125   9.882   7.365  0.0281  0.1645  0.0729
  361loPI    C1 5761   4.734  10.521  10.543 -0.2062  0.0311  0.1945
  361loPI    C2 5762   4.581  10.175  10.674  0.3919 -0.2818  0.1061
  361loPI    C3 5763   4.879  10.351  10.875  0.2548  0.0619  0.0171
  361loPI   PO4 5764   4.596  10.532  10.210  0.1767 -0.1952 -0.1391
  361loPI   GL1 5765   4.565  10.844   9.872 -0.0865  0.2946  0.0588
  361loPI   GL2 5766   4.766  11.084   9.872  0.4437  0.1200  0.1870
  361loPI   C1A 5767   4.515  10.616   9.440  0.2727  0.0703  0.3537
  361loPI   C2A 5768   4.702  10.470   8.950 -0.1102 -0.1055  0.0673
  361loPI   C3A 5769   4.863  10.823   8.703  0.3243 -0.0502  0.1175
  361loPI   C4A 5770   4.914  10.962   8.235  0.1078  0.1582  0.1840
  361loPI   C5A 5771   5.111  10.759   7.836  0.1421  0.1116 -0.2291
  361loPI   C6A 5772   5.149  10.408   7.427  0.1346 -0.2227 -0.1392
  361loPI   C1B 5773   4.977  10.972   9.536 -0.1934  0.1930 -0.0447
  361loPI   C2B 5774   5.144  11.052   9.077 -0.2556  0.1715  0.3064
  361loPI   C3B 5775   5.332  11.042   8.631 -0.1290  0.1736  0.3996
  361loPI   C4B 5776   5.440  11.029   8.157 -0.3397  0.1262  0.0140
  362loPI    C1 5777   9.708  16.251   9.428 -0.0169 -0.1555  0.1268
  362loPI    C2 5778   9.800  16.356   9.803  0.3602  0.0063 -0.0067
  362loPI    C3 5779   9.537  16.572   9.594  0.1694 -0.0686  0.1527
  362loPI   PO4 5780   9.861  16.140   9.246 -0.4063 -0.5421  0.2375
  362loPI   GL1 5781   9.987  16.250   8.944  0.2339 -0.1755  0.2164
  362loPI   GL2 5782  10.223  16.372   8.968 -0.0638 -0.0334  0.2247
  362loPI   C1A 5783  10.062  16.282   8.562  0.1773  0.0840 -0.0106
  362loPI   C2A 5784   9.841  16.303   8.298  0.1529  0.0911  0.1478
  362loPI   C3A 5785   9.654  16.377   7.970 -0.0409  0.2308  0.0690
  362loPI   C4A 5786   9.503  16.533   7.546  0.0938  0.0446 -0.0513
  362loPI   C5A 5787   9.134  16.463   7.291 -0.0086  0.3187 -0.0626
  362loPI   C6A 5788   8.664  16.549   7.054  0.0001  0.3653  0.0044
  362loPI   C1B 5789  10.499  16.148   8.753 -0.0225 -0.0380  0.2059
  362loPI   C2B 5790  10.436  16.058   8.341 -0.0370 -0.0967  0.1569
  362loPI   C3B 5791  10.250  16.196   7.998 -0.0338  0.6202 -0.3932
  362loPI   C4B 5792  10.089  16.366   7.721 -0.0250  0.0427 -0.3469
  363loPI    C1 5793  15.312   1.903   9.443  0.0902  0.1927  0.1619
  363loPI    C2 5794  15.044   2.194   9.501  0.0223  0.1614  0.0089
  363loPI    C3 5795  15.107   1.921   9.786 -0.2345  0.0678 -0.0207
  363loPI   PO4 5796  15.328   1.756   9.198 -0.1329 -0.1183  0.0072
  363loPI   GL1 5797  15.111   1.633   8.850 -0.1346 -0.0288  0.1196
  363loPI   GL2 5798  14.886   1.847   8.684 -0.1678  0.4071  0.2786
  363loPI   C1A 5799  15.264   1.612   8.410 -0.0074  0.0937 -0.0180
  363loPI   C2A 5800  15.295   1.527   7.919 -0.3338  0.1604  0.3445
  363loPI   C3A 5801  15.380   1.630   7.505  0.2832  0.0852 -0.3541
  363loPI   C4A 5802  15.396   1.486   7.140  0.3382  0.2081 -0.1062
  363loPI   C5A 5803  15.540   1.007   7.058 -0.2662 -0.1321  0.1685
  363loPI   C6A 5804  15.452   0.540   7.006 -0.1663  0.1480 -0.0084
  363loPI   C1B 5805  14.834   1.795   8.238 -0.1181 -0.0804 -0.2571
  363loPI   C2B 5806  14.676   1.434   8.092 -0.2438  0.0168 -0.1312
  363loPI   C3B 5807  14.518   1.481   7.662  0.3022 -0.2350  0.1278
  363loPI   C4B 5808  14.388   1.709   7.362  0.2145 -0.1795  0.0218
  364loPI    C1 5809   4.987  16.287   9.393  0.0668 -0.0387 -0.0959
  364loPI    C2 5810   5.107  16.523   9.693  0.1804 -0.1597 -0.0456
  364loPI    C3 5811   5.304  16.525   9.345  0.1768 -0.1742 -0.0477
  364loPI   PO4 5812   4.894  15.960   9.473 -0.2339 -0.2264 -0.2173
  364loPI   GL1 5813   5.023  15.726   9.102 -0.1973 -0.0606 -0.2093
  364loPI   GL2 5814   4.897  15.934   8.961  0.1400 -0.0519  0.2969
  364loPI   C1A 5815   5.174  15.571   8.785  0.1086 -0.0966  0.0205
  364loPI   C2A 5816   5.066  15.655   8.403 -0.0506 -0.2531 -0.1847
  364loPI   C3A 5817   5.191  15.390   8.035  0.1365 -0.0275  0.0490
  364loPI   C4A 5818   5.228  15.303   7.564  0.0355  0.1435 -0.2563
  364loPI   C5A 5819   5.247  15.563   7.096 -0.0859  0.3624 -0.1221
  364loPI   C6A 5820   5.291  15.295   6.672  0.2149 -0.5209 -0.0080
  364loPI   C1B 5821   4.728  15.935   8.611  0.0355 -0.0182  0.1425
  364loPI   C2B 5822   4.635  15.763   8.254 -0.0388 -0.2452  0.2070
  364loPI   C3B 5823   4.676  15.469   7.980 -0.0206  0.0872 -0.0069
  364loPI   C4B 5824   4.387  15.243   7.711  0.3632 -0.0762  0.0087
  365loPI    C1 5825  15.152   5.012   9.452  0.2150  0.0386  0.0318
  365loPI    C2 5826  15.382   5.217   9.708  0.1367  0.0802  0.0693
  365loPI    C3 5827  14.984   5.251   9.725  0.1313  0.0885 -0.0631
  365loPI   PO4 5828  15.268   5.126   9.238 -0.1369  0.2922  0.0989
  365loPI   GL1 5829  15.331   5.345   8.913  0.0317 -0.2716  0.1530
  365loPI   GL2 5830  15.329   5.651   8.919  0.2626 -0.0384  0.0689
  365loPI   C1A 5831  15.098   5.225   8.533 -0.2250 -0.1456  0.2079
  365loPI   C2A 5832  15.043   5.108   8.186  0.1822 -0.0356 -0.0325
  365loPI   C3A 5833  15.176   4.985   7.805  0.1141 -0.1355 -0.1525
  365loPI   C4A 5834  15.322   4.979   7.447 -0.0902 -0.1420  0.1197
  365loPI   C5A 5835  15.599   5.038   7.311 -0.0149 -0.0693  0.3793
  365loPI   C6A 5836  15.870   5.366   7.339 -0.0393 -0.4141  0.1482
  365loPI   C1B 5837  15.221   5.749   8.500 -0.1891  0.0087 -0.0523
  365loPI   C2B 5838  15.129   5.604   8.119 -0.0777 -0.1999  0.4280
  365loPI   C3B 5839  14.977   5.847   7.779 -0.0734 -0.1619  0.1113
  365loPI   C4B 5840  14.839   5.878   7.322 -0.2654 -0.0396 -0.1309
  366loPI    C1 5841   6.527   2.966  10.034 -0.2924 -0.0160 -0.0337
  366loPI    C2 5842   6.559   2.602  10.197  0.0911  0.0126 -0.0375
  366loPI    C3 5843   6.530   2.924  10.432  0.2063  0.0170 -0.0288
  366loPI   PO4 5844   6.675   2.951   9.835  0.0586 -0.2244  0.0670
  366loPI   GL1 5845   6.798   2.915   9.433  0.2231 -0.1741 -0.0515
  366loPI   GL2 5846   6.930   2.651   9.388 -0.1993  0.4632 -0.2685
  366loPI   C1A 5847   6.434   2.905   9.279 -0.3785  0.2147  0.0579
  366loPI   C2A 5848   6.318   2.713   9.010  0.1008  0.1086  0.0759
  366loPI   C3A 5849   6.360   2.627   8.537  0.0515  0.0556 -0.0112
  366loPI   C4A 5850   6.503   2.325   8.174  0.1052 -0.0237 -0.3356
  366loPI   C5A 5851   6.497   2.212   7.660  0.0233 -0.3542 -0.4012
  366loPI   C6A 5852   6.413   2.036   7.273  0.2971 -0.2605 -0.1447
  366loPI   C1B 5853   6.841   2.763   8.936  0.1838  0.0264 -0.0519
  366loPI   C2B 5854   6.904   3.052   8.578 -0.0475 -0.2056 -0.0077
  366loPI   C3B 5855   6.762   3.293   8.242 -0.0947  0.1951 -0.2659
  366loPI   C4B 5856   6.868   3.496   7.907 -0.1181  0.1060 -0.1585
  367loPI    C1 5857  12.888   9.811   9.797  0.1852 -0.1365 -0.0357
  367loPI    C2 5858  12.854   9.449   9.964 -0.0734 -0.1510 -0.1150
  367loPI    C3 5859  13.160   9.686  10.062  0.1509 -0.4270 -0.1332
  367loPI   PO4 5860  12.803   9.668   9.438  0.1480 -0.1038  0.2309
  367loPI   GL1 5861  12.835   9.621   9.058 -0.1292  0.1620  0.3066
  367loPI   GL2 5862  12.855   9.594   8.884 -0.0805  0.2451  0.0964
  367loPI   C1A 5863  12.883  10.056   8.810  0.0682 -0.2913  0.0691
  367loPI   C2A 5864  12.767  10.282   8.453 -0.1679  0.2487  0.0736
  367loPI   C3A 5865  12.873  10.389   8.079  0.1504  0.3536  0.0523
  367loPI   C4A 5866  12.973  10.527   7.622 -0.0961  0.1047  0.0550
  367loPI   C5A 5867  13.178  10.404   7.281  0.1309 -0.1522 -0.0917
  367loPI   C6A 5868  13.342  10.228   6.985  0.1109 -0.0914 -0.1344
  367loPI   C1B 5869  12.724   9.683   8.496 -0.3504 -0.0299 -0.1009
  367loPI   C2B 5870  12.760   9.901   8.161  0.1151  0.2087  0.0104
  367loPI   C3B 5871  12.896   9.903   7.693  0.2350 -0.0472 -0.1496
  367loPI   C4B 5872  13.039   9.926   7.287 -0.1140  0.1009 -0.2989
  368loPI    C1 5873   5.208  14.654   9.835  0.1071 -0.2664 -0.2078
  368loPI    C2 5874   4.992  14.779  10.148 -0.1720  0.0036 -0.5012
  368loPI    C3 5875   5.340  14.591  10.207 -0.0106  0.4269 -0.0349
  368loPI   PO4 5876   5.011  14.596   9.680 -0.0574 -0.1579 -0.0457
  368loPI   GL1 5877   4.987  14.358   9.366  0.1751  0.1887  0.1943
  368loPI   GL2 5878   4.645  14.199   9.563 -0.0548 -0.1562  0.2609
  368loPI   C1A 5879   5.061  14.144   8.969  0.0356  0.1835 -0.0701
  368loPI   C2A 5880   5.392  14.121   8.658 -0.0886  0.1063  0.0604
  368loPI   C3A 5881   5.510  14.134   8.264  0.1324  0.1784 -0.0991
  368loPI   C4A 5882   5.861  14.074   8.047 -0.3473  0.1355 -0.0692
  368loPI   C5A 5883   6.097  14.248   7.870  0.0672 -0.1294  0.3321
  368loPI   C6A 5884   6.504  14.216   7.831 -0.2230  0.0240 -0.4346
  368loPI   C1B 5885   4.494  14.097   9.203  0.0055 -0.0158  0.0264
  368loPI   C2B 5886   4.212  14.014   8.807 -0.0645  0.1354 -0.0870
  368loPI   C3B 5887   4.078  13.963   8.434  0.4212 -0.0350 -0.2401
  368loPI   C4B 5888   3.813  13.968   8.140  0.0558  0.2472  0.2934
  369loPI    C1 5889   0.053  14.518   9.630 -0.1344 -0.2853  0.1273
  369loPI    C2 5890  -0.286  14.459   9.834 -0.2351  0.3787  0.1755
  369loPI    C3 5891   0.041  14.589  10.024 -0.0322  0.0266  0.0769
  369loPI   PO4 5892  -0.148  14.674   9.395  0.2094  0.2555  0.4197
  369loPI   GL1 5893  -0.096  14.569   9.103  0.0212  0.1185  0.1380
  369loPI   GL2 5894   0.154  14.646   8.972 -0.1251  0.0131  0.3493
  369loPI   C1A 5895  -0.257  14.271   8.818 -0.0959 -0.0768 -0.1276
  369loPI   C2A 5896  -0.318  14.376   8.410  0.0850 -0.0807  0.0350
  369loPI   C3A 5897  -0.422  14.160   7.866  0.2323  0.1412  0.0121
  369loPI   C4A 5898  -0.807  14.127   7.549 -0.0862  0.1763 -0.0602
  369loPI   C5A 5899  -1.255  13.907   7.475  0.0677  0.1192 -0.1975
  369loPI   C6A 5900  -1.297  13.784   7.064  0.0542  0.1204  0.3097
  369loPI   C1B 5901   0.252  14.539   8.539 -0.2939 -0.2851  0.2460
  369loPI   C2B 5902   0.264  14.469   7.976  0.1927 -0.0149 -0.2716
  369loPI   C3B 5903   0.531  14.378   7.599  0.2845  0.5355  0.1559
  369loPI   C4B 5904   0.442  14.059   7.247 -0.1552  0.0965 -0.1513
  370loPI    C1 5905   4.095   9.565  10.248  0.0329 -0.2380  0.0764
  370loPI    C2 5906   3.821   9.780  10.444  0.0999  0.1416 -0.2354
  370loPI    C3 5907   4.179   9.716  10.609  0.0025  0.0785 -0.0458
  370loPI   PO4 5908   4.157   9.630   9.949 -0.1444 -0.0912  0.1296
  370loPI   GL1 5909   4.286   9.479   9.571  0.0098 -0.4276  0.2025
  370loPI   GL2 5910   3.840   9.472   9.561  0.0522  0.2006  0.1389
  370loPI   C1A 5911   4.538   9.366   9.266 -0.2979  0.1596 -0.0106
  370loPI   C2A 5912   4.444   9.310   8.830  0.4259  0.1027 -0.0398
  370loPI   C3A 5913   4.241   9.487   8.319 -0.1135  0.2157  0.0162
  370loPI   C4A 5914   4.208   9.744   7.967  0.3711  0.0113 -0.0753
  370loPI   C5A 5915   4.370   9.605   7.464 -0.1043 -0.1888 -0.2949
  370loPI   C6A 5916   4.885   9.528   7.318 -0.3520 -0.3462 -0.0464
  370loPI   C1B 5917   3.991   9.529   9.179  0.0053 -0.2993 -0.0758
  370loPI   C2B 5918   4.016   9.557   8.789  0.2144 -0.0640  0.0489
  370loPI   C3B 5919   3.808   9.765   8.364  0.1405  0.4544 -0.1749
  370loPI   C4B 5920   3.754  10.096   8.055 -0.1074 -0.2847  0.0176
  371loPI    C1 5921   0.745   7.471  10.529 -0.0770 -0.0464  0.1645
  371loPI    C2 5922   0.429   7.349  10.316 -0.0721 -0.0976  0.1862
  371loPI    C3 5923   0.376   7.571  10.645 -0.0652  0.2533 -0.0434
  371loPI   PO4 5924   0.845   7.693  10.313 -0.0301 -0.1916  0.2822
  371loPI   GL1 5925   1.342   7.877  10.050 -0.2705  0.0824 -0.2866
  371loPI   GL2 5926   1.092   7.795   9.903  0.3130 -0.0350  0.1281
  371loPI   C1A 5927   1.608   7.669   9.807 -0.0808 -0.1254 -0.2388
  371loPI   C2A 5928   1.616   7.377   9.454  0.1731 -0.1803 -0.1112
  371loPI   C3A 5929   1.424   7.120   9.163  0.0425 -0.0820 -0.0392
  371loPI   C4A 5930   1.211   7.164   8.767  0.0138  0.1170  0.0501
  371loPI   C5A 5931   1.265   7.065   8.418 -0.2128  0.1932 -0.5424
  371loPI   C6A 5932   1.422   6.820   8.047  0.3723  0.1990 -0.1442
  371loPI   C1B 5933   1.205   7.538   9.567  0.1393 -0.0288 -0.1247
  371loPI   C2B 5934   1.130   7.536   9.159 -0.0047  0.1402  0.2924
  371loPI   C3B 5935   0.991   7.614   8.780  0.4797 -0.0144  0.1065
  371loPI   C4B 5936   0.893   7.494   8.297  0.1430  0.0681  0.2455
  372loPI    C1 5937  16.947  13.408   9.526  0.1420 -0.1238  0.0695
  372loPI    C2 5938  17.127  13.679   9.292  0.2170 -0.2394 -0.0075
  372loPI    C3 5939  17.064  13.759   9.679  0.0284 -0.0183 -0.0811
  372loPI   PO4 5940  16.923  13.166   9.328  0.0437 -0.0216 -0.0559
  372loPI   GL1 5941  16.936  13.124   8.887 -0.0903 -0.0916 -0.0544
  372loPI   GL2 5942  17.232  13.089   8.881 -0.1468 -0.0225 -0.3308
  372loPI   C1A 5943  16.700  13.304   8.593  0.2014 -0.3513 -0.1115
  372loPI   C2A 5944  16.583  13.537   8.321 -0.0690  0.1693 -0.1817
  372loPI   C3A 5945  16.655  13.720   8.033  0.0278  0.0537 -0.0581
  372loPI   C4A 5946  16.823  13.602   7.694 -0.0773  0.1263  0.0287
  372loPI   C5A 5947  17.039  13.691   7.246 -0.3449  0.0591 -0.1582
  372loPI   C6A 5948  17.206  13.598   6.888 -0.0786 -0.1269  0.2364
  372loPI   C1B 5949  17.577  13.251   8.566  0.3106 -0.0174 -0.1088
  372loPI   C2B 5950  17.794  13.339   8.198 -0.2251  0.1001 -0.2378
  372loPI   C3B 5951  17.808  13.487   7.742  0.0398 -0.1846  0.4452
  372loPI   C4B 5952  17.629  13.809   7.388 -0.1895  0.4221 -0.0028
  373loPI    C1 5953  10.597   0.621   9.513 -0.4980  0.1453 -0.3482
  373loPI    C2 5954  10.482   0.915   9.758 -0.1341  0.0332 -0.0342
  373loPI    C3 5955  10.529   0.544   9.899  0.3401  0.0209 -0.2074
  373loPI   PO4 5956  10.720   0.692   9.267 -0.1328  0.0359 -0.1080
  373loPI   GL1 5957  10.804   0.854   8.770 -0.0082  0.1281 -0.0146
  373loPI   GL2 5958  11.050   0.952   8.722 -0.3212  0.2219  0.0646
  373loPI   C1A 5959  10.678   0.464   8.572 -0.0963 -0.0019 -0.0954
  373loPI   C2A 5960  10.655   0.242   8.310 -0.0619  0.2818  0.0969
  373loPI   C3A 5961  10.709   0.140   7.859  0.0228  0.2615  0.3205
  373loPI   C4A 5962  10.636  -0.001   7.436 -0.1578 -0.0594  0.1832
  373loPI   C5A 5963  10.753   0.106   7.027 -0.1993 -0.2162  0.1752
  373loPI   C6A 5964  10.669  -0.022   6.620  0.2705 -0.2635 -0.0001
  373loPI   C1B 5965  11.124   0.974   8.397  0.0753  0.2362  0.0465
  373loPI   C2B 5966  11.190   0.914   8.017 -0.3444 -0.3373 -0.0524
  373loPI   C3B 5967  11.202   0.912   7.603 -0.0816 -0.1649  0.1343
  373loPI   C4B 5968  11.107   1.113   7.163  0.0827 -0.5398 -0.3778
  374loPI    C1 5969  10.115   7.124   9.846 -0.3606 -0.1043  0.0075
  374loPI    C2 5970  10.488   7.011   9.933 -0.3859 -0.2177 -0.0295
  374loPI    C3 5971  10.263   7.189  10.212 -0.0686  0.4887 -0.2019
  374loPI   PO4 5972  10.089   7.317   9.580 -0.1025 -0.1491  0.1990
  374loPI   GL1 5973  10.202   7.247   9.204 -0.2605  0.0941 -0.2239
  374loPI   GL2 5974  10.372   7.480   9.095  0.0328  0.0632  0.1729
  374loPI   C1A 5975  10.235   7.075   8.790  0.3293  0.2785  0.1127
  374loPI   C2A 5976  10.285   6.978   8.372  0.1771  0.1575 -0.0425
  374loPI   C3A 5977  10.288   7.013   7.895 -0.2012  0.1313 -0.1592
  374loPI   C4A 5978  10.069   7.068   7.494  0.0775 -0.3951  0.0620
  374loPI   C5A 5979   9.689   6.894   7.368 -0.4062 -0.1370 -0.2668
  374loPI   C6A 5980   9.371   6.542   7.528 -0.3260 -0.2598  0.0477
  374loPI   C1B 5981  10.548   7.437   8.562  0.1615  0.0383  0.1416
  374loPI   C2B 5982  10.629   7.301   8.190  0.0717  0.2719  0.3037
  374loPI   C3B 5983  10.719   7.158   7.754  0.1507  0.3274 -0.0566
  374loPI   C4B 5984  11.028   7.011   7.412 -0.1233  0.1617 -0.1557
  375loPI    C1 5985  17.367  19.096   9.622  0.0845  0.2043  0.0560
  375loPI    C2 5986  17.573  18.813   9.816  0.0632  0.1129 -0.0537
  375loPI    C3 5987  17.173  18.810   9.824  0.0638  0.2951  0.1659
  375loPI   PO4 5988  17.597  19.117   9.373  0.1237 -0.0658  0.0454
  375loPI   GL1 5989  17.637  19.319   8.985  0.2219 -0.0364 -0.2559
  375loPI   GL2 5990  17.743  19.590   9.030  0.1471 -0.2685 -0.0912
  375loPI   C1A 5991  17.507  19.244   8.594 -0.1229  0.3037  0.0673
  375loPI   C2A 5992  17.326  19.362   8.239  0.2189  0.0107  0.2760
  375loPI   C3A 5993  17.228  19.480   7.868  0.2344 -0.1452 -0.0425
  375loPI   C4A 5994  17.359  19.344   7.480 -0.1080  0.0771 -0.2267
  375loPI   C5A 5995  17.465  19.113   7.038  0.3614 -0.1072 -0.1042
  375loPI   C6A 5996  17.602  18.652   6.949 -0.1202 -0.2387  0.3616
  375loPI   C1B 5997  18.063  19.374   8.729 -0.0673  0.1521  0.2145
  375loPI   C2B 5998  18.365  19.514   8.445 -0.1608  0.0329 -0.3388
  375loPI   C3B 5999  18.285  19.646   7.974  0.1926 -0.0188 -0.3475
  375loPI   C4B 6000  18.464  19.427   7.589  0.1323  0.1111 -0.0557
  376loPI    C1 6001   3.638   0.405   9.913  0.0774 -0.1348 -0.1196
  376loPI    C2 6002   3.669   0.042  10.077 -0.0927 -0.0785  0.0402
  376loPI    C3 6003   3.372   0.287  10.188  0.0279  0.1139 -0.0578
  376loPI   PO4 6004   3.679   0.434   9.638 -0.0648  0.0557 -0.2947
  376loPI   GL1 6005   3.465   0.455   9.210 -0.2345 -0.2396 -0.0370
  376loPI   GL2 6006   3.416   0.708   9.060  0.1806  0.0927 -0.1326
  376loPI   C1A 6007   3.390   0.242   8.783  0.0949 -0.2131  0.0195
  376loPI   C2A 6008   3.300   0.293   8.280 -0.1151  0.6328  0.3329
  376loPI   C3A 6009   3.398   0.411   7.806 -0.0387  0.2663  0.2197
  376loPI   C4A 6010   3.326   0.246   7.403  0.1223  0.3207  0.3007
  376loPI   C5A 6011   3.192  -0.187   7.214 -0.3087  0.0304  0.3673
  376loPI   C6A 6012   2.925  -0.517   7.177 -0.0603 -0.2775  0.0835
  376loPI   C1B 6013   3.413   0.723   8.594  0.0165 -0.1302 -0.0579
  376loPI   C2B 6014   3.345   0.956   8.295  0.0596 -0.1514 -0.1070
  376loPI   C3B 6015   3.356   0.945   7.827 -0.1907  0.2356  0.0901
  376loPI   C4B 6016   3.144   1.062   7.581 -0.1159 -0.2570  0.2646
  377loPI    C1 6017  18.011  11.799   9.890  0.0232  0.1759  0.1474
  377loPI    C2 6018  18.383  11.924   9.968  0.0340  0.1108  0.2015
  377loPI    C3 6019  18.100  11.947  10.250  0.0320  0.0289  0.2064
  377loPI   PO4 6020  18.034  11.789   9.610 -0.2227 -0.1110  0.0470
  377loPI   GL1 6021  17.995  11.487   9.239  0.3243 -0.4300  0.0022
  377loPI   GL2 6022  18.363  11.506   9.354  0.2679  0.1684  0.1994
  377loPI   C1A 6023  18.230  11.417   8.855  0.0827 -0.1839 -0.0142
  377loPI   C2A 6024  18.560  11.441   8.530 -0.0021 -0.1613  0.1443
  377loPI   C3A 6025  18.862  11.707   8.242  0.3154 -0.3184 -0.2915
  377loPI   C4A 6026  18.972  11.774   7.751  0.0070 -0.0422 -0.0569
  377loPI   C5A 6027  19.363  11.702   7.565 -0.3064  0.4234 -0.1022
  377loPI   C6A 6028  19.769  11.942   7.692 -0.2906 -0.1104 -0.0027
  377loPI   C1B 6029  18.723  11.767   9.091  0.1468  0.2482  0.4623
  377loPI   C2B 6030  19.015  11.718   8.745  0.0989  0.2044 -0.3385
  377loPI   C3B 6031  19.188  12.027   8.404  0.0283 -0.1794 -0.2991
  377loPI   C4B 6032  19.388  11.913   8.004  0.0868  0.3063  0.2707
  378loPI    C1 6033   5.985   0.737   9.921 -0.1084  0.0733 -0.0025
  378loPI    C2 6034   5.748   0.509  10.150  0.1258 -0.1067  0.0656
  378loPI    C3 6035   5.941   0.821  10.310  0.1087 -0.0936  0.0606
  378loPI   PO4 6036   5.802   0.662   9.667  0.1218 -0.1544 -0.1328
  378loPI   GL1 6037   5.974   0.779   9.331  0.3227 -0.1488 -0.3725
  378loPI   GL2 6038   5.611   0.652   9.246  0.0246 -0.1124  0.1344
  378loPI   C1A 6039   5.942   0.979   9.051  0.0640 -0.0115 -0.2417
  378loPI   C2A 6040   5.871   1.124   8.651  0.3083  0.3606 -0.2564
  378loPI   C3A 6041   5.680   0.966   8.281 -0.1581 -0.0296 -0.1049
  378loPI   C4A 6042   5.609   0.848   7.821 -0.0319  0.1843 -0.1734
  378loPI   C5A 6043   5.567   1.174   7.519  0.0137  0.0273  0.0601
  378loPI   C6A 6044   5.704   1.317   7.134  0.1116  0.2789  0.1367
  378loPI   C1B 6045   5.624   0.657   8.794 -0.0192  0.5304 -0.0686
  378loPI   C2B 6046   5.708   0.426   8.431  0.1494 -0.3835  0.1313
  378loPI   C3B 6047   5.645   0.235   8.013 -0.0064 -0.1495  0.0260
  378loPI   C4B 6048   5.765   0.344   7.618  0.1441  0.1308  0.3426
  379loPI    C1 6049   3.576  16.406   9.929  0.1224 -0.1112  0.0385
  379loPI    C2 6050   3.600  16.036   9.780  0.1865 -0.1138  0.0555
  379loPI    C3 6051   3.729  16.111  10.151 -0.2110 -0.1611  0.2091
  379loPI   PO4 6052   3.592  16.656   9.706  0.2005 -0.1338  0.0057
  379loPI   GL1 6053   3.672  16.889   9.299  0.0687 -0.1062  0.1381
  379loPI   GL2 6054   3.545  17.132   9.175  0.2912 -0.0586 -0.1186
  379loPI   C1A 6055   3.600  16.672   9.028  0.1152  0.0513 -0.0951
  379loPI   C2A 6056   3.428  16.512   8.682  0.1416  0.4293  0.0625
  379loPI   C3A 6057   3.182  16.514   8.390 -0.2858 -0.1249  0.1306
  379loPI   C4A 6058   3.203  16.772   7.970 -0.0292 -0.0615 -0.1772
  379loPI   C5A 6059   3.614  16.751   7.741  0.0245  0.3653  0.1654
  379loPI   C6A 6060   4.038  16.769   7.663  0.5304 -0.1394 -0.0258
  379loPI   C1B 6061   3.479  17.135   8.774  0.1563  0.1113 -0.0979
  379loPI   C2B 6062   3.571  17.090   8.264  0.0611  0.0771  0.1295
  379loPI   C3B 6063   3.375  17.223   7.937 -0.0494 -0.0593  0.1185
  379loPI   C4B 6064   3.626  17.327   7.590  0.5344  0.0803  0.1202
  380loPI    C1 6065   4.067  10.815  10.479  0.2638  0.1063  0.0721
  380loPI    C2 6066   4.273  10.596  10.743  0.4155  0.2516  0.0760
  380loPI    C3 6067   3.966  10.820  10.866  0.1095 -0.1356  0.0371
  380loPI   PO4 6068   4.117  10.583  10.239  0.0804 -0.3348  0.1074
  380loPI   GL1 6069   4.194  10.498   9.855 -0.2159 -0.2824  0.1716
  380loPI   GL2 6070   4.208  10.110   9.857  0.3121  0.2282 -0.0187
  380loPI   C1A 6071   4.072  10.882   9.643 -0.1227 -0.1912 -0.1182
  380loPI   C2A 6072   4.084  10.977   9.195  0.1829  0.2980 -0.2492
  380loPI   C3A 6073   4.023  10.974   8.761  0.2790  0.0885  0.2077
  380loPI   C4A 6074   3.857  11.027   8.393  0.1051 -0.0206  0.1520
  380loPI   C5A 6075   3.923  11.067   7.911 -0.3015  0.0538  0.2918
  380loPI   C6A 6076   4.232  11.091   7.672  0.2070  0.0514  0.0870
  380loPI   C1B 6077   4.246  10.044   9.433 -0.5064 -0.2537  0.2300
  380loPI   C2B 6078   4.378  10.087   8.927  0.1021 -0.0405 -0.5617
  380loPI   C3B 6079   4.634  10.236   8.557 -0.0248  0.2437  0.2744
  380loPI   C4B 6080   4.744  10.478   8.288 -0.2671  0.2497 -0.2206
  381loPI    C1 6081   0.984   0.256  10.105 -0.1247  0.0525  0.0739
  381loPI    C2 6082   0.639   0.421  10.223 -0.0719  0.1716  0.0629
  381loPI    C3 6083   0.958   0.430  10.464 -0.1235 -0.0908  0.1443
  381loPI   PO4 6084   1.024   0.375   9.818 -0.2340 -0.0103  0.0384
  381loPI   GL1 6085   1.135   0.094   9.553  0.2044  0.1711 -0.2245
  381loPI   GL2 6086   1.412   0.318   9.482 -0.0173  0.3358  0.1042
  381loPI   C1A 6087   1.107  -0.059   9.073 -0.0157  0.0259 -0.5461
  381loPI   C2A 6088   1.239   0.087   8.797 -0.2489 -0.0824  0.1472
  381loPI   C3A 6089   1.478   0.105   8.344  0.0279 -0.3124 -0.2712
  381loPI   C4A 6090   1.424   0.059   7.999  0.4574 -0.1200  0.1834
  381loPI   C5A 6091   1.629   0.062   7.599  0.1996 -0.0407 -0.2107
  381loPI   C6A 6092   1.740   0.243   7.210  0.1048  0.0871  0.1708
  381loPI   C1B 6093   1.326   0.530   9.129 -0.2686  0.1023 -0.0143
  381loPI   C2B 6094   1.409   0.481   8.697 -0.2570 -0.1899  0.1174
  381loPI   C3B 6095   1.669   0.697   8.424 -0.0797  0.3683  0.1109
  381loPI   C4B 6096   1.807   0.438   8.066 -0.0429 -0.1346  0.3284
  382loPI    C1 6097  15.972   0.457   9.422  0.0184 -0.3600  0.3260
  382loPI    C2 6098  15.592   0.573   9.471  0.0880  0.0922 -0.1205
  382loPI    C3 6099  15.839   0.562   9.785 -0.1836  0.2031  0.1016
  382loPI   PO4 6100  16.047   0.623   9.249 -0.2173  0.3565 -0.2453
  382loPI   GL1 6101  16.060   0.776   9.000  0.0373 -0.0980  0.0207
  382loPI   GL2 6102  16.004   1.076   8.829 -0.0980  0.0034  0.3020
  382loPI   C1A 6103  16.074   0.605   8.531  0.1407 -0.1490 -0.0408
  382loPI   C2A 6104  15.844   0.557   8.143 -0.3115 -0.3829 -0.2804
  382loPI   C3A 6105  15.661   0.272   7.940 -0.1588 -0.1162 -0.0624
  382loPI   C4A 6106  15.475   0.248   7.688 -0.3321 -0.2335  0.2928
  382loPI   C5A 6107  15.186   0.153   7.435 -0.2686 -0.0819  0.1063
  382loPI   C6A 6108  15.117   0.024   7.067  0.0043  0.0663  0.1330
  382loPI   C1B 6109  15.868   1.038   8.403 -0.3067  0.2080 -0.3066
  382loPI   C2B 6110  15.701   1.063   8.088  0.1174 -0.0396  0.1623
  382loPI   C3B 6111  15.522   1.020   7.705 -0.1947 -0.2211  0.0566
  382loPI   C4B 6112  15.199   1.161   7.440 -0.1349  0.0638  0.1005
  383loPI    C1 6113  16.847  18.467   9.599  0.2090 -0.1547 -0.1888
  383loPI    C2 6114  16.491  18.471   9.781  0.0913 -0.0364 -0.4162
  383loPI    C3 6115  16.827  18.494   9.997 -0.0403 -0.0652 -0.2056
  383loPI   PO4 6116  16.677  18.528   9.328 -0.1762 -0.3440  0.1924
  383loPI   GL1 6117  16.755  18.612   8.893 -0.0687  0.0404 -0.2598
  383loPI   GL2 6118  17.007  18.678   8.811 -0.2086 -0.0259  0.2862
  383loPI   C1A 6119  16.531  18.324   8.617  0.1319  0.2733 -0.3555
  383loPI   C2A 6120  16.589  17.995   8.287 -0.0672  0.2679 -0.2160
  383loPI   C3A 6121  16.725  17.564   8.031  0.0125 -0.0652 -0.1122
  383loPI   C4A 6122  16.861  17.608   7.599 -0.1199 -0.0532 -0.1115
  383loPI   C5A 6123  17.118  17.772   7.177 -0.0079  0.3593  0.2084
  383loPI   C6A 6124  17.393  18.192   7.252 -0.2144  0.0204 -0.1971
  383loPI   C1B 6125  17.253  18.805   8.477 -0.2167  0.1093  0.1377
  383loPI   C2B 6126  17.076  18.887   8.091  0.2898 -0.0239  0.0873
  383loPI   C3B 6127  16.928  19.052   7.731  0.0078 -0.1218 -0.0080
  383loPI   C4B 6128  16.988  18.937   7.276  0.2331 -0.1324 -0.1507
  384loPI    C1 6129   4.149   0.130   9.965 -0.0163  0.2434  0.0259
  384loPI    C2 6130   4.119  -0.234  10.127 -0.2196  0.0744 -0.3759
  384loPI    C3 6131   4.416   0.010  10.238 -0.0431 -0.2353 -0.1487
  384loPI   PO4 6132   4.082   0.149   9.671  0.0499 -0.1452  0.0113
  384loPI   GL1 6133   4.282   0.300   9.351 -0.1674  0.0386 -0.0548
  384loPI   GL2 6134   4.033   0.429   9.271 -0.2440  0.2699 -0.1393
  384loPI   C1A 6135   4.458   0.564   8.959  0.2136 -0.0175 -0.0619
  384loPI   C2A 6136   4.498   0.550   8.521 -0.3771  0.1298  0.3070
  384loPI   C3A 6137   4.293   0.386   8.168  0.1146  0.0435  0.0080
  384loPI   C4A 6138   4.393   0.306   7.801 -0.3624 -0.2192  0.0075
  384loPI   C5A 6139   4.248   0.286   7.395  0.1247 -0.0056 -0.1716
  384loPI   C6A 6140   4.479   0.342   6.978 -0.1036  0.1189 -0.2038
  384loPI   C1B 6141   3.960   0.444   8.856  0.2179 -0.2235 -0.1032
  384loPI   C2B 6142   3.843   0.454   8.423  0.0620 -0.0544 -0.0199
  384loPI   C3B 6143   3.737   0.666   8.096 -0.0743  0.5472 -0.1193
  384loPI   C4B 6144   4.040   0.795   7.735 -0.2158  0.1366 -0.3133
  385loPI    C1 6145   4.510  16.520   9.951 -0.1576  0.2266 -0.1865
  385loPI    C2 6146   4.771  16.790  10.088  0.0715  0.0105 -0.1906
  385loPI    C3 6147   4.378  16.851  10.133  0.1317  0.1323  0.2074
  385loPI   PO4 6148   4.588  16.464   9.734  0.1274  0.1008 -0.0121
  385loPI   GL1 6149   4.436  16.486   9.351  0.0374 -0.0547  0.2532
  385loPI   GL2 6150   4.545  16.181   9.175 -0.3187  0.1122 -0.2037
  385loPI   C1A 6151   4.043  16.470   8.940 -0.0128  0.2719 -0.1198
  385loPI   C2A 6152   3.965  16.277   8.527 -0.2271  0.0027 -0.0064
  385loPI   C3A 6153   4.045  16.376   8.054  0.1189  0.1706  0.0276
  385loPI   C4A 6154   3.829  16.318   7.628 -0.2976  0.2083  0.4354
  385loPI   C5A 6155   3.726  16.515   7.309  0.0116 -0.0800 -0.2268
  385loPI   C6A 6156   3.724  16.930   7.223  0.2797  0.5204  0.0462
  385loPI   C1B 6157   4.626  16.457   8.797  0.0951 -0.0268  0.3080
  385loPI   C2B 6158   4.507  16.396   8.366 -0.0554  0.3804 -0.3192
  385loPI   C3B 6159   4.506  16.178   7.977  0.1136 -0.1138  0.1048
  385loPI   C4B 6160   4.376  16.299   7.442  0.2738 -0.0834  0.0515
  386loPI    C1 6161  10.482   2.580   9.480  0.1149 -0.1422  0.0114
  386loPI    C2 6162  10.701   2.758   9.763 -0.2865 -0.0286  0.2602
  386loPI    C3 6163  10.320   2.663   9.837 -0.3948 -0.0106 -0.2405
  386loPI   PO4 6164  10.627   2.729   9.266  0.1706 -0.1363  0.2216
  386loPI   GL1 6165  10.468   2.720   8.951  0.1547  0.1947 -0.0618
  386loPI   GL2 6166  10.819   2.708   8.811  0.0435  0.2131 -0.1218
  386loPI   C1A 6167  10.474   2.575   8.523  0.2409 -0.1068  0.0096
  386loPI   C2A 6168  10.461   2.682   8.080  0.4751 -0.0757  0.0541
  386loPI   C3A 6169  10.243   2.618   7.646 -0.3182 -0.0566  0.4537
  386loPI   C4A 6170  10.274   2.901   7.270 -0.2475 -0.0103  0.3948
  386loPI   C5A 6171  10.401   3.112   6.964  0.0170 -0.0531  0.3283
  386loPI   C6A 6172  10.192   3.356   6.660 -0.1407 -0.0054 -0.1589
  386loPI   C1B 6173  10.678   3.001   8.432 -0.0113 -0.1597 -0.0008
  386loPI   C2B 6174  10.512   3.149   8.108 -0.0843 -0.0767 -0.0023
  386loPI   C3B 6175  10.405   3.262   7.734 -0.0131  0.0358  0.1317
  386loPI   C4B 6176  10.132   3.585   7.735  0.1254 -0.0970 -0.0404
  387loPI    C1 6177   3.552   8.222  10.575  0.1111  0.3081  0.0626
  387loPI    C2 6178   3.629   8.330  10.952  0.3546  0.0985  0.0760
  387loPI    C3 6179   3.489   7.964  10.874  0.3308  0.1319 -0.0402
  387loPI   PO4 6180   3.709   8.295  10.474 -0.3211  0.1115  0.3366
  387loPI   GL1 6181   3.739   8.149  10.140 -0.0345  0.1483 -0.3672
  387loPI   GL2 6182   4.008   8.054   9.970 -0.1336 -0.1479 -0.0921
  387loPI   C1A 6183   3.637   8.143   9.664 -0.3478 -0.0685 -0.1897
  387loPI   C2A 6184   3.432   8.093   9.248 -0.0286 -0.1009  0.1166
  387loPI   C3A 6185   3.412   8.151   8.769  0.1873 -0.3135 -0.2017
  387loPI   C4A 6186   3.404   8.125   8.415  0.0298  0.0448  0.1332
  387loPI   C5A 6187   3.670   7.991   7.978  0.2824  0.1672  0.1243
  387loPI   C6A 6188   3.785   7.919   7.546 -0.1140 -0.3023 -0.1531
  387loPI   C1B 6189   4.080   7.936   9.660  0.3461 -0.1704 -0.0257
  387loPI   C2B 6190   3.964   8.064   9.180 -0.0378  0.0516 -0.0919
  387loPI   C3B 6191   4.034   8.133   8.752  0.0277 -0.0317  0.1026
  387loPI   C4B 6192   3.899   8.212   8.332  0.2738 -0.0664  0.1502
  388loPI    C1 6193   1.371   2.019  10.187  0.0517  0.0813  0.1593
  388loPI    C2 6194   1.034   2.227  10.243  0.0347  0.0144  0.3104
  388loPI    C3 6195   1.334   2.258  10.505  0.0956 -0.0267  0.2461
  388loPI   PO4 6196   1.356   1.873  10.153  0.0893 -0.0540 -0.2588
  388loPI   GL1 6197   1.187   1.656   9.823  0.4632 -0.4192 -0.0947
  388loPI   GL2 6198   0.936   1.951   9.694  0.1124 -0.3532 -0.2218
  388loPI   C1A 6199   1.277   1.770   9.442 -0.4912  0.0192 -0.1891
  388loPI   C2A 6200   1.384   2.147   9.146  0.6647 -0.0253 -0.0409
  388loPI   C3A 6201   1.293   2.340   8.782  0.1577 -0.0992 -0.1415
  388loPI   C4A 6202   1.157   2.141   8.351  0.2573 -0.1330  0.0132
  388loPI   C5A 6203   1.063   2.148   7.946 -0.0769  0.2522 -0.1946
  388loPI   C6A 6204   1.152   2.160   7.463  0.1498 -0.3194  0.2387
  388loPI   C1B 6205   0.796   1.895   9.243  0.1785  0.4045 -0.0362
  388loPI   C2B 6206   0.981   1.926   8.834  0.1061 -0.0507 -0.0488
  388loPI   C3B 6207   1.353   1.790   8.700  0.1600 -0.1686 -0.1460
  388loPI   C4B 6208   1.613   1.811   8.275 -0.0283  0.0987  0.1723
  389loPI    C1 6209  10.395   0.130   9.494  0.1787 -0.1217 -0.1367
  389loPI    C2 6210  10.084   0.062   9.737  0.0602  0.2309 -0.1833
  389loPI    C3 6211  10.456   0.064   9.884  0.0197  0.0796 -0.0756
  389loPI   PO4 6212  10.262   0.321   9.284 -0.0933 -0.4940 -0.1404
  389loPI   GL1 6213  10.331   0.501   8.935  0.2134  0.0898 -0.0125
  389loPI   GL2 6214  10.314   0.218   8.796 -0.1288  0.1312 -0.1574
  389loPI   C1A 6215  10.256   0.832   8.674  0.2711  0.0877 -0.2611
  389loPI   C2A 6216  10.095   0.994   8.362  0.1296 -0.1153  0.1525
  389loPI   C3A 6217  10.154   1.263   8.100  0.1597 -0.4893  0.0310
  389loPI   C4A 6218  10.255   1.253   7.739 -0.2581 -0.0348 -0.1828
  389loPI   C5A 6219  10.028   1.262   7.410  0.0711  0.3372  0.0413
  389loPI   C6A 6220   9.652   1.036   7.373  0.3778 -0.1083 -0.2507
  389loPI   C1B 6221  10.204   0.242   8.443  0.0051 -0.1910  0.0898
  389loPI   C2B 6222  10.325   0.444   7.988 -0.1909 -0.0236  0.0148
  389loPI   C3B 6223  10.046   0.268   7.599 -0.0655 -0.0315 -0.0758
  389loPI   C4B 6224  10.099  -0.218   7.407  0.2630  0.0507  0.0395
  390loPI    C1 6225  10.827  17.742   9.893 -0.2644 -0.2604 -0.1451
  390loPI    C2 6226  10.543  17.562  10.109 -0.1022 -0.1826  0.1373
  390loPI    C3 6227  10.883  17.369  10.026 -0.1182 -0.1720  0.0467
  390loPI   PO4 6228  10.674  17.900   9.638 -0.0904  0.3387  0.0008
  390loPI   GL1 6229  10.724  17.810   9.154 -0.0162 -0.0561  0.2113
  390loPI   GL2 6230  11.017  17.924   9.137 -0.0521 -0.0168 -0.0357
  390loPI   C1A 6231  10.589  17.784   8.766 -0.2116  0.3006 -0.2794
  390loPI   C2A 6232  10.375  18.049   8.419  0.0229  0.2476 -0.1042
  390loPI   C3A 6233  10.362  18.284   8.067 -0.2038  0.0760 -0.2915
  390loPI   C4A 6234  10.181  18.434   7.652  0.0202 -0.1587  0.0031
  390loPI   C5A 6235   9.819  18.312   7.293  0.1427  0.0982 -0.4062
  390loPI   C6A 6236   9.626  18.310   6.898 -0.3105  0.2897 -0.1270
  390loPI   C1B 6237  11.128  17.712   8.918  0.0697  0.0672 -0.1024
  390loPI   C2B 6238  10.971  17.707   8.407  0.3758 -0.2637 -0.0717
  390loPI   C3B 6239  10.844  17.516   8.088  0.0104  0.2168  0.0773
  390loPI   C4B 6240  10.607  17.305   7.786  0.1950 -0.2503 -0.2833
  391loPI    C1 6241  15.631   8.303   9.740 -0.3325  0.2633  0.0485
  391loPI    C2 6242  15.833   8.625   9.614 -0.1754  0.2327  0.2175
  391loPI    C3 6243  16.010   8.266   9.617 -0.3980  0.1161 -0.1122
  391loPI   PO4 6244  15.429   8.327   9.498  0.2112  0.3038  0.1099
  391loPI   GL1 6245  15.558   8.387   9.139 -0.1669 -0.0894 -0.3563
  391loPI   GL2 6246  15.958   8.462   9.169  0.0396  0.2717  0.1971
  391loPI   C1A 6247  15.766   8.350   8.747  0.4156 -0.3345 -0.0808
  391loPI   C2A 6248  15.992   8.422   8.342 -0.1711 -0.0450  0.1987
  391loPI   C3A 6249  15.923   8.353   7.927  0.1285  0.2642  0.0577
  391loPI   C4A 6250  15.840   8.451   7.566  0.1089 -0.2288 -0.0339
  391loPI   C5A 6251  16.074   8.822   7.194 -0.1636  0.2652  0.1981
  391loPI   C6A 6252  16.322   9.043   6.810 -0.0589 -0.2603  0.0048
  391loPI   C1B 6253  16.134   8.685   8.769  0.1062  0.1100 -0.3627
  391loPI   C2B 6254  16.252   8.831   8.428  0.1482  0.2511  0.0666
  391loPI   C3B 6255  16.386   8.599   8.026 -0.1838 -0.1001 -0.0135
  391loPI   C4B 6256  16.796   8.521   7.815 -0.2937 -0.2417  0.1574
  392loPI    C1 6257  11.310  11.440   9.490  0.0602  0.1591 -0.0076
  392loPI    C2 6258  11.289  11.118   9.727  0.1018  0.2247  0.0859
  392loPI    C3 6259  11.644  11.282   9.644  0.0786  0.2610  0.0578
  392loPI   PO4 6260  11.189  11.410   9.361 -0.1559  0.2718 -0.0487
  392loPI   GL1 6261  11.294  11.264   8.936 -0.2902 -0.1192 -0.0316
  392loPI   GL2 6262  11.058  11.034   8.693  0.0350  0.3497  0.0228
  392loPI   C1A 6263  11.518  11.354   8.510  0.0945 -0.2140 -0.2676
  392loPI   C2A 6264  11.425  11.489   8.130 -0.2884  0.3047 -0.3025
  392loPI   C3A 6265  11.224  11.743   7.804 -0.0382 -0.3663 -0.2265
  392loPI   C4A 6266  11.255  11.878   7.367 -0.1622  0.0491  0.0656
  392loPI   C5A 6267  11.268  11.744   7.035 -0.0489  0.2245  0.0387
  392loPI   C6A 6268  11.079  11.763   6.641 -0.1584  0.0850 -0.0883
  392loPI   C1B 6269  11.165  11.102   8.294  0.2989  0.0276  0.0303
  392loPI   C2B 6270  11.061  11.160   7.873  0.1335 -0.3479  0.2654
  392loPI   C3B 6271  10.927  11.314   7.562  0.3576  0.0512 -0.1656
  392loPI   C4B 6272  11.265  11.381   7.373 -0.0224  0.1396 -0.3873
  393loPI    C1 6273  11.882   0.306   9.462 -0.1566 -0.1244 -0.0233
  393loPI    C2 6274  11.766   0.566   9.181  0.1825  0.0526 -0.0054
  393loPI    C3 6275  11.722   0.658   9.568 -0.2435 -0.1725  0.0064
  393loPI   PO4 6276  11.882   0.049   9.254  0.1743  0.0587 -0.1552
  393loPI   GL1 6277  11.671  -0.123   8.784  0.1273  0.0795 -0.1294
  393loPI   GL2 6278  11.396  -0.350   8.794  0.1330  0.1621 -0.0868
  393loPI   C1A 6279  11.817  -0.175   8.363 -0.1733  0.2299 -0.1010
  393loPI   C2A 6280  11.822  -0.232   8.026 -0.2600 -0.1581  0.2347
  393loPI   C3A 6281  11.773  -0.396   7.580 -0.0586 -0.0607  0.0344
  393loPI   C4A 6282  11.522  -0.716   7.262 -0.0634  0.0303  0.3052
  393loPI   C5A 6283  11.165  -0.860   7.073  0.0298  0.2406 -0.2399
  393loPI   C6A 6284  11.036  -0.792   6.749  0.2661  0.1893  0.1080
  393loPI   C1B 6285  11.133  -0.625   8.554 -0.0082 -0.0389  0.0852
  393loPI   C2B 6286  11.029  -0.685   8.199  0.0766  0.0037 -0.0123
  393loPI   C3B 6287  10.819  -0.834   7.813 -0.1609  0.1487  0.0802
  393loPI   C4B 6288  10.723  -1.104   7.580 -0.1561 -0.0445 -0.4738
  394loPI    C1 6289   7.097   4.016   9.965  0.0276  0.0657  0.2659
  394loPI    C2 6290   6.825   4.051   9.674  0.2332  0.0085  0.0650
  394loPI    C3 6291   6.825   3.728   9.910  0.0916  0.0354  0.1019
  394loPI   PO4 6292   7.271   4.044   9.909  0.0132  0.1154 -0.2039
  394loPI   GL1 6293   7.315   3.995   9.520  0.1296  0.1198  0.0410
  394loPI   GL2 6294   7.525   4.165   9.224  0.0098  0.1189 -0.3448
  394loPI   C1A 6295   6.998   4.057   9.235  0.0988  0.0792  0.1939
  394loPI   C2A 6296   6.785   4.164   8.890 -0.2120  0.2536 -0.1019
  394loPI   C3A 6297   6.635   4.101   8.512  0.2717 -0.0807 -0.0130
  394loPI   C4A 6298   6.374   4.049   8.148 -0.1823  0.1437  0.2668
  394loPI   C5A 6299   6.398   3.719   7.827  0.0114  0.0553 -0.0083
  394loPI   C6A 6300   6.189   3.546   7.338  0.2509 -0.1914 -0.4065
  394loPI   C1B 6301   7.270   4.154   8.815 -0.1308 -0.1153  0.3434
  394loPI   C2B 6302   7.107   3.976   8.501  0.1857 -0.2775  0.1993
  394loPI   C3B 6303   6.834   3.855   8.188  0.1835  0.0439 -0.1400
  394loPI   C4B 6304   6.779   4.046   7.790  0.1072 -0.1266 -0.2351
  395loPI    C1 6305  11.527   7.592   9.702 -0.0886  0.0170  0.0087
  395loPI    C2 6306  11.845   7.606   9.944 -0.2248 -0.2559  0.2084
  395loPI    C3 6307  11.606   7.925   9.909 -0.1392 -0.1754  0.3453
  395loPI   PO4 6308  11.578   7.458   9.413  0.0774  0.2281 -0.0582
  395loPI   GL1 6309  11.487   7.575   8.968 -0.0183  0.3113  0.0549
  395loPI   GL2 6310  11.525   7.340   8.703 -0.0577  0.0755 -0.1322
  395loPI   C1A 6311  11.444   7.844   8.626 -0.3074  0.0246  0.2636
  395loPI   C2A 6312  11.371   7.749   8.239 -0.0741  0.0542 -0.3206
  395loPI   C3A 6313  11.098   7.834   7.896 -0.2226  0.0828  0.0029
  395loPI   C4A 6314  10.814   7.696   7.724 -0.1541  0.3099  0.0308
  395loPI   C5A 6315  10.752   7.434   7.334  0.1610 -0.2804  0.3137
  395loPI   C6A 6316  10.863   7.260   6.932 -0.1276  0.0312  0.0755
  395loPI   C1B 6317  11.867   7.474   8.407  0.2000  0.0648 -0.0591
  395loPI   C2B 6318  11.806   7.766   8.030  0.1905 -0.0926 -0.0404
  395loPI   C3B 6319  11.493   7.897   7.619 -0.2179 -0.3443  0.0923
  395loPI   C4B 6320  11.103   7.897   7.394  0.0766 -0.1455  0.0649
  396loPI    C1 6321   0.365   1.290  10.451  0.0878 -0.0054  0.2476
  396loPI    C2 6322   0.332   1.500  10.790 -0.0317 -0.0920  0.2903
  396loPI    C3 6323   0.212   1.118  10.778 -0.0551 -0.0806  0.1426
  396loPI   PO4 6324   0.394   1.511  10.267 -0.0546 -0.0567  0.2705
  396loPI   GL1 6325   0.530   1.589   9.851  0.1586  0.0251 -0.1926
  396loPI   GL2 6326   0.746   1.380   9.878 -0.1619 -0.2927  0.2254
  396loPI   C1A 6327   0.455   1.950   9.639 -0.0088  0.1542  0.1239
  396loPI   C2A 6328   0.292   2.159   9.346  0.0167  0.0783  0.1990
  396loPI   C3A 6329   0.207   2.201   8.949  0.3284 -0.0633  0.1890
  396loPI   C4A 6330   0.236   2.193   8.468  0.0515  0.4002  0.0693
  396loPI   C5A 6331   0.213   2.088   8.069  0.3877  0.1359 -0.0959
  396loPI   C6A 6332   0.222   2.026   7.545 -0.3027 -0.0934  0.1362
  396loPI   C1B 6333   0.884   1.451   9.419 -0.0206  0.0618  0.1061
  396loPI   C2B 6334   1.182   1.352   9.050 -0.2551  0.0475 -0.0101
  396loPI   C3B 6335   1.639   1.474   9.080 -0.2725  0.5089  0.2567
  396loPI   C4B 6336   2.063   1.435   8.930  0.0246  0.0256 -0.1098
  397loPI    C1 6337  10.785   7.819   9.575 -0.1199  0.3122  0.1008
  397loPI    C2 6338  11.013   7.529   9.730 -0.1405  0.3375  0.1789
  397loPI    C3 6339  11.128   7.911   9.759 -0.0008  0.3210 -0.1224
  397loPI   PO4 6340  10.742   7.777   9.337 -0.1789  0.0069 -0.1695
  397loPI   GL1 6341  10.627   7.999   8.987 -0.1187  0.3575  0.1925
  397loPI   GL2 6342  10.987   7.843   8.873  0.2374 -0.1168 -0.0434
  397loPI   C1A 6343  10.316   7.862   8.757 -0.1119  0.1878 -0.3908
  397loPI   C2A 6344  10.126   7.598   8.472 -0.1111  0.1521  0.0187
  397loPI   C3A 6345   9.934   7.348   8.150  0.4621  0.2811 -0.0668
  397loPI   C4A 6346   9.699   7.225   7.778  0.1365 -0.1146  0.0614
  397loPI   C5A 6347   9.810   7.517   7.383 -0.1671 -0.0161 -0.1810
  397loPI   C6A 6348  10.003   7.322   6.999  0.0297 -0.0905  0.0447
  397loPI   C1B 6349  10.949   7.865   8.517  0.0707 -0.1034  0.0695
  397loPI   C2B 6350  10.686   7.925   8.207  0.1317 -0.0970 -0.2051
  397loPI   C3B 6351  10.356   7.651   8.020  0.0312 -0.2106 -0.1081
  397loPI   C4B 6352  10.193   7.516   7.698 -0.3387  0.4405  0.0294
  398loPI    C1 6353   5.418   5.925  10.320 -0.1046  0.1443  0.0522
  398loPI    C2 6354   5.544   6.214  10.566  0.1600  0.0164  0.0700
  398loPI    C3 6355   5.650   5.834  10.632  0.0567 -0.0470 -0.1207
  398loPI   PO4 6356   5.511   6.022  10.104  0.1700 -0.2653  0.3378
  398loPI   GL1 6357   5.414   5.920   9.627  0.0139  0.1064  0.0515
  398loPI   GL2 6358   5.320   6.331   9.613 -0.0786 -0.1811  0.1061
  398loPI   C1A 6359   5.371   5.882   9.199  0.1526 -0.3211 -0.1170
  398loPI   C2A 6360   5.632   5.824   8.879 -0.0792  0.5013 -0.1683
  398loPI   C3A 6361   5.701   6.112   8.557  0.0486  0.0257  0.0507
  398loPI   C4A 6362   5.829   6.178   8.081 -0.1454 -0.0271  0.3064
  398loPI   C5A 6363   5.851   6.089   7.614 -0.2674 -0.5598  0.1723
  398loPI   C6A 6364   5.880   6.211   7.181  0.0909 -0.1028  0.0375
  398loPI   C1B 6365   5.246   6.364   9.154  0.0335  0.2180 -0.3110
  398loPI   C2B 6366   5.089   6.615   8.788 -0.0526 -0.1576  0.0584
  398loPI   C3B 6367   5.055   6.557   8.350 -0.2050 -0.1733  0.0738
  398loPI   C4B 6368   4.773   6.583   8.031 -0.1239  0.0247  0.2717
  399loPI    C1 6369   7.006   9.829  10.107 -0.1166  0.4367  0.0823
  399loPI    C2 6370   7.367   9.837  10.279  0.1149 -0.0463 -0.3529
  399loPI    C3 6371   7.113   9.539  10.361 -0.2516  0.3640  0.0571
  399loPI   PO4 6372   6.940  10.078  10.090 -0.0611 -0.0389 -0.0742
  399loPI   GL1 6373   6.529  10.003   9.987  0.0551 -0.0490 -0.1506
  399loPI   GL2 6374   6.634   9.874   9.744  0.0196 -0.3808 -0.0845
  399loPI   C1A 6375   6.430  10.297   9.644 -0.0263 -0.0463  0.4036
  399loPI   C2A 6376   6.401  10.378   9.238  0.1700  0.1421  0.0874
  399loPI   C3A 6377   6.502  10.457   8.680  0.0607 -0.1426  0.2104
  399loPI   C4A 6378   6.288  10.527   8.360 -0.1876  0.0477 -0.0730
  399loPI   C5A 6379   6.078  10.430   7.960  0.0233 -0.2672 -0.0288
  399loPI   C6A 6380   5.930  10.453   7.465  0.2327  0.3814 -0.1127
  399loPI   C1B 6381   6.818   9.924   9.295 -0.3170 -0.3644 -0.2064
  399loPI   C2B 6382   6.737   9.983   8.898  0.1067 -0.1196 -0.0521
  399loPI   C3B 6383   6.715  10.063   8.506 -0.0610  0.1198 -0.0356
  399loPI   C4B 6384   6.926  10.235   8.039  0.3429  0.0965 -0.3510
  400loPI    C1 6385  17.041   6.515   9.604  0.2111 -0.0070 -0.0748
  400loPI    C2 6386  16.746   6.768   9.697  0.0635 -0.1293 -0.2050
  400loPI    C3 6387  16.663   6.424   9.511  0.2771 -0.2152 -0.1442
  400loPI   PO4 6388  17.139   6.567   9.433  0.0472 -0.2407  0.0801
  400loPI   GL1 6389  17.246   6.648   9.051  0.1748  0.0772 -0.1498
  400loPI   GL2 6390  16.933   6.362   9.002  0.2660 -0.0987 -0.1382
  400loPI   C1A 6391  17.035   6.723   8.712  0.0816 -0.0411 -0.2005
  400loPI   C2A 6392  17.128   6.629   8.216  0.1607 -0.1218 -0.1972
  400loPI   C3A 6393  17.453   6.601   7.875 -0.0762 -0.2107  0.0971
  400loPI   C4A 6394  17.770   6.542   7.642 -0.0557  0.0059 -0.0288
  400loPI   C5A 6395  17.839   6.543   7.248  0.2892  0.1348  0.0803
  400loPI   C6A 6396  17.999   6.778   6.871  0.3067 -0.0812  0.0116
  400loPI   C1B 6397  17.065   6.091   8.572  0.1711  0.1325 -0.0983
  400loPI   C2B 6398  17.125   6.144   8.151  0.2574  0.3756  0.2822
  400loPI   C3B 6399  17.194   5.836   7.771 -0.2756  0.0943 -0.1037
  400loPI   C4B 6400  17.162   5.757   7.283  0.1167  0.0017 -0.0182
  401loPI    C1 6401   0.106   6.374  10.140 -0.0229 -0.0348 -0.0715
  401loPI    C2 6402   0.271   6.091  10.368  0.0210  0.1705  0.1554
  401loPI    C3 6403   0.121   6.421  10.536  0.0476  0.3221 -0.1130
  401loPI   PO4 6404   0.268   6.347   9.893  0.2620 -0.0812 -0.2570
  401loPI   GL1 6405   0.422   6.368   9.516 -0.2040  0.3784  0.2944
  401loPI   GL2 6406   0.478   6.759   9.501 -0.3599  0.0831  0.0560
  401loPI   C1A 6407   0.316   6.268   9.071  0.1858  0.2643 -0.3946
  401loPI   C2A 6408   0.479   6.146   8.664 -0.0484 -0.1940  0.1091
  401loPI   C3A 6409   0.801   6.187   8.333  0.1672 -0.1978  0.4194
  401loPI   C4A 6410   0.965   6.471   7.972  0.1028  0.0742 -0.0251
  401loPI   C5A 6411   1.448   6.410   7.829  0.1124 -0.2036 -0.0728
  401loPI   C6A 6412   1.712   6.712   7.676  0.3776 -0.1586  0.4884
  401loPI   C1B 6413   0.484   6.680   8.975 -0.3554  0.4871  0.2932
  401loPI   C2B 6414   0.580   6.600   8.615  0.0500  0.0988  0.0191
  401loPI   C3B 6415   0.583   6.650   8.232  0.1131 -0.0100  0.0708
  401loPI   C4B 6416   0.577   6.720   7.784 -0.2820  0.1314  0.1147
  402loPI    C1 6417   7.188   8.980  10.418 -0.0678 -0.0596  0.0281
  402loPI    C2 6418   6.818   9.132  10.402 -0.0581 -0.0407 -0.0175
  402loPI    C3 6419   6.899   8.828  10.649 -0.0231  0.1778  0.2452
  402loPI   PO4 6420   7.210   9.006  10.162 -0.2895 -0.0779 -0.2324
  402loPI   GL1 6421   7.037   9.192   9.842 -0.0603 -0.1889 -0.0520
  402loPI   GL2 6422   6.750   9.124   9.790 -0.0349  0.3115  0.2043
  402loPI   C1A 6423   6.909   9.433   9.498 -0.2278  0.0434 -0.2032
  402loPI   C2A 6424   6.468   9.510   9.428  0.2115 -0.1821  0.2499
  402loPI   C3A 6425   6.399   9.511   9.075  0.0204  0.1043  0.2417
  402loPI   C4A 6426   6.298   9.690   8.686  0.3055  0.0263  0.1246
  402loPI   C5A 6427   6.290   9.782   8.232 -0.0885  0.0637 -0.1405
  402loPI   C6A 6428   5.980   9.904   8.027  0.1154  0.3334 -0.1519
  402loPI   C1B 6429   6.667   9.051   9.326  0.1017 -0.1790 -0.0950
  402loPI   C2B 6430   6.994   9.092   9.069  0.2547  0.1960  0.0925
  402loPI   C3B 6431   7.100   9.042   8.586  0.1175  0.1544 -0.1542
  402loPI   C4B 6432   6.715   9.063   8.282 -0.5509  0.3738 -0.1013
  403loPI    C1 6433  18.484   4.414  10.022  0.1216  0.1699  0.1969
  403loPI    C2 6434  18.240   4.626  10.259 -0.3087 -0.0865 -0.0051
  403loPI    C3 6435  18.275   4.230  10.310  0.0399 -0.0586 -0.0052
  403loPI   PO4 6436  18.696   4.609  10.051 -0.1797 -0.0065  0.2410
  403loPI   GL1 6437  18.995   4.767   9.786  0.1691  0.0760 -0.1484
  403loPI   GL2 6438  18.787   4.990   9.588  0.0202  0.2983 -0.0173
  403loPI   C1A 6439  18.882   4.438   9.446  0.2053 -0.0984 -0.0385
  403loPI   C2A 6440  18.749   4.344   9.035  0.1523 -0.0204 -0.1010
  403loPI   C3A 6441  18.722   4.332   8.538  0.2510 -0.2006 -0.1210
  403loPI   C4A 6442  18.894   4.660   8.284 -0.3534 -0.0024 -0.0119
  403loPI   C5A 6443  19.196   4.630   7.941  0.2224  0.0881  0.2798
  403loPI   C6A 6444  19.307   4.678   7.490  0.0704 -0.0297 -0.0635
  403loPI   C1B 6445  18.720   5.018   9.178 -0.0537  0.1330 -0.1450
  403loPI   C2B 6446  18.524   4.852   8.751  0.2470 -0.0353  0.1099
  403loPI   C3B 6447  18.445   4.807   8.376 -0.0461  0.0143  0.0347
  403loPI   C4B 6448  18.608   4.777   7.970  0.1850  0.0097 -0.1123
  404loPI    C1 6449  11.159   5.982   9.347  0.0728 -0.0738 -0.0207
  404loPI    C2 6450  11.112   6.179   9.692 -0.0989 -0.0290 -0.0689
  404loPI    C3 6451  11.327   5.842   9.682  0.0578  0.0662  0.0460
  404loPI   PO4 6452  11.181   6.173   9.206  0.1004 -0.0226 -0.1901
  404loPI   GL1 6453  10.853   6.493   9.054  0.3314  0.1594 -0.0304
  404loPI   GL2 6454  11.154   6.702   8.903  0.3650 -0.1683 -0.0086
  404loPI   C1A 6455  10.968   6.435   8.514  0.0457 -0.1477  0.0528
  404loPI   C2A 6456  10.950   6.421   8.124  0.1615  0.3931  0.2595
  404loPI   C3A 6457  11.008   6.444   7.741  0.3001 -0.1811  0.0609
  404loPI   C4A 6458  11.180   6.519   7.394  0.2184 -0.3191 -0.0921
  404loPI   C5A 6459  11.038   6.281   7.095  0.1667 -0.0166 -0.1292
  404loPI   C6A 6460  10.942   6.300   6.588  0.0836  0.0658 -0.0473
  404loPI   C1B 6461  11.242   6.882   8.501 -0.1166 -0.0763 -0.2318
  404loPI   C2B 6462  11.579   7.085   8.248 -0.0361  0.0293  0.0354
  404loPI   C3B 6463  11.725   7.270   7.945 -0.2869 -0.0703 -0.2640
  404loPI   C4B 6464  11.732   7.481   7.555  0.0705 -0.0277 -0.0304
  405loPI    C1 6465  12.152   6.869   9.427 -0.1273 -0.1544 -0.2987
  405loPI    C2 6466  11.931   6.558   9.547 -0.1436 -0.0192  0.0302
  405loPI    C3 6467  11.801   6.931   9.609  0.1742  0.0623  0.2275
  405loPI   PO4 6468  12.199   6.832   9.123  0.1117  0.2707  0.0193
  405loPI   GL1 6469  12.450   7.019   8.779  0.1335 -0.0409  0.0396
  405loPI   GL2 6470  12.177   7.091   8.665  0.1632  0.1275  0.0335
  405loPI   C1A 6471  12.705   7.155   8.569 -0.0880 -0.3191 -0.2473
  405loPI   C2A 6472  12.715   7.426   8.295  0.2561  0.1298 -0.2660
  405loPI   C3A 6473  12.770   7.470   7.870  0.2534 -0.1995 -0.2265
  405loPI   C4A 6474  12.876   7.590   7.414 -0.0496  0.2359  0.0732
  405loPI   C5A 6475  13.112   7.475   6.988  0.1731 -0.3167 -0.0540
  405loPI   C6A 6476  13.162   7.465   6.604 -0.3394 -0.2009  0.3207
  405loPI   C1B 6477  12.210   7.133   8.163  0.0783 -0.1437  0.0901
  405loPI   C2B 6478  12.468   7.086   7.874 -0.3025 -0.2329  0.1771
  405loPI   C3B 6479  12.541   7.196   7.466  0.1051 -0.3004 -0.0618
  405loPI   C4B 6480  12.545   6.852   7.168 -0.0563 -0.1560  0.3141
  406loPI    C1 6481  19.102   1.576  10.187 -0.1354 -0.4309  0.2917
  406loPI    C2 6482  18.995   1.753  10.529  0.2428  0.1818  0.1082
  406loPI    C3 6483  19.371   1.628  10.478  0.2130  0.1793 -0.1176
  406loPI   PO4 6484  19.068   1.693  10.007  0.3543  0.0279  0.1127
  406loPI   GL1 6485  19.360   1.774   9.592 -0.2278 -0.1429  0.0232
  406loPI   GL2 6486  19.086   1.600   9.509  0.3079 -0.0194 -0.1688
  406loPI   C1A 6487  19.204   1.978   9.167  0.1833  0.0732  0.1223
  406loPI   C2A 6488  19.172   1.966   8.707 -0.1880 -0.0843 -0.0513
  406loPI   C3A 6489  19.173   2.143   8.309  0.1695 -0.2580  0.0742
  406loPI   C4A 6490  19.041   2.037   7.865  0.1846 -0.1110  0.0148
  406loPI   C5A 6491  19.162   1.824   7.533 -0.0224  0.2684 -0.0961
  406loPI   C6A 6492  18.902   1.482   7.259 -0.4086 -0.0553 -0.2322
  406loPI   C1B 6493  19.210   1.512   9.045  0.2758  0.0724 -0.1760
  406loPI   C2B 6494  18.960   1.428   8.636 -0.3089 -0.3857 -0.2084
  406loPI   C3B 6495  18.951   1.299   8.265 -0.2133  0.1960 -0.0777
  406loPI   C4B 6496  18.576   1.069   8.106  0.0136  0.0741  0.0016
  407loPI    C1 6497  12.358   2.773   9.930  0.0420  0.2012  0.0924
  407loPI    C2 6498  12.003   2.658  10.072  0.0077  0.1517 -0.0322
  407loPI    C3 6499  12.116   3.041  10.103 -0.0862  0.1817 -0.0556
  407loPI   PO4 6500  12.400   2.571   9.620 -0.0990 -0.1699  0.2681
  407loPI   GL1 6501  12.272   2.613   9.180 -0.1006 -0.2003 -0.0043
  407loPI   GL2 6502  12.341   2.880   9.165  0.1884  0.1486  0.3458
  407loPI   C1A 6503  12.295   2.549   8.761 -0.2322 -0.0288  0.4588
  407loPI   C2A 6504  12.232   2.774   8.309  0.1678  0.1159 -0.1014
  407loPI   C3A 6505  12.299   2.479   8.005 -0.1529 -0.1977  0.2359
  407loPI   C4A 6506  12.272   2.522   7.533  0.2721  0.0970  0.2786
  407loPI   C5A 6507  12.121   2.628   7.194  0.0731  0.1642  0.0603
  407loPI   C6A 6508  11.807   2.687   6.983  0.1639  0.0250  0.2702
  407loPI   C1B 6509  12.406   3.064   8.730  0.1112  0.2904  0.1264
  407loPI   C2B 6510  12.454   3.309   8.298 -0.0126  0.1565  0.1211
  407loPI   C3B 6511  12.231   3.588   7.929 -0.0552  0.4244 -0.0340
  407loPI   C4B 6512  12.033   3.531   7.546 -0.2002 -0.0072 -0.1284
  408loPI    C1 6513   5.106  15.539   9.792  0.0410 -0.0486  0.1229
  408loPI    C2 6514   4.708  15.540   9.831  0.0045  0.4802 -0.1661
  408loPI    C3 6515   4.874  15.446   9.480  0.1520  0.0183  0.0196
  408loPI   PO4 6516   5.174  15.340   9.948  0.1988 -0.3064 -0.1560
  408loPI   GL1 6517   5.512  15.061   9.637  0.4259 -0.3315 -0.0530
  408loPI   GL2 6518   5.203  15.045   9.558  0.1617 -0.0885 -0.3507
  408loPI   C1A 6519   5.684  15.041   9.308 -0.0633 -0.0741  0.2789
  408loPI   C2A 6520   5.628  15.347   8.938 -0.3193  0.0009 -0.1283
  408loPI   C3A 6521   5.676  15.470   8.517  0.0660  0.0661  0.2622
  408loPI   C4A 6522   5.707  15.416   8.112 -0.2325 -0.0773  0.3246
  408loPI   C5A 6523   5.679  15.596   7.718  0.2748  0.0579 -0.0177
  408loPI   C6A 6524   5.755  15.759   7.376  0.3195  0.0415  0.0334
  408loPI   C1B 6525   5.157  15.218   9.107  0.2659  0.2125 -0.1791
  408loPI   C2B 6526   5.237  15.172   8.564 -0.0767  0.2663  0.3549
  408loPI   C3B 6527   5.007  14.974   8.299 -0.0949  0.4399  0.0193
  408loPI   C4B 6528   4.821  14.991   7.804 -0.3460 -0.1297 -0.0638
  409loPI    C1 6529  14.123  13.253   9.821  0.1358 -0.2244  0.1734
  409loPI    C2 6530  14.224  13.005  10.118  0.1090 -0.0042  0.3687
  409loPI    C3 6531  13.901  13.239  10.153 -0.0334 -0.1494  0.0649
  409loPI   PO4 6532  14.071  13.192   9.598  0.0715  0.0404  0.0380
  409loPI   GL1 6533  13.742  13.175   9.350  0.0843 -0.1695  0.4628
  409loPI   GL2 6534  13.770  13.381   9.165 -0.0494 -0.1997  0.2437
  409loPI   C1A 6535  13.453  12.983   9.072 -0.2300 -0.0086 -0.0004
  409loPI   C2A 6536  13.521  12.806   8.708  0.0588  0.2404 -0.0288
  409loPI   C3A 6537  13.337  12.697   8.338 -0.2935  0.0398 -0.2001
  409loPI   C4A 6538  13.355  12.661   7.810 -0.2276  0.3476  0.0815
  409loPI   C5A 6539  13.371  12.607   7.432 -0.2194 -0.0015  0.0015
  409loPI   C6A 6540  13.392  12.624   7.000  0.1689  0.2550 -0.0119
  409loPI   C1B 6541  13.752  13.306   8.656 -0.0839  0.1344  0.0550
  409loPI   C2B 6542  13.657  13.289   8.250  0.0383 -0.2138 -0.0683
  409loPI   C3B 6543  13.695  13.386   7.746 -0.0817 -0.3565 -0.1142
  409loPI   C4B 6544  13.901  13.627   7.344  0.4347 -0.0504  0.1984
  410loPI    C1 6545   4.572  18.792   9.601  0.1309 -0.0816  0.1485
  410loPI    C2 6546   4.408  19.149   9.676 -0.2964 -0.2351 -0.0230
  410loPI    C3 6547   4.547  18.925   9.977 -0.0332  0.0676  0.0862
  410loPI   PO4 6548   4.642  18.721   9.370 -0.0881 -0.0929  0.2245
  410loPI   GL1 6549   4.580  18.368   8.924  0.5958 -0.0752  0.1371
  410loPI   GL2 6550   4.365  18.544   8.900  0.1574  0.1554 -0.1486
  410loPI   C1A 6551   4.612  18.204   8.554  0.1927  0.3481  0.0995
  410loPI   C2A 6552   4.448  17.866   8.286  0.2330  0.1202 -0.0411
  410loPI   C3A 6553   4.043  17.726   8.046 -0.1634  0.1088 -0.5869
  410loPI   C4A 6554   3.793  17.747   7.697 -0.0435  0.2414  0.1096
  410loPI   C5A 6555   3.729  18.035   7.418  0.1221 -0.0418  0.1518
  410loPI   C6A 6556   3.338  18.268   7.322 -0.2725  0.3915  0.1214
  410loPI   C1B 6557   4.235  18.507   8.543  0.0988  0.1539  0.3101
  410loPI   C2B 6558   4.258  18.395   8.155 -0.1831 -0.0021  0.0313
  410loPI   C3B 6559   4.412  18.044   7.833 -0.1298 -0.1658  0.0556
  410loPI   C4B 6560   4.223  17.764   7.527  0.2119  0.1904 -0.4865
  411loPI    C1 6561   2.802  18.294  10.113  0.0444 -0.2138 -0.0336
  411loPI    C2 6562   2.986  17.939  10.132  0.1881 -0.1267  0.2539
  411loPI    C3 6563   2.849  18.112  10.466 -0.1039 -0.0251  0.0851
  411loPI   PO4 6564   2.649  18.300   9.848  0.3647 -0.0610  0.2706
  411loPI   GL1 6565   2.433  18.109   9.481 -0.0509  0.2501 -0.1224
  411loPI   GL2 6566   2.120  18.106   9.401 -0.0144  0.0595 -0.2508
  411loPI   C1A 6567   2.430  18.266   9.028  0.0683  0.2575  0.0213
  411loPI   C2A 6568   2.414  18.061   8.765 -0.0751 -0.2426  0.1216
  411loPI   C3A 6569   2.455  18.033   8.337 -0.2601  0.0209  0.1926
  411loPI   C4A 6570   2.418  18.210   7.935 -0.0590 -0.2458 -0.3024
  411loPI   C5A 6571   2.633  18.454   7.669  0.1155 -0.0390 -0.2232
  411loPI   C6A 6572   2.960  18.491   7.606  0.1800  0.2841  0.1655
  411loPI   C1B 6573   1.857  18.482   9.328  0.3501  0.1049 -0.0719
  411loPI   C2B 6574   1.670  18.664   9.020  0.0512  0.3683  0.0658
  411loPI   C3B 6575   1.249  18.788   8.986  0.0271  0.1049 -0.0078
  411loPI   C4B 6576   1.075  18.535   8.673  0.0427 -0.0424 -0.2100
  412loPI    C1 6577   8.918   8.251  10.062  0.1475  0.0379  0.1020
  412loPI    C2 6578   8.915   8.306  10.458 -0.2401 -0.0648  0.1169
  412loPI    C3 6579   8.639   8.073  10.286  0.3466 -0.6026 -0.1367
  412loPI   PO4 6580   9.162   8.234   9.979  0.0461 -0.2349 -0.0797
  412loPI   GL1 6581   8.986   8.128   9.557 -0.1198 -0.2182 -0.0997
  412loPI   GL2 6582   9.340   7.945   9.548 -0.1749 -0.2822  0.1233
  412loPI   C1A 6583   8.812   8.472   9.220 -0.0606 -0.0031 -0.1161
  412loPI   C2A 6584   8.776   8.602   8.866 -0.2680 -0.1608  0.1651
  412loPI   C3A 6585   8.639   8.730   8.416 -0.1952 -0.0914  0.1522
  412loPI   C4A 6586   8.704   8.845   8.015 -0.0560 -0.0675 -0.1768
  412loPI   C5A 6587   8.388   9.014   7.726 -0.0765  0.1742 -0.1483
  412loPI   C6A 6588   7.960   9.062   7.585  0.0039 -0.1682 -0.0924
  412loPI   C1B 6589   9.478   7.904   9.128 -0.2354  0.1342  0.1396
  412loPI   C2B 6590   9.288   7.720   8.838  0.1190 -0.0566 -0.0903
  412loPI   C3B 6591   8.820   7.662   8.624  0.1239 -0.1885  0.3534
  412loPI   C4B 6592   8.710   7.369   8.302  0.0008 -0.2695 -0.0806
  413loPI    C1 6593   3.206  17.315  10.089 -0.0041 -0.0576 -0.0820
  413loPI    C2 6594   3.374  16.997   9.913 -0.0932 -0.1136 -0.0668
  413loPI    C3 6595   3.024  16.959  10.103 -0.0241 -0.0420  0.0771
  413loPI   PO4 6596   3.194  17.575   9.865  0.0061  0.4891 -0.2645
  413loPI   GL1 6597   3.041  17.674   9.436 -0.0440  0.0888  0.2224
  413loPI   GL2 6598   3.062  17.357   9.334 -0.1483  0.4052 -0.0470
  413loPI   C1A 6599   2.712  17.842   9.092 -0.5508  0.0242 -0.0706
  413loPI   C2A 6600   2.674  17.636   8.752 -0.1698 -0.2469 -0.0362
  413loPI   C3A 6601   2.813  17.623   8.374  0.1445  0.2131  0.1467
  413loPI   C4A 6602   2.975  17.647   7.955 -0.0146 -0.1327  0.1506
  413loPI   C5A 6603   3.188  17.587   7.612  0.1679 -0.0385  0.3618
  413loPI   C6A 6604   3.339  17.538   7.250  0.0567 -0.1188 -0.2223
  413loPI   C1B 6605   3.106  17.430   8.895 -0.1362  0.0032 -0.4587
  413loPI   C2B 6606   3.294  17.509   8.407 -0.0053 -0.1507 -0.0859
  413loPI   C3B 6607   3.530  17.750   8.133 -0.5806 -0.1307  0.0917
  413loPI   C4B 6608   3.390  18.092   7.877  0.4692  0.1108  0.2050
  414loPI    C1 6609   1.122   8.679  10.593 -0.3250 -0.2501  0.3034
  414loPI    C2 6610   1.272   9.039  10.683 -0.3007 -0.1646 -0.0648
  414loPI    C3 6611   1.138   8.800  10.974 -0.3442  0.1525  0.1814
  414loPI   PO4 6612   0.967   8.780  10.328 -0.0621  0.0239 -0.2012
  414loPI   GL1 6613   0.931   8.658   9.927 -0.1207  0.0203  0.0962
  414loPI   GL2 6614   1.177   8.362   9.840 -0.2343  0.1188  0.3164
  414loPI   C1A 6615   0.738   8.846   9.621  0.0543 -0.1347  0.0412
  414loPI   C2A 6616   0.703   8.778   9.192  0.2846  0.1659 -0.0893
  414loPI   C3A 6617   1.013   8.585   8.819  0.2354 -0.3155 -0.5017
  414loPI   C4A 6618   0.802   8.583   8.458  0.2951 -0.0444  0.2040
  414loPI   C5A 6619   0.636   8.299   8.177 -0.3790 -0.1912  0.1937
  414loPI   C6A 6620   0.631   7.999   7.813  0.3515  0.1126 -0.2515
  414loPI   C1B 6621   0.849   8.390   9.504  0.0074  0.0492 -0.3540
  414loPI   C2B 6622   0.612   8.256   9.108 -0.0467 -0.2706 -0.2383
  414loPI   C3B 6623   0.256   8.033   8.974  0.1093 -0.1529  0.1034
  414loPI   C4B 6624  -0.077   7.714   8.861 -0.1073 -0.5062 -0.0553
  415loPI    C1 6625  18.102   1.974   9.787 -0.0487 -0.1299  0.0680
  415loPI    C2 6626  17.895   2.101  10.104 -0.1640 -0.0672 -0.0318
  415loPI    C3 6627  17.983   2.355   9.808  0.1066 -0.0788  0.0366
  415loPI   PO4 6628  18.126   1.785   9.595 -0.1513  0.2439  0.0670
  415loPI   GL1 6629  18.271   1.784   9.171  0.0653  0.0916 -0.0539
  415loPI   GL2 6630  18.037   1.936   8.981 -0.2131 -0.1772 -0.1939
  415loPI   C1A 6631  18.243   1.570   8.677 -0.0625 -0.0443 -0.0751
  415loPI   C2A 6632  18.468   1.654   8.434  0.0356 -0.4145  0.1022
  415loPI   C3A 6633  18.631   1.829   8.042 -0.0905 -0.0889  0.0259
  415loPI   C4A 6634  18.584   1.918   7.582  0.0924  0.1928  0.0849
  415loPI   C5A 6635  18.188   2.004   7.373 -0.2198 -0.2234 -0.3449
  415loPI   C6A 6636  17.928   1.821   7.155  0.0504 -0.0438  0.0666
  415loPI   C1B 6637  18.212   2.059   8.629  0.0707 -0.0890  0.2390
  415loPI   C2B 6638  18.331   2.274   8.227 -0.0967  0.2194  0.0840
  415loPI   C3B 6639  18.157   2.244   7.931 -0.2091  0.1774 -0.1958
  415loPI   C4B 6640  17.777   2.180   7.588  0.1244  0.0076 -0.1378
  416loPI    C1 6641   1.903  13.013  10.560 -0.1642 -0.0578  0.3874
  416loPI    C2 6642   1.521  13.052  10.674 -0.2187  0.1143  0.1523
  416loPI    C3 6643   1.802  13.293  10.827 -0.2581  0.2055  0.0822
  416loPI   PO4 6644   1.911  13.082  10.297  0.0068  0.1429  0.1921
  416loPI   GL1 6645   1.903  12.801   9.933 -0.0287  0.0803 -0.2713
  416loPI   GL2 6646   1.705  12.639  10.095  0.0170  0.2639  0.1924
  416loPI   C1A 6647   1.961  12.745   9.581  0.1140  0.0834  0.0683
  416loPI   C2A 6648   2.202  12.969   9.182 -0.2475 -0.1260  0.1426
  416loPI   C3A 6649   2.360  13.224   8.826 -0.0832  0.2210 -0.2704
  416loPI   C4A 6650   2.652  13.322   8.514  0.4301 -0.2764  0.0580
  416loPI   C5A 6651   2.708  13.484   8.156  0.0764  0.0787 -0.3319
  416loPI   C6A 6652   2.682  13.518   7.757 -0.4986 -0.1982  0.1267
  416loPI   C1B 6653   1.512  12.500   9.671  0.2418 -0.0219 -0.1000
  416loPI   C2B 6654   1.303  12.235   9.364 -0.2974 -0.1828 -0.1583
  416loPI   C3B 6655   1.375  12.101   8.966  0.3649 -0.0937 -0.4015
  416loPI   C4B 6656   1.183  12.178   8.509  0.3214  0.0438 -0.4199
  417loPI    C1 6657   6.281   9.228  10.222 -0.0391 -0.1147 -0.0395
  417loPI    C2 6658   6.173   9.122  10.592 -0.0692  0.1317  0.0241
  417loPI    C3 6659   6.341   9.479  10.528  0.0368  0.0457 -0.1846
  417loPI   PO4 6660   6.443   8.961  10.141 -0.0699 -0.2026  0.0607
  417loPI   GL1 6661   6.378   8.781   9.859 -0.0524 -0.3537 -0.0706
  417loPI   GL2 6662   6.282   9.144   9.684 -0.3030  0.0770 -0.2096
  417loPI   C1A 6663   6.267   8.653   9.524  0.1943  0.4285 -0.1501
  417loPI   C2A 6664   6.287   8.717   9.002 -0.4249  0.0536 -0.4168
  417loPI   C3A 6665   6.262   8.793   8.588  0.0283  0.0534  0.0843
  417loPI   C4A 6666   6.284   8.879   8.210 -0.1226  0.4481  0.1214
  417loPI   C5A 6667   6.295   8.882   7.729  0.0212 -0.3139  0.1742
  417loPI   C6A 6668   6.637   9.038   7.403 -0.0251 -0.1944 -0.1763
  417loPI   C1B 6669   6.161   9.109   9.278  0.1638 -0.0301  0.1303
  417loPI   C2B 6670   6.107   9.169   8.850 -0.2998 -0.1227 -0.0189
  417loPI   C3B 6671   6.115   9.347   8.433 -0.1047 -0.0391 -0.1177
  417loPI   C4B 6672   6.375   9.372   8.059  0.1324  0.0512  0.1155
  418loPI    C1 6673  15.911   9.677   9.735  0.1107  0.1142  0.0464
  418loPI    C2 6674  16.027   9.378   9.974  0.1838  0.0947 -0.0130
  418loPI    C3 6675  15.647   9.399   9.850  0.1066  0.1936  0.2328
  418loPI   PO4 6676  16.080   9.716   9.606  0.1838  0.0340 -0.1973
  418loPI   GL1 6677  16.189   9.558   9.346 -0.1201  0.0201 -0.3390
  418loPI   GL2 6678  16.120   9.413   9.073  0.0613 -0.1676 -0.0127
  418loPI   C1A 6679  16.479   9.767   9.025  0.0226 -0.1139 -0.1263
  418loPI   C2A 6680  16.483   9.749   8.557  0.2938 -0.2604  0.1124
  418loPI   C3A 6681  16.408   9.691   8.126 -0.1966  0.1006 -0.0465
  418loPI   C4A 6682  16.339   9.711   7.626  0.0917  0.0323  0.1792
  418loPI   C5A 6683  16.243   9.767   7.341 -0.0692 -0.0168 -0.0794
  418loPI   C6A 6684  16.378  10.097   7.053  0.2252  0.0075 -0.0617
  418loPI   C1B 6685  16.316   9.226   8.839  0.2600  0.0767 -0.1513
  418loPI   C2B 6686  16.674   9.154   8.529  0.0226 -0.1469 -0.2232
  418loPI   C3B 6687  16.835   9.510   8.270 -0.0507  0.0185  0.2025
  418loPI   C4B 6688  17.146   9.681   7.945  0.0228  0.2237 -0.0373
  419loPI    C1 6689  12.105   8.979   9.518  0.1279  0.1318 -0.0224
  419loPI    C2 6690  12.372   9.222   9.690  0.0207 -0.0474  0.4098
  419loPI    C3 6691  11.982   9.263   9.772 -0.0437 -0.0694  0.1230
  419loPI   PO4 6692  12.145   8.969   9.251  0.1605 -0.0780 -0.0919
  419loPI   GL1 6693  12.346   9.274   8.786  0.0771  0.2572 -0.0681
  419loPI   GL2 6694  12.320   9.561   8.783  0.1746  0.0232 -0.0666
  419loPI   C1A 6695  12.538   9.198   8.404  0.0811  0.0628  0.0614
  419loPI   C2A 6696  12.624   9.310   7.989  0.2120  0.1570 -0.1111
  419loPI   C3A 6697  12.866   9.382   7.654 -0.1718 -0.2387  0.3501
  419loPI   C4A 6698  13.127   9.344   7.179 -0.1147  0.0658 -0.0994
  419loPI   C5A 6699  12.874   9.547   6.965 -0.1130  0.0765  0.1012
  419loPI   C6A 6700  12.586   9.823   7.140 -0.1958 -0.2324 -0.1274
  419loPI   C1B 6701  12.223   9.630   8.285  0.1163 -0.2257  0.1681
  419loPI   C2B 6702  12.272   9.764   7.940  0.3694 -0.3020  0.2919
  419loPI   C3B 6703  12.454   9.595   7.574  0.0265 -0.1104  0.1867
  419loPI   C4B 6704  12.598   9.210   7.260  0.1381  0.1876  0.0129
  420loPI    C1 6705   7.107   3.306  10.039 -0.2770  0.0684  0.0990
  420loPI    C2 6706   7.003   2.950  10.191 -0.0038 -0.1637 -0.2398
  420loPI    C3 6707   7.390   3.042  10.145 -0.0712  0.1987 -0.1155
  420loPI   PO4 6708   7.034   3.265   9.798  0.3696 -0.3676  0.1666
  420loPI   GL1 6709   6.857   3.532   9.469 -0.0060  0.1405 -0.2079
  420loPI   GL2 6710   6.670   3.372   9.370  0.0006 -0.0263  0.1579
  420loPI   C1A 6711   6.841   3.681   8.976  0.0016 -0.0600 -0.1648
  420loPI   C2A 6712   6.774   3.631   8.658  0.2116  0.2480  0.1312
  420loPI   C3A 6713   6.408   3.592   8.298 -0.0872 -0.3604 -0.2849
  420loPI   C4A 6714   6.221   3.292   7.859 -0.3469  0.1596  0.1116
  420loPI   C5A 6715   6.142   2.905   7.624  0.1826  0.0012  0.1695
  420loPI   C6A 6716   6.215   2.462   7.357  0.4176  0.0395  0.0097
  420loPI   C1B 6717   6.633   3.236   8.938 -0.0578  0.2273 -0.1420
  420loPI   C2B 6718   6.448   3.152   8.621 -0.4728 -0.1863  0.0594
  420loPI   C3B 6719   6.281   3.034   8.282  0.1428 -0.1694 -0.3391
  420loPI   C4B 6720   6.219   2.735   8.116  0.0750  0.1108  0.0529
  421loPI    C1 6721   0.167  17.948   9.551  0.1426 -0.0553  0.3980
  421loPI    C2 6722  -0.120  17.673   9.591 -0.0817  0.1023 -0.0641
  421loPI    C3 6723  -0.215  18.062   9.579  0.1470  0.1550 -0.2374
  421loPI   PO4 6724   0.357  17.749   9.388  0.1064 -0.2822  0.0166
  421loPI   GL1 6725   0.434  17.841   9.065 -0.2466 -0.0349  0.2136
  421loPI   GL2 6726   0.690  18.106   9.083 -0.1309 -0.1631  0.0742
  421loPI   C1A 6727   0.369  17.728   8.659 -0.2732  0.1750  0.1716
  421loPI   C2A 6728   0.363  17.709   8.230  0.4139 -0.0487  0.2679
  421loPI   C3A 6729   0.435  17.746   7.763 -0.0270  0.2037 -0.0373
  421loPI   C4A 6730   0.624  17.893   7.378 -0.2331 -0.2882  0.2568
  421loPI   C5A 6731   0.437  18.274   7.146 -0.2128  0.3418  0.0550
  421loPI   C6A 6732   0.312  18.603   7.053 -0.1238  0.0884 -0.1345
  421loPI   C1B 6733   0.790  18.091   8.655 -0.2453  0.1094  0.2272
  421loPI   C2B 6734   0.955  18.246   8.234  0.2125  0.1830 -0.0546
  421loPI   C3B 6735   0.857  18.161   7.774 -0.3224 -0.1849  0.1601
  421loPI   C4B 6736   1.016  18.194   7.388 -0.0744 -0.0821  0.0690
  422loPI    C1 6737   9.674  17.913   9.733 -0.0462 -0.4305 -0.0245
  422loPI    C2 6738   9.288  18.014   9.709  0.0797  0.1557  0.2388
  422loPI    C3 6739   9.420  17.799  10.020 -0.0238 -0.0082  0.1707
  422loPI   PO4 6740   9.785  17.836   9.447 -0.0164 -0.0465 -0.1624
  422loPI   GL1 6741   9.677  18.069   9.037  0.1808  0.1342  0.1467
  422loPI   GL2 6742   9.905  18.334   8.963  0.3054  0.2442  0.1668
  422loPI   C1A 6743   9.594  18.090   8.575 -0.1579 -0.1567 -0.0574
  422loPI   C2A 6744   9.688  18.002   8.148  0.3285 -0.2003  0.0587
  422loPI   C3A 6745   9.872  17.940   7.670 -0.1057 -0.2216 -0.3374
  422loPI   C4A 6746   9.874  17.751   7.318 -0.2230 -0.0673 -0.3071
  422loPI   C5A 6747   9.667  17.572   7.040 -0.2225 -0.1361  0.4765
  422loPI   C6A 6748   9.335  17.629   6.689  0.1165  0.1312 -0.0390
  422loPI   C1B 6749  10.028  18.425   8.443 -0.3665  0.0507 -0.0709
  422loPI   C2B 6750   9.881  18.445   8.038 -0.1581 -0.1953  0.1115
  422loPI   C3B 6751   9.600  18.391   7.727 -0.0505  0.2929  0.0025
  422loPI   C4B 6752   9.338  18.153   7.543  0.0372  0.0007  0.0661
  423loPI    C1 6753   9.090   7.754  10.096 -0.0769  0.0871  0.2445
  423loPI    C2 6754   9.381   7.606  10.328  0.0461  0.1954  0.1607
  423loPI    C3 6755   9.056   7.770  10.495  0.0025  0.0158  0.2543
  423loPI   PO4 6756   9.161   7.475   9.851 -0.0318 -0.2001  0.1281
  423loPI   GL1 6757   8.925   7.411   9.574  0.0184  0.1631 -0.0635
  423loPI   GL2 6758   8.655   7.471   9.525 -0.2975 -0.0016 -0.0762
  423loPI   C1A 6759   8.887   7.733   9.188  0.0216 -0.2050 -0.0594
  423loPI   C2A 6760   8.783   8.096   8.866  0.2025 -0.4830 -0.1082
  423loPI   C3A 6761   8.852   8.151   8.452 -0.1011 -0.3138  0.0429
  423loPI   C4A 6762   8.894   7.917   7.962  0.1979  0.1375  0.2377
  423loPI   C5A 6763   8.998   8.050   7.482 -0.2447  0.0264 -0.0791
  423loPI   C6A 6764   9.153   7.960   7.025 -0.1142  0.1480  0.1450
  423loPI   C1B 6765   8.589   7.313   9.089  0.0315  0.1539  0.2532
  423loPI   C2B 6766   8.433   7.329   8.712  0.1780 -0.0754  0.0729
  423loPI   C3B 6767   8.233   7.346   8.294  0.2096  0.2241  0.0492
  423loPI   C4B 6768   7.986   7.405   7.869 -0.1728 -0.0697 -0.1794
  424loPI    C1 6769  10.855   5.788   9.863 -0.1669  0.0185 -0.2776
  424loPI    C2 6770  10.918   5.411   9.983  0.0050  0.0965 -0.1193
  424loPI    C3 6771  10.770   5.681  10.239  0.0650  0.1837 -0.1760
  424loPI   PO4 6772  10.803   5.709   9.607 -0.2790  0.1430 -0.1333
  424loPI   GL1 6773  10.760   5.664   9.169  0.3077  0.1140  0.2469
  424loPI   GL2 6774  10.707   5.944   9.015 -0.0080 -0.1621 -0.1127
  424loPI   C1A 6775  10.805   5.454   8.779  0.0696  0.0830  0.2461
  424loPI   C2A 6776  10.784   5.536   8.258 -0.4690 -0.2477 -0.0266
  424loPI   C3A 6777  10.912   5.725   7.786 -0.4504 -0.0405  0.0210
  424loPI   C4A 6778  11.127   5.699   7.423 -0.1496  0.3004 -0.0051
  424loPI   C5A 6779  11.270   5.725   6.996 -0.1548  0.0801 -0.0400
  424loPI   C6A 6780  11.143   5.682   6.574 -0.2231 -0.0387  0.2791
  424loPI   C1B 6781  10.602   5.921   8.613 -0.0542  0.3365 -0.2151
  424loPI   C2B 6782  10.523   6.045   8.165 -0.2966 -0.0838  0.2085
  424loPI   C3B 6783  10.604   6.134   7.738 -0.0250  0.1347  0.2464
  424loPI   C4B 6784  10.726   5.969   7.305  0.0961 -0.0455 -0.0539
  425loPI    C1 6785  14.478  17.337   9.442  0.1253 -0.0315  0.1463
  425loPI    C2 6786  14.847  17.185   9.439  0.2101  0.1719 -0.0473
  425loPI    C3 6787  14.764  17.510   9.223 -0.1798 -0.1022 -0.3226
  425loPI   PO4 6788  14.220  17.164   9.337  0.2070 -0.1001  0.0220
  425loPI   GL1 6789  14.045  17.134   9.005  0.1749  0.1787  0.0610
  425loPI   GL2 6790  13.874  16.960   8.769  0.0952  0.0542 -0.1859
  425loPI   C1A 6791  14.062  17.360   8.618 -0.0218 -0.2094  0.2273
  425loPI   C2A 6792  14.027  17.551   8.261  0.0915 -0.2734  0.2000
  425loPI   C3A 6793  13.847  17.598   7.876  0.1596  0.2528 -0.0038
  425loPI   C4A 6794  14.097  17.841   7.636 -0.0942  0.0601 -0.1208
  425loPI   C5A 6795  14.175  17.802   7.155 -0.1280  0.0760 -0.3493
  425loPI   C6A 6796  14.228  17.697   6.718 -0.1595  0.1441  0.1773
  425loPI   C1B 6797  13.642  16.922   8.433  0.0616 -0.1115  0.2976
  425loPI   C2B 6798  13.582  16.880   7.971 -0.1680  0.0339  0.2090
  425loPI   C3B 6799  13.565  16.856   7.522 -0.4414 -0.5664  0.0997
  425loPI   C4B 6800  13.753  16.876   7.144 -0.0166 -0.0962  0.0638
  426loPI    C1 6801   2.283  17.218   9.596 -0.1043  0.1625 -0.0802
  426loPI    C2 6802   2.524  17.410   9.342  0.1371  0.1941  0.1675
  426loPI    C3 6803   2.252  17.614   9.552 -0.0280  0.1750 -0.0251
  426loPI   PO4 6804   2.157  16.959   9.476  0.2257 -0.5235 -0.0474
  426loPI   GL1 6805   2.238  17.045   9.081 -0.0661  0.0751 -0.0356
  426loPI   GL2 6806   2.089  17.417   9.105  0.1245 -0.0855  0.2999
  426loPI   C1A 6807   2.054  17.104   8.722 -0.0512  0.2993  0.0887
  426loPI   C2A 6808   1.997  17.043   8.353  0.2036  0.1904  0.0220
  426loPI   C3A 6809   1.861  17.297   8.041  0.0644 -0.1094  0.2398
  426loPI   C4A 6810   1.844  17.707   7.762 -0.0563  0.0228 -0.0018
  426loPI   C5A 6811   1.931  17.784   7.362 -0.4588 -0.0003 -0.0743
  426loPI   C6A 6812   2.306  17.879   7.095 -0.0653  0.0294 -0.1068
  426loPI   C1B 6813   2.145  17.567   8.696  0.1623  0.0533 -0.0139
  426loPI   C2B 6814   2.282  17.531   8.310  0.1015  0.1478 -0.0484
  426loPI   C3B 6815   2.448  17.664   7.997  0.0168  0.3683 -0.0445
  426loPI   C4B 6816   2.379  17.702   7.544 -0.3742 -0.1197  0.3391
  427loPI    C1 6817  10.627   3.708   9.506  0.1451 -0.0897 -0.0408
  427loPI    C2 6818  10.392   3.992   9.662  0.0912 -0.1160 -0.0738
  427loPI    C3 6819  10.775   3.965   9.775  0.1168  0.0165 -0.1259
  427loPI   PO4 6820  10.577   3.706   9.260  0.2747  0.2432  0.2111
  427loPI   GL1 6821  10.279   3.911   9.139  0.0697  0.1959  0.1555
  427loPI   GL2 6822  10.184   3.615   8.932 -0.1673 -0.1035  0.0479
  427loPI   C1A 6823  10.349   4.006   8.636 -0.2422 -0.0525 -0.1474
  427loPI   C2A 6824  10.245   4.076   8.269 -0.2762 -0.0661 -0.0715
  427loPI   C3A 6825  10.257   4.074   7.920 -0.2080 -0.1905 -0.1469
  427loPI   C4A 6826  10.332   4.089   7.561  0.1806 -0.0153 -0.1168
  427loPI   C5A 6827  10.181   4.096   7.125  0.1634 -0.0595 -0.0273
  427loPI   C6A 6828  10.304   3.877   6.845  0.0929 -0.1837  0.2367
  427loPI   C1B 6829  10.228   3.547   8.523  0.0709  0.1815  0.0872
  427loPI   C2B 6830  10.465   3.650   8.134 -0.0127 -0.3341  0.2787
  427loPI   C3B 6831  10.599   3.711   7.668 -0.3332 -0.3645 -0.0612
  427loPI   C4B 6832  10.647   4.059   7.234 -0.0681  0.4659  0.0576
  428loPI    C1 6833   7.085  12.301  10.311  0.0135 -0.0216  0.0763
  428loPI    C2 6834   7.131  12.111   9.962 -0.0177  0.2766 -0.0928
  428loPI    C3 6835   7.028  11.906  10.289  0.3972 -0.0684 -0.1696
  428loPI   PO4 6836   7.041  12.564  10.237  0.0601  0.0895  0.0725
  428loPI   GL1 6837   6.978  12.763   9.795 -0.1329 -0.1731 -0.1762
  428loPI   GL2 6838   7.296  12.989   9.681  0.0604  0.1185  0.1584
  428loPI   C1A 6839   6.733  12.825   9.411  0.1944  0.1588  0.1716
  428loPI   C2A 6840   6.669  12.757   8.921  0.3136  0.4537 -0.2147
  428loPI   C3A 6841   6.608  12.728   8.485 -0.4335 -0.0581 -0.1150
  428loPI   C4A 6842   6.525  12.774   8.091  0.0549 -0.1435  0.1315
  428loPI   C5A 6843   6.505  13.177   7.781  0.1735  0.0133 -0.0807
  428loPI   C6A 6844   6.508  13.315   7.340  0.0491 -0.1143  0.1124
  428loPI   C1B 6845   7.218  13.044   9.295 -0.5063 -0.1514  0.2667
  428loPI   C2B 6846   7.192  12.882   8.891  0.1526  0.1506 -0.0479
  428loPI   C3B 6847   7.176  12.544   8.614 -0.2133  0.2109 -0.1162
  428loPI   C4B 6848   6.939  12.371   8.277  0.1031  0.0792 -0.0386
  429loPI    C1 6849  13.457  14.681   9.738 -0.0091 -0.1677  0.0888
  429loPI    C2 6850  13.222  14.972   9.880  0.0103 -0.2305  0.2517
  429loPI    C3 6851  13.543  14.856  10.087  0.1308 -0.2127  0.0772
  429loPI   PO4 6852  13.550  14.766   9.434  0.3100 -0.4957 -0.0052
  429loPI   GL1 6853  13.841  14.508   9.049  0.1595  0.0413 -0.0298
  429loPI   GL2 6854  13.614  14.375   9.092 -0.0522  0.2293  0.3240
  429loPI   C1A 6855  13.949  14.639   8.541  0.0750  0.0624 -0.0168
  429loPI   C2A 6856  13.947  14.551   8.117 -0.1573 -0.1513  0.0556
  429loPI   C3A 6857  14.007  14.542   7.723 -0.0082 -0.3314  0.3000
  429loPI   C4A 6858  14.044  14.452   7.288  0.1063 -0.3536 -0.1265
  429loPI   C5A 6859  13.892  14.200   7.084  0.1413 -0.2545 -0.0746
  429loPI   C6A 6860  13.842  14.307   6.602 -0.2279 -0.0986  0.2115
  429loPI   C1B 6861  13.664  14.279   8.677 -0.0564  0.1125 -0.2574
  429loPI   C2B 6862  13.766  14.172   8.289  0.0967 -0.0799 -0.0782
  429loPI   C3B 6863  14.032  14.038   8.002  0.0382 -0.4474 -0.2558
  429loPI   C4B 6864  14.090  14.019   7.539 -0.2374 -0.0326 -0.2769
  430loPI    C1 6865   8.809  14.260   9.805 -0.1167  0.0607  0.0024
  430loPI    C2 6866   8.816  14.475   9.468  0.4182 -0.0316 -0.0539
  430loPI    C3 6867   9.086  14.544   9.755  0.0925 -0.0906  0.2733
  430loPI   PO4 6868   8.594  14.132   9.775  0.1572 -0.0507 -0.0459
  430loPI   GL1 6869   8.241  13.899   9.418 -0.3704 -0.2409 -0.3520
  430loPI   GL2 6870   8.126  13.591   9.229  0.1465 -0.3694  0.2529
  430loPI   C1A 6871   8.256  14.154   9.024 -0.1260  0.1050  0.0427
  430loPI   C2A 6872   8.144  14.095   8.478 -0.1851 -0.0205 -0.0432
  430loPI   C3A 6873   7.893  13.774   8.326  0.2167 -0.1351 -0.0250
  430loPI   C4A 6874   7.780  13.615   7.956  0.0312  0.0630  0.0053
  430loPI   C5A 6875   8.003  13.625   7.570  0.1281  0.1417 -0.0163
  430loPI   C6A 6876   8.353  13.485   7.432  0.3284 -0.0109 -0.2011
  430loPI   C1B 6877   8.134  13.291   8.932 -0.4106 -0.1157  0.2958
  430loPI   C2B 6878   8.040  13.144   8.519 -0.2342  0.1522 -0.0944
  430loPI   C3B 6879   8.077  13.254   8.077 -0.1557  0.1558  0.1384
  430loPI   C4B 6880   7.936  13.133   7.684 -0.0253  0.1204 -0.2029
  431loPI    C1 6881  15.174  17.984   9.327 -0.0397 -0.2661 -0.2323
  431loPI    C2 6882  15.147  17.658   9.557  0.0811 -0.0639  0.0752
  431loPI    C3 6883  14.898  17.966   9.617  0.0550 -0.0449 -0.1256
  431loPI   PO4 6884  15.158  17.774   8.978  0.0942 -0.0299 -0.0111
  431loPI   GL1 6885  15.456  17.600   8.652  0.0135 -0.0034 -0.5234
  431loPI   GL2 6886  15.215  17.631   8.536  0.0687 -0.1258 -0.1670
  431loPI   C1A 6887  15.704  17.718   8.287 -0.2244 -0.2570  0.2076
  431loPI   C2A 6888  15.813  17.667   7.904 -0.2742 -0.2049 -0.0821
  431loPI   C3A 6889  15.876  17.683   7.522 -0.2858  0.0971  0.2082
  431loPI   C4A 6890  16.297  17.683   7.315  0.0295  0.0976  0.2131
  431loPI   C5A 6891  16.623  17.821   7.137 -0.1165  0.2452 -0.0879
  431loPI   C6A 6892  16.886  18.050   6.874  0.1670  0.1919  0.2126
  431loPI   C1B 6893  15.039  17.614   8.277 -0.0204 -0.2699  0.4140
  431loPI   C2B 6894  14.860  17.645   7.816 -0.3020  0.0678  0.0064
  431loPI   C3B 6895  15.002  17.644   7.335 -0.1504  0.3040  0.0069
  431loPI   C4B 6896  14.661  17.699   7.026  0.0807  0.2420  0.1520
  432loPI    C1 6897  11.890   1.288   9.594  0.0010  0.3635 -0.0618
  432loPI    C2 6898  11.674   1.106   9.878  0.1490 -0.1013 -0.2367
  432loPI    C3 6899  11.767   1.494   9.914 -0.0547 -0.0883  0.2171
  432loPI   PO4 6900  11.780   1.192   9.392  0.2251 -0.2116 -0.0818
  432loPI   GL1 6901  11.905   1.236   8.932 -0.0218  0.0745  0.1893
  432loPI   GL2 6902  12.022   0.925   9.011  0.1488 -0.0788  0.1863
  432loPI   C1A 6903  11.899   1.326   8.458  0.1901 -0.0232  0.0184
  432loPI   C2A 6904  12.032   1.178   8.045  0.0715  0.1294 -0.2753
  432loPI   C3A 6905  12.029   1.119   7.627  0.1892  0.1201  0.2362
  432loPI   C4A 6906  12.217   1.020   7.242  0.1838  0.3249  0.0343
  432loPI   C5A 6907  12.406   0.709   7.007 -0.3054 -0.2018 -0.0083
  432loPI   C6A 6908  12.472   0.342   6.804 -0.2618 -0.0695  0.5557
  432loPI   C1B 6909  12.212   0.848   8.660 -0.0965 -0.0646  0.0417
  432loPI   C2B 6910  12.361   0.828   8.282  0.0786 -0.1180 -0.0164
  432loPI   C3B 6911  12.556   0.689   7.940  0.1016 -0.2520 -0.4737
  432loPI   C4B 6912  12.582   0.639   7.480 -0.0905 -0.1817 -0.1858
  433loPI    C1 6913  15.319   3.959   9.379  0.0677 -0.1042  0.1562
  433loPI    C2 6914  15.528   3.646   9.243  0.0898 -0.0100 -0.0298
  433loPI    C3 6915  15.460   3.686   9.636  0.0936 -0.2431 -0.0039
  433loPI   PO4 6916  15.118   3.972   9.221  0.0393 -0.1240 -0.1703
  433loPI   GL1 6917  15.186   3.739   8.921  0.0999  0.1005 -0.0560
  433loPI   GL2 6918  15.203   3.457   8.900 -0.2440 -0.1226  0.0863
  433loPI   C1A 6919  15.183   3.883   8.435  0.3059 -0.1189 -0.2081
  433loPI   C2A 6920  14.994   4.035   8.021 -0.0768 -0.1803 -0.1268
  433loPI   C3A 6921  15.000   3.967   7.541 -0.1142 -0.0452 -0.2719
  433loPI   C4A 6922  15.079   3.637   7.266 -0.2865 -0.1341 -0.0989
  433loPI   C5A 6923  15.178   3.241   7.146 -0.0246  0.2566 -0.1987
  433loPI   C6A 6924  15.270   3.033   6.890  0.0840  0.1280 -0.2009
  433loPI   C1B 6925  15.483   3.434   8.508  0.2388 -0.1079 -0.0316
  433loPI   C2B 6926  15.560   3.496   8.055  0.0236 -0.2714  0.3455
  433loPI   C3B 6927  15.473   3.933   7.983 -0.0097  0.0578  0.1514
  433loPI   C4B 6928  15.450   4.179   7.627  0.1767  0.0478  0.0086
  434loPI    C1 6929   7.590  18.906   9.786  0.0162 -0.0663  0.1388
  434loPI    C2 6930   7.422  19.263   9.852  0.0119 -0.0340 -0.0424
  434loPI    C3 6931   7.395  18.976  10.128 -0.4020 -0.0523 -0.0960
  434loPI   PO4 6932   7.631  19.010   9.506  0.1254 -0.1185 -0.4840
  434loPI   GL1 6933   7.588  18.983   9.141 -0.0281 -0.2583  0.1192
  434loPI   GL2 6934   7.565  18.784   9.047 -0.1746  0.0621 -0.0545
  434loPI   C1A 6935   7.921  19.227   8.886 -0.0463 -0.1379 -0.5445
  434loPI   C2A 6936   8.182  19.093   8.540 -0.0907 -0.2632  0.1536
  434loPI   C3A 6937   8.281  19.187   8.173  0.0681  0.1099  0.3999
  434loPI   C4A 6938   8.179  19.012   7.844 -0.3530  0.1905 -0.0615
  434loPI   C5A 6939   8.069  18.914   7.396  0.2602 -0.3758 -0.0276
  434loPI   C6A 6940   8.291  18.742   7.104 -0.1768  0.1839 -0.3268
  434loPI   C1B 6941   7.413  18.739   8.574 -0.0589  0.1455  0.2674
  434loPI   C2B 6942   7.247  18.820   8.141 -0.1559  0.3479  0.1245
  434loPI   C3B 6943   6.858  18.956   8.021  0.1095 -0.0048  0.0172
  434loPI   C4B 6944   6.615  19.218   7.828  0.1237  0.0713  0.2038
  435loPI    C1 6945   8.514   8.580  10.055  0.1760 -0.0703  0.1697
  435loPI    C2 6946   8.154   8.596  10.228  0.0203 -0.1439 -0.1393
  435loPI    C3 6947   8.482   8.545  10.452 -0.1188  0.3244  0.1861
  435loPI   PO4 6948   8.454   8.391   9.815  0.0596  0.0160 -0.3626
  435loPI   GL1 6949   8.354   8.338   9.457 -0.2934 -0.2715 -0.1708
  435loPI   GL2 6950   8.442   7.974   9.364 -0.1483 -0.2984 -0.4005
  435loPI   C1A 6951   8.307   8.318   9.044 -0.4681 -0.0082  0.2994
  435loPI   C2A 6952   8.379   8.377   8.639 -0.4106  0.1206 -0.1072
  435loPI   C3A 6953   8.276   8.366   8.247  0.0190 -0.1530  0.1658
  435loPI   C4A 6954   8.493   8.255   7.877  0.3730  0.3152  0.1798
  435loPI   C5A 6955   8.272   8.152   7.456 -0.0119  0.0126  0.0084
  435loPI   C6A 6956   8.242   8.282   7.033 -0.0778  0.0559  0.1750
  435loPI   C1B 6957   8.363   7.823   8.945 -0.0655  0.4210  0.0956
  435loPI   C2B 6958   8.243   7.930   8.504  0.1855 -0.2033  0.2427
  435loPI   C3B 6959   7.952   7.865   8.185  0.2581  0.0007  0.4638
  435loPI   C4B 6960   7.834   8.160   7.717  0.0206 -0.0952 -0.2275
  436loPI    C1 6961  10.105   5.769   9.725  0.1009 -0.1141 -0.0332
  436loPI    C2 6962  10.344   5.645   9.429  0.0852  0.1597 -0.1632
  436loPI    C3 6963  10.385   5.491   9.796  0.2229 -0.0530 -0.2658
  436loPI   PO4 6964  10.056   5.998   9.565  0.0956 -0.2340  0.1710
  436loPI   GL1 6965  10.085   6.136   9.173 -0.1041  0.1702  0.2149
  436loPI   GL2 6966   9.755   6.090   9.109  0.0335 -0.1902  0.1107
  436loPI   C1A 6967  10.365   6.284   8.970 -0.0586 -0.1063  0.0757
  436loPI   C2A 6968  10.471   6.418   8.577 -0.0183 -0.1603 -0.2678
  436loPI   C3A 6969  10.472   6.554   8.147 -0.1965 -0.0980  0.2155
  436loPI   C4A 6970  10.595   6.652   7.762 -0.2357 -0.4185 -0.2073
  436loPI   C5A 6971  10.608   6.519   7.405 -0.0717 -0.2940 -0.3889
  436loPI   C6A 6972  10.236   6.290   7.217 -0.0934  0.0001 -0.0285
  436loPI   C1B 6973  10.025   5.981   8.692  0.1992  0.2998  0.2206
  436loPI   C2B 6974   9.900   5.901   8.326  0.0561 -0.0141 -0.1573
  436loPI   C3B 6975   9.830   5.788   7.911  0.1858 -0.0822 -0.2266
  436loPI   C4B 6976   9.815   5.676   7.496  0.0789 -0.3021  0.0063
  437loPI    C1 6977  13.891   7.033   9.276  0.1240  0.0255  0.1221
  437loPI    C2 6978  13.743   6.970   9.642  0.2218 -0.1427  0.1338
  437loPI    C3 6979  13.870   7.335   9.537 -0.0955 -0.0211  0.1607
  437loPI   PO4 6980  13.998   6.843   9.238 -0.0015  0.1565 -0.0548
  437loPI   GL1 6981  14.093   6.569   8.887 -0.0588 -0.0140  0.2482
  437loPI   GL2 6982  14.399   6.407   8.847 -0.0774 -0.0038  0.1607
  437loPI   C1A 6983  14.128   6.650   8.490  0.1511  0.1197 -0.0335
  437loPI   C2A 6984  13.951   6.546   8.058  0.0785  0.0917  0.2136
  437loPI   C3A 6985  13.933   6.894   7.815 -0.1126  0.1413 -0.0124
  437loPI   C4A 6986  14.156   6.853   7.406 -0.0779 -0.0829  0.0137
  437loPI   C5A 6987  14.296   6.743   6.949 -0.0896 -0.3086 -0.0059
  437loPI   C6A 6988  14.741   6.781   6.917 -0.2617 -0.0970 -0.1235
  437loPI   C1B 6989  14.199   6.099   8.526 -0.2355 -0.1289  0.0269
  437loPI   C2B 6990  13.915   6.042   8.163 -0.0780 -0.1934 -0.0404
  437loPI   C3B 6991  13.901   5.970   7.640  0.2955 -0.0148 -0.0461
  437loPI   C4B 6992  13.914   5.692   7.252  0.0630  0.2554 -0.0541
  438loPI    C1 6993  18.960   6.885  10.108 -0.0886  0.1306 -0.0671
  438loPI    C2 6994  19.035   7.099  10.437  0.1473  0.1664 -0.1421
  438loPI    C3 6995  18.683   6.913  10.395  0.1235  0.1436  0.1388
  438loPI   PO4 6996  19.216   6.775  10.096  0.0480 -0.1989  0.2220
  438loPI   GL1 6997  19.312   6.527   9.574  0.2311 -0.2089 -0.1020
  438loPI   GL2 6998  19.309   6.827   9.587  0.1070  0.3542  0.2674
  438loPI   C1A 6999  19.275   6.484   9.096 -0.1859 -0.3554 -0.2098
  438loPI   C2A 7000  19.443   6.524   8.744  0.4329  0.0227 -0.4479
  438loPI   C3A 7001  19.513   6.541   8.375  0.2469 -0.1728 -0.1924
  438loPI   C4A 7002  19.431   6.438   7.963 -0.1900  0.0703 -0.0720
  438loPI   C5A 7003  19.045   6.191   7.764  0.0293 -0.1183 -0.1260
  438loPI   C6A 7004  18.727   5.875   7.497  0.2933  0.0940 -0.0645
  438loPI   C1B 7005  19.487   6.905   9.135  0.3884 -0.1171 -0.5942
  438loPI   C2B 7006  19.635   6.990   8.684 -0.1092 -0.1740 -0.1948
  438loPI   C3B 7007  19.382   7.048   8.365 -0.4580 -0.3578  0.1828
  438loPI   C4B 7008  19.545   6.930   7.945 -0.3585 -0.0178 -0.0731
  439loPI    C1 7009  14.110   8.757   9.717 -0.0387 -0.0537  0.0372
  439loPI    C2 7010  14.308   8.418   9.793 -0.3305 -0.2628 -0.1163
  439loPI    C3 7011  13.932   8.464   9.923 -0.2145  0.0992  0.1059
  439loPI   PO4 7012  14.137   8.786   9.427  0.1025 -0.2120  0.1053
  439loPI   GL1 7013  13.922   8.819   8.987  0.0552 -0.0063 -0.1668
  439loPI   GL2 7014  14.285   8.746   8.968  0.1599 -0.1283  0.1418
  439loPI   C1A 7015  13.764   8.692   8.610  0.1383  0.0258 -0.2190
  439loPI   C2A 7016  13.648   8.333   8.336 -0.4447  0.2217  0.0672
  439loPI   C3A 7017  13.572   8.045   7.955 -0.2184  0.1052  0.1256
  439loPI   C4A 7018  13.342   8.085   7.515 -0.4148  0.3720 -0.2755
  439loPI   C5A 7019  13.378   7.950   6.974  0.1641  0.1097  0.1888
  439loPI   C6A 7020  12.882   7.926   6.704  0.2170  0.1631 -0.4068
  439loPI   C1B 7021  14.177   9.117   8.625 -0.0562 -0.1274  0.0594
  439loPI   C2B 7022  14.025   9.039   8.233 -0.1567 -0.0658  0.0085
  439loPI   C3B 7023  13.922   8.747   8.017 -0.1483 -0.0014 -0.0191
  439loPI   C4B 7024  13.994   8.410   7.590 -0.0102  0.2383  0.3021
  440loPI    C1 7025   0.509  15.106   9.905  0.0942  0.0309 -0.1621
  440loPI    C2 7026   0.335  15.021  10.254  0.2737 -0.0121 -0.0820
  440loPI    C3 7027   0.241  15.358  10.061 -0.1071 -0.1690 -0.1802
  440loPI   PO4 7028   0.526  14.797   9.807  0.2279  0.0495  0.1762
  440loPI   GL1 7029   0.722  14.640   9.577  0.0734 -0.1822 -0.2001
  440loPI   GL2 7030   0.939  14.460   9.495  0.1947  0.0251  0.3170
  440loPI   C1A 7031   0.653  14.656   9.150  0.0027 -0.0098  0.0344
  440loPI   C2A 7032   0.644  14.703   8.810 -0.1828  0.1065  0.0643
  440loPI   C3A 7033   0.692  14.747   8.440 -0.1750  0.2268  0.0065
  440loPI   C4A 7034   0.718  14.476   8.170  0.1181 -0.0973 -0.4718
  440loPI   C5A 7035   0.939  14.234   7.919  0.0759 -0.0044 -0.2080
  440loPI   C6A 7036   1.008  13.839   7.783  0.1539 -0.0716  0.4168
  440loPI   C1B 7037   0.880  14.242   8.998  0.2400  0.1696  0.0838
  440loPI   C2B 7038   0.728  14.145   8.673  0.1116 -0.0443  0.1201
  440loPI   C3B 7039   0.522  14.034   8.178 -0.1025 -0.4141  0.1771
  440loPI   C4B 7040   0.511  13.854   7.713 -0.2315  0.3614 -0.1357
  441loPI    C1 7041   3.641   1.119   9.984  0.0133  0.1451  0.0041
  441loPI    C2 7042   3.867   1.441   9.912  0.1326  0.0032 -0.2715
  441loPI    C3 7043   3.911   1.238  10.254 -0.1954  0.4843  0.0681
  441loPI   PO4 7044   3.683   0.922   9.834  0.0227 -0.0760 -0.2873
  441loPI   GL1 7045   3.773   0.891   9.431 -0.0403  0.1586 -0.0461
  441loPI   GL2 7046   3.870   1.133   9.421  0.1556 -0.2157 -0.0971
  441loPI   C1A 7047   3.909   0.879   9.050  0.1817  0.0974  0.2902
  441loPI   C2A 7048   3.817   0.997   8.502  0.1149 -0.1608 -0.0500
  441loPI   C3A 7049   3.767   1.248   8.112 -0.1224  0.0304 -0.2423
  441loPI   C4A 7050   3.831   1.327   7.736  0.1570 -0.0261  0.0901
  441loPI   C5A 7051   4.063   1.160   7.342 -0.0076 -0.1940  0.1807
  441loPI   C6A 7052   4.175   0.727   7.220 -0.1046  0.1957 -0.0181
  441loPI   C1B 7053   4.059   1.369   9.086  0.2364  0.1029  0.0182
  441loPI   C2B 7054   4.074   1.408   8.639 -0.1613  0.2759 -0.2128
  441loPI   C3B 7055   4.257   1.409   8.242  0.0444 -0.3572  0.0542
  441loPI   C4B 7056   4.447   1.286   7.875 -0.0235  0.1932 -0.0180
  442loPI    C1 7057   6.260   5.924   9.701  0.1734 -0.0561 -0.1770
  442loPI    C2 7058   6.201   6.277   9.879  0.0909 -0.0945 -0.1276
  442loPI    C3 7059   5.889   6.067   9.744  0.1200 -0.2554  0.0502
  442loPI   PO4 7060   6.443   5.811   9.854 -0.3739 -0.2662 -0.0043
  442loPI   GL1 7061   6.447   5.426   9.686  0.2538  0.1858  0.4002
  442loPI   GL2 7062   6.790   5.416   9.530  0.0274 -0.3396 -0.3387
  442loPI   C1A 7063   6.266   5.476   9.164 -0.0289 -0.0374 -0.1751
  442loPI   C2A 7064   6.125   5.597   8.937  0.0825  0.2235  0.1769
  442loPI   C3A 7065   6.057   5.726   8.568  0.0705 -0.1965 -0.0981
  442loPI   C4A 7066   6.235   5.807   8.189 -0.0556  0.1531  0.3332
  442loPI   C5A 7067   6.275   6.103   7.843  0.1317  0.1294  0.1367
  442loPI   C6A 7068   6.170   6.509   7.835  0.3862  0.2664 -0.0290
  442loPI   C1B 7069   6.709   5.414   9.182  0.0350 -0.2512 -0.0294
  442loPI   C2B 7070   6.570   5.427   8.739  0.0195 -0.1514  0.0973
  442loPI   C3B 7071   6.772   5.493   8.351 -0.0491 -0.1483 -0.3898
  442loPI   C4B 7072   7.005   5.331   8.159  0.0010  0.0420 -0.1659
  443loPI    C1 7073   1.797  15.591   9.555 -0.0443 -0.0268  0.1907
  443loPI    C2 7074   1.796  15.192   9.533  0.1114 -0.0127 -0.1142
  443loPI    C3 7075   1.782  15.372   9.889  0.1494 -0.2907  0.0305
  443loPI   PO4 7076   1.674  15.686   9.319  0.0924 -0.3318  0.1756
  443loPI   GL1 7077   1.691  15.825   8.785  0.1776 -0.1392 -0.1114
  443loPI   GL2 7078   1.906  15.528   8.874  0.3167  0.3371  0.2763
  443loPI   C1A 7079   1.369  15.996   8.665  0.1146 -0.0145  0.0296
  443loPI   C2A 7080   1.022  16.138   8.625  0.0648  0.3697  0.0048
  443loPI   C3A 7081   0.891  16.375   8.312  0.2169 -0.0604 -0.2605
  443loPI   C4A 7082   0.715  16.475   7.922  0.2266  0.1660  0.0747
  443loPI   C5A 7083   0.560  16.429   7.461  0.0046 -0.1904  0.2528
  443loPI   C6A 7084   0.366  16.561   7.132 -0.1241  0.1553  0.2497
  443loPI   C1B 7085   1.828  15.408   8.504  0.4153  0.0645  0.2146
  443loPI   C2B 7086   1.836  15.170   8.144  0.0162  0.0436 -0.0789
  443loPI   C3B 7087   1.798  15.083   7.659  0.0373  0.2912 -0.3816
  443loPI   C4B 7088   1.744  15.113   7.276 -0.0558 -0.0603 -0.0869
  444loPI    C1 7089   7.342  16.578   9.402  0.0074 -0.0693  0.1784
  444loPI    C2 7090   7.322  16.804   9.731 -0.0938  0.0866  0.0661
  444loPI    C3 7091   7.478  16.953   9.394  0.2978 -0.1734  0.1264
  444loPI   PO4 7092   7.108  16.439   9.376 -0.0973 -0.0899  0.0081
  444loPI   GL1 7093   7.075  16.188   8.994 -0.6623 -0.0817 -0.3747
  444loPI   GL2 7094   6.807  16.291   8.883  0.0119  0.0792  0.2369
  444loPI   C1A 7095   7.194  16.195   8.597  0.3008 -0.1988  0.0672
  444loPI   C2A 7096   7.237  16.567   8.224  0.0154 -0.0824  0.0177
  444loPI   C3A 7097   7.323  16.712   7.829  0.0368  0.0349 -0.1189
  444loPI   C4A 7098   7.208  16.928   7.376  0.0574  0.0606  0.2501
  444loPI   C5A 7099   6.897  17.229   7.141  0.0862 -0.1449 -0.0454
  444loPI   C6A 7100   6.533  17.241   7.162 -0.1076  0.0072  0.3191
  444loPI   C1B 7101   6.929  16.682   8.647 -0.0464  0.1852 -0.1443
  444loPI   C2B 7102   6.722  16.890   8.389  0.2914  0.0637 -0.1180
  444loPI   C3B 7103   6.601  17.279   8.141  0.1321 -0.1187 -0.1601
  444loPI   C4B 7104   6.419  17.634   8.073  0.0478 -0.0603  0.0890
  445loPI    C1 7105  12.162   8.338   9.568  0.0304  0.2069  0.1146
  445loPI    C2 7106  12.102   8.013   9.793  0.1852  0.0303 -0.0959
  445loPI    C3 7107  11.862   8.331   9.834  0.0029 -0.1267  0.0780
  445loPI   PO4 7108  12.155   8.325   9.356 -0.0759 -0.3618  0.3282
  445loPI   GL1 7109  11.982   8.441   8.900  0.3214 -0.0335  0.1288
  445loPI   GL2 7110  12.256   8.637   8.914 -0.1021 -0.1714  0.0579
  445loPI   C1A 7111  11.615   8.512   8.547  0.1239  0.0144  0.0157
  445loPI   C2A 7112  11.753   8.784   8.123 -0.2001  0.1348 -0.2567
  445loPI   C3A 7113  11.936   8.793   7.711  0.2465  0.2131 -0.0132
  445loPI   C4A 7114  12.284   8.523   7.421  0.0935  0.0382  0.0727
  445loPI   C5A 7115  12.446   8.159   7.368 -0.1842 -0.0078  0.0366
  445loPI   C6A 7116  12.503   7.784   7.049  0.0444 -0.0962  0.1004
  445loPI   C1B 7117  12.204   8.710   8.473 -0.0845 -0.2570 -0.4969
  445loPI   C2B 7118  12.298   8.888   8.025 -0.0232  0.0691 -0.1814
  445loPI   C3B 7119  12.568   8.889   7.628  0.1771  0.2632 -0.0768
  445loPI   C4B 7120  12.744   8.707   7.167  0.4115  0.1843 -0.2491
  446loPI    C1 7121   9.127  18.154   9.266  0.2101  0.0721  0.1269
  446loPI    C2 7122   9.272  18.342   8.944  0.1312  0.0048  0.0511
  446loPI    C3 7123   8.877  18.303   8.991  0.1471 -0.1546  0.0584
  446loPI   PO4 7124   9.260  17.898   9.202  0.0652  0.1713 -0.1667
  446loPI   GL1 7125   9.222  17.870   8.801 -0.2239 -0.0439  0.0766
  446loPI   GL2 7126   8.856  17.915   8.606  0.2833 -0.0329 -0.1556
  446loPI   C1A 7127   9.229  17.675   8.401  0.0093  0.4474 -0.0153
  446loPI   C2A 7128   9.211  17.338   8.076  0.2492  0.1530  0.1020
  446loPI   C3A 7129   8.963  17.257   7.702  0.3772  0.0511 -0.2021
  446loPI   C4A 7130   8.744  17.015   7.316  0.2906 -0.0807  0.0009
  446loPI   C5A 7131   8.295  17.090   7.142 -0.0028  0.1495  0.0026
  446loPI   C6A 7132   8.130  17.323   6.998 -0.1397 -0.0620 -0.0104
  446loPI   C1B 7133   8.712  18.083   8.160  0.4242 -0.0365  0.3302
  446loPI   C2B 7134   8.783  18.292   7.735  0.3341  0.1116 -0.0570
  446loPI   C3B 7135   8.728  18.482   7.288  0.1887 -0.0123  0.2278
  446loPI   C4B 7136   8.756  18.581   6.826 -0.2568 -0.0861 -0.4016
  447loPI    C1 7137   1.246   3.471  10.530  0.0228  0.0557 -0.1376
  447loPI    C2 7138   1.285   3.727  10.835 -0.2940 -0.0937  0.0343
  447loPI    C3 7139   1.081   3.387  10.885  0.2640 -0.4690 -0.1398
  447loPI   PO4 7140   1.307   3.699  10.300  0.0661 -0.1583 -0.0969
  447loPI   GL1 7141   1.406   3.721   9.858 -0.2235  0.1502 -0.0327
  447loPI   GL2 7142   1.424   4.044   9.931  0.2600 -0.1863 -0.0111
  447loPI   C1A 7143   1.437   3.696   9.430 -0.3781  0.1529  0.1786
  447loPI   C2A 7144   1.567   4.004   9.123  0.0250  0.0906 -0.2023
  447loPI   C3A 7145   1.615   3.926   8.712 -0.2487 -0.2383 -0.1824
  447loPI   C4A 7146   1.634   3.871   8.264 -0.3468  0.2148 -0.1479
  447loPI   C5A 7147   1.458   3.825   7.940  0.0266  0.3933 -0.0099
  447loPI   C6A 7148   1.164   3.975   7.811 -0.1261  0.0302  0.0437
  447loPI   C1B 7149   1.689   4.196   9.573  0.1991 -0.1110 -0.2066
  447loPI   C2B 7150   2.090   4.070   9.374  0.0069  0.0167 -0.2232
  447loPI   C3B 7151   2.105   3.932   9.009 -0.5395 -0.3685 -0.1405
  447loPI   C4B 7152   2.039   3.609   8.946  0.0179  0.1062 -0.3784
  448loPI    C1 7153   6.316  19.186   9.707 -0.0214  0.1659  0.0681
  448loPI    C2 7154   6.577  19.406   9.914 -0.0627  0.0568  0.2386
  448loPI    C3 7155   6.601  19.007   9.923 -0.1156  0.0498  0.0977
  448loPI   PO4 7156   6.296  19.287   9.433  0.1493  0.1853  0.1815
  448loPI   GL1 7157   6.337  19.636   9.092 -0.1137 -0.1738 -0.4143
  448loPI   GL2 7158   6.022  19.774   8.890  0.2255 -0.1513  0.1394
  448loPI   C1A 7159   6.504  19.573   8.641  0.1872  0.2365 -0.2345
  448loPI   C2A 7160   6.524  19.824   8.297  0.0064  0.2244  0.0989
  448loPI   C3A 7161   6.418  19.911   7.806  0.2933  0.1836  0.2991
  448loPI   C4A 7162   6.261  19.838   7.407 -0.1331  0.1117 -0.1809
  448loPI   C5A 7163   6.314  19.624   6.974  0.2101 -0.0826  0.1672
  448loPI   C6A 7164   6.492  19.521   6.486  0.0303 -0.1729  0.0444
  448loPI   C1B 7165   6.088  20.126   8.538  0.1496  0.0909 -0.0059
  448loPI   C2B 7166   6.089  20.249   8.040 -0.2290 -0.1980 -0.0605
  448loPI   C3B 7167   6.149  20.311   7.601  0.0108 -0.2251 -0.1218
  448loPI   C4B 7168   6.625  20.218   7.436  0.0442 -0.2413  0.1463
  449loPI    C1 7169   6.473  11.757  10.220  0.2114  0.0396 -0.0048
  449loPI    C2 7170   6.340  11.619  10.571  0.0621 -0.1244 -0.1237
  449loPI    C3 7171   6.703  11.513  10.439  0.0115 -0.2783 -0.1413
  449loPI   PO4 7172   6.239  11.728  10.107  0.1501 -0.3030 -0.2500
  449loPI   GL1 7173   6.229  11.703   9.688  0.0186 -0.2074  0.1121
  449loPI   GL2 7174   6.497  11.930   9.703 -0.0294 -0.0998 -0.1325
  449loPI   C1A 7175   6.339  11.821   9.261 -0.2568 -0.1868 -0.1793
  449loPI   C2A 7176   6.406  11.863   8.930 -0.0014  0.1969  0.0867
  449loPI   C3A 7177   6.412  12.178   8.556 -0.3995  0.1504 -0.1631
  449loPI   C4A 7178   6.210  12.415   8.246  0.1310 -0.1845 -0.3368
  449loPI   C5A 7179   6.324  12.361   7.772  0.0630  0.0114 -0.3331
  449loPI   C6A 7180   6.546  12.259   7.417  0.1081  0.0686  0.0100
  449loPI   C1B 7181   6.298  12.230   9.563 -0.0172 -0.2382 -0.1949
  449loPI   C2B 7182   5.913  12.366   9.343  0.0987  0.1493 -0.3568
  449loPI   C3B 7183   5.685  12.599   9.051  0.1745 -0.2222  0.2130
  449loPI   C4B 7184   5.779  13.014   8.880 -0.0505  0.0339 -0.2511
  450loPI    C1 7185   5.026  12.784  10.201 -0.1321  0.0047  0.1235
  450loPI    C2 7186   4.908  13.044  10.481  0.3290  0.1042  0.2330
  450loPI    C3 7187   5.251  13.103  10.284  0.3742 -0.3501  0.1631
  450loPI   PO4 7188   4.662  12.734  10.160  0.0481  0.1025  0.1374
  450loPI   GL1 7189   4.536  12.822   9.776 -0.1999 -0.0510 -0.3469
  450loPI   GL2 7190   4.197  12.950   9.645 -0.0924  0.1195 -0.2204
  450loPI   C1A 7191   4.886  12.561   9.641  0.0161 -0.2795 -0.1979
  450loPI   C2A 7192   4.902  12.208   9.391 -0.3549  0.1255 -0.0970
  450loPI   C3A 7193   4.869  11.906   9.085  0.3993  0.1101  0.0035
  450loPI   C4A 7194   4.660  11.792   8.698 -0.0738  0.2461  0.1675
  450loPI   C5A 7195   4.602  11.670   8.298 -0.1684  0.2198  0.0466
  450loPI   C6A 7196   4.510  12.030   7.975  0.0607  0.1453 -0.0493
  450loPI   C1B 7197   4.193  12.988   9.142  0.0602 -0.0783 -0.0078
  450loPI   C2B 7198   4.107  13.032   8.744 -0.0403 -0.1760  0.1584
  450loPI   C3B 7199   3.940  12.807   8.421 -0.0874 -0.3755  0.1021
  450loPI   C4B 7200   4.033  12.822   7.925  0.1533  0.0133 -0.0507
  451loPI    C1 7201   3.563   2.351  10.307  0.3193 -0.1370  0.0652
  451loPI    C2 7202   3.193   2.302  10.451  0.2367 -0.0107 -0.1010
  451loPI    C3 7203   3.420   1.983  10.372  0.1332 -0.0911 -0.0763
  451loPI   PO4 7204   3.522   2.620  10.182  0.0242  0.4962  0.0421
  451loPI   GL1 7205   3.536   2.691   9.772  0.0339 -0.1683 -0.0670
  451loPI   GL2 7206   3.544   2.481   9.603 -0.1437 -0.0211 -0.0047
  451loPI   C1A 7207   3.375   3.070   9.586  0.2620  0.1610 -0.1414
  451loPI   C2A 7208   3.450   3.070   9.094  0.3666 -0.2042 -0.0543
  451loPI   C3A 7209   3.501   2.848   8.689  0.0048  0.0866  0.0770
  451loPI   C4A 7210   3.836   2.941   8.371  0.1387 -0.1251  0.3075
  451loPI   C5A 7211   4.146   2.899   7.985  0.0127  0.0665  0.2920
  451loPI   C6A 7212   4.406   2.785   7.742 -0.1002  0.2767 -0.2184
  451loPI   C1B 7213   3.227   2.678   9.190 -0.1822  0.0307  0.1740
  451loPI   C2B 7214   3.052   2.756   8.903 -0.0568 -0.1165  0.1044
  451loPI   C3B 7215   3.026   2.914   8.506  0.0620  0.0609  0.1818
  451loPI   C4B 7216   2.849   2.959   8.116  0.1094 -0.4882  0.2275
  452loPI    C1 7217  17.311  11.340   9.747 -0.1122 -0.1469 -0.1108
  452loPI    C2 7218  17.583  11.566   9.561 -0.2505  0.0636 -0.0606
  452loPI    C3 7219  17.601  11.517   9.958 -0.2985  0.0963 -0.0543
  452loPI   PO4 7220  17.034  11.411   9.711 -0.1813  0.2115  0.0282
  452loPI   GL1 7221  16.966  11.435   9.301  0.0127 -0.1091 -0.0207
  452loPI   GL2 7222  16.769  11.546   9.164  0.0864 -0.0381  0.2774
  452loPI   C1A 7223  17.267  11.324   9.063 -0.3958 -0.0005  0.3231
  452loPI   C2A 7224  17.333  11.357   8.679  0.1445 -0.1091 -0.2809
  452loPI   C3A 7225  17.463  11.448   8.277 -0.0833  0.0258  0.2027
  452loPI   C4A 7226  17.795  11.405   8.004 -0.2043 -0.1453  0.1580
  452loPI   C5A 7227  18.071  11.491   7.711  0.0016  0.0905 -0.3621
  452loPI   C6A 7228  18.578  11.513   7.486 -0.0167  0.0670  0.0588
  452loPI   C1B 7229  16.942  11.715   8.774 -0.0710 -0.1903  0.0965
  452loPI   C2B 7230  16.582  11.917   8.452 -0.2840  0.0875 -0.1450
  452loPI   C3B 7231  16.601  12.339   8.146 -0.2011  0.1067 -0.4047
  452loPI   C4B 7232  16.603  12.389   7.672  0.0946 -0.0919  0.1619
  453loPI    C1 7233   9.573   2.874   9.593  0.0183 -0.0551 -0.1875
  453loPI    C2 7234   9.845   3.127   9.445 -0.1454  0.2685  0.0532
  453loPI    C3 7235   9.919   2.931   9.786 -0.0765  0.0946 -0.0601
  453loPI   PO4 7236   9.498   2.713   9.508  0.0402 -0.2145 -0.0724
  453loPI   GL1 7237   9.155   2.763   9.185  0.0458 -0.0513 -0.1634
  453loPI   GL2 7238   9.118   2.547   8.969  0.0252  0.1075 -0.1620
  453loPI   C1A 7239   9.169   3.067   8.870  0.2531  0.0879 -0.2107
  453loPI   C2A 7240   9.225   3.326   8.476  0.1106  0.2020  0.0567
  453loPI   C3A 7241   9.054   3.503   8.130 -0.0663  0.2116 -0.3450
  453loPI   C4A 7242   8.940   3.221   7.806  0.1732 -0.1668  0.0431
  453loPI   C5A 7243   8.770   3.391   7.345 -0.1294 -0.1114 -0.1103
  453loPI   C6A 7244   8.746   3.735   7.098  0.0705  0.0311  0.0579
  453loPI   C1B 7245   9.117   2.612   8.542 -0.1804 -0.4527  0.3536
  453loPI   C2B 7246   9.004   2.660   8.063  0.4690 -0.0271  0.1901
  453loPI   C3B 7247   8.624   2.831   7.718 -0.2059  0.1098 -0.2770
  453loPI   C4B 7248   8.557   2.854   7.206 -0.0273  0.0245 -0.2172
  454loPI    C1 7249   5.004   3.102  10.545 -0.4003 -0.5504 -0.1850
  454loPI    C2 7250   4.814   3.320  10.821  0.0027 -0.2504 -0.1350
  454loPI    C3 7251   4.954   2.957  10.914 -0.4598 -0.4399 -0.1493
  454loPI   PO4 7252   5.220   3.303  10.491 -0.1557  0.6077 -0.1509
  454loPI   GL1 7253   5.395   3.507  10.182  0.2630 -0.0402 -0.1178
  454loPI   GL2 7254   5.475   3.789   9.947 -0.2077  0.0111  0.0662
  454loPI   C1A 7255   5.052   3.602   9.847  0.0622  0.0222 -0.0655
  454loPI   C2A 7256   4.822   3.662   9.520 -0.0996 -0.1873  0.0807
  454loPI   C3A 7257   4.495   3.518   9.330 -0.0618  0.0452  0.2163
  454loPI   C4A 7258   4.234   3.593   8.963  0.2223 -0.0030  0.1606
  454loPI   C5A 7259   4.118   3.688   8.516  0.0662 -0.0677  0.0960
  454loPI   C6A 7260   3.926   3.856   8.178  0.4384  0.0692  0.0140
  454loPI   C1B 7261   5.515   3.881   9.544  0.1189  0.1905  0.0814
  454loPI   C2B 7262   5.282   3.682   9.217 -0.1760  0.1982  0.0286
  454loPI   C3B 7263   4.967   3.274   9.175 -0.0816 -0.1241 -0.0444
  454loPI   C4B 7264   4.712   3.163   8.899  0.2408  0.0640 -0.2181
  455loPI    C1 7265  12.519   7.449   9.445  0.2778 -0.2605  0.0189
  455loPI    C2 7266  12.580   7.168   9.724  0.0158 -0.0646  0.2785
  455loPI    C3 7267  12.383   7.504   9.817  0.0948  0.0903 -0.0961
  455loPI   PO4 7268  12.429   7.298   9.201 -0.0499  0.0059 -0.1014
  455loPI   GL1 7269  12.297   7.516   8.968  0.0878  0.2851  0.0752
  455loPI   GL2 7270  11.987   7.729   8.989 -0.2055 -0.1153  0.1110
  455loPI   C1A 7271  12.340   7.555   8.619  0.1046 -0.2831 -0.0205
  455loPI   C2A 7272  12.266   7.788   8.273 -0.1145 -0.1761  0.2662
  455loPI   C3A 7273  12.209   7.565   7.901 -0.0329  0.0224  0.1897
  455loPI   C4A 7274  12.434   7.673   7.586  0.0358  0.2337  0.0580
  455loPI   C5A 7275  12.184   7.487   7.215 -0.0199  0.4866 -0.2737
  455loPI   C6A 7276  11.744   7.545   7.092 -0.0304 -0.2095 -0.0188
  455loPI   C1B 7277  11.903   8.000   8.613  0.1310  0.0814 -0.3299
  455loPI   C2B 7278  11.873   8.222   8.233 -0.0454 -0.0589  0.1564
  455loPI   C3B 7279  11.792   8.342   7.746 -0.1317  0.2959  0.0788
  455loPI   C4B 7280  11.639   8.264   7.320  0.4010 -0.2551  0.1825
  456loPI    C1 7281   1.407  13.554  10.048  0.1085  0.0351  0.0315
  456loPI    C2 7282   1.464  13.158  10.048  0.1679  0.0433 -0.0990
  456loPI    C3 7283   1.156  13.315  10.249  0.2360 -0.0553  0.0847
  456loPI   PO4 7284   1.297  13.631   9.800 -0.2849 -0.0173 -0.1997
  456loPI   GL1 7285   1.033  13.451   9.517 -0.1333  0.4391  0.0213
  456loPI   GL2 7286   1.230  13.117   9.597 -0.2116 -0.2782 -0.0427
  456loPI   C1A 7287   0.879  13.323   9.188 -0.0513 -0.0553  0.1245
  456loPI   C2A 7288   0.693  13.171   8.803 -0.1767  0.2901 -0.4672
  456loPI   C3A 7289   0.785  13.019   8.486 -0.0099 -0.0757 -0.2085
  456loPI   C4A 7290   0.917  12.995   8.073  0.1171  0.3318  0.2994
  456loPI   C5A 7291   0.985  12.769   7.659 -0.0343 -0.2187 -0.0558
  456loPI   C6A 7292   0.848  12.508   7.367 -0.3323 -0.1713  0.2004
  456loPI   C1B 7293   1.105  12.800   9.204 -0.1177  0.0971  0.0665
  456loPI   C2B 7294   1.239  12.655   8.862  0.0792  0.2655 -0.1153
  456loPI   C3B 7295   1.599  12.428   8.580 -0.4054  0.0939 -0.1512
  456loPI   C4B 7296   2.003  12.378   8.405 -0.3708  0.2580  0.1083
  457loPI    C1 7297  17.378   3.371   9.526  0.0848  0.0602  0.0248
  457loPI    C2 7298  17.462   3.703   9.733  0.0753  0.2045 -0.1996
  457loPI    C3 7299  17.328   3.377   9.923  0.0373  0.3442  0.0161
  457loPI   PO4 7300  17.236   3.398   9.280  0.0909 -0.1395 -0.0790
  457loPI   GL1 7301  17.239   3.023   8.950 -0.3382 -0.0025 -0.0286
  457loPI   GL2 7302  17.062   3.360   8.797 -0.4825  0.0554 -0.0682
  457loPI   C1A 7303  17.275   3.143   8.457  0.0215  0.3302  0.0491
  457loPI   C2A 7304  17.541   3.105   8.081  0.0251  0.1121  0.2772
  457loPI   C3A 7305  17.630   3.417   7.702  0.1454  0.2017  0.0004
  457loPI   C4A 7306  17.683   3.532   7.286  0.3367  0.2799  0.4417
  457loPI   C5A 7307  17.676   3.845   6.865  0.1249  0.1781 -0.1382
  457loPI   C6A 7308  17.751   3.818   6.503 -0.3836 -0.0517  0.0690
  457loPI   C1B 7309  17.022   3.546   8.393 -0.0791  0.0880 -0.0665
  457loPI   C2B 7310  17.097   3.435   7.959 -0.2319 -0.2122 -0.0036
  457loPI   C3B 7311  17.103   3.473   7.456  0.0095  0.1816  0.0839
  457loPI   C4B 7312  17.205   3.521   7.083  0.1927 -0.2100  0.1305
  458loPI    C1 7313  17.076   4.073   9.324 -0.0062 -0.1231 -0.0358
  458loPI    C2 7314  17.054   4.141   9.718  0.3145 -0.3646  0.0284
  458loPI    C3 7315  16.720   4.129   9.498  0.1557  0.1021  0.2311
  458loPI   PO4 7316  17.267   3.894   9.318 -0.0688  0.0126  0.0017
  458loPI   GL1 7317  17.460   3.693   8.945 -0.2534 -0.0606  0.1564
  458loPI   GL2 7318  17.435   4.127   8.869  0.0623  0.0028 -0.2619
  458loPI   C1A 7319  17.482   3.618   8.572  0.2407 -0.0624  0.1246
  458loPI   C2A 7320  17.544   3.571   8.246  0.0252 -0.1813 -0.1812
  458loPI   C3A 7321  17.510   3.854   7.930  0.1649 -0.0060  0.3886
  458loPI   C4A 7322  17.721   4.008   7.625  0.1034 -0.1792 -0.1380
  458loPI   C5A 7323  17.994   4.134   7.307 -0.0458 -0.0699 -0.2552
  458loPI   C6A 7324  18.146   4.553   7.039  0.0880  0.0149  0.0118
  458loPI   C1B 7325  17.805   3.953   8.708  0.2982 -0.2038 -0.2108
  458loPI   C2B 7326  17.759   4.051   8.305  0.0528 -0.0314  0.1922
  458loPI   C3B 7327  17.820   4.419   7.988 -0.0202  0.1312 -0.3228
  458loPI   C4B 7328  18.030   4.765   8.052  0.2705 -0.0233  0.1029
  459loPI    C1 7329  14.781   6.572   9.299 -0.0951  0.2758 -0.2837
  459loPI    C2 7330  14.962   6.878   9.483  0.3032 -0.0945 -0.0381
  459loPI    C3 7331  14.804   6.581   9.698 -0.0204 -0.1005 -0.2759
  459loPI   PO4 7332  14.935   6.490   9.162  0.1147 -0.0143 -0.0180
  459loPI   GL1 7333  15.000   6.546   8.748  0.1653 -0.3940  0.1388
  459loPI   GL2 7334  15.051   6.785   8.777  0.0842 -0.2456 -0.0618
  459loPI   C1A 7335  14.713   6.525   8.445  0.0947  0.1037  0.0123
  459loPI   C2A 7336  14.404   6.364   8.171 -0.0191  0.0439  0.0390
  459loPI   C3A 7337  14.274   6.408   7.605 -0.0517 -0.0146 -0.3663
  459loPI   C4A 7338  14.110   6.299   7.214 -0.0905  0.0367 -0.3314
  459loPI   C5A 7339  13.991   6.332   6.814 -0.0974  0.2649  0.2907
  459loPI   C6A 7340  13.640   6.295   6.572  0.0113 -0.1865  0.0250
  459loPI   C1B 7341  14.921   7.048   8.382 -0.2373  0.3295 -0.3076
  459loPI   C2B 7342  14.728   7.226   8.007  0.2749 -0.2842  0.2849
  459loPI   C3B 7343  14.430   7.525   7.685 -0.3130  0.1194  0.1402
  459loPI   C4B 7344  14.224   7.747   7.356 -0.1548  0.4171 -0.0144
  460loPI    C1 7345  10.179  16.486   9.462  0.1890 -0.1073 -0.1690
  460loPI    C2 7346  10.465  16.423   9.735  0.0157 -0.0908  0.0183
  460loPI    C3 7347  10.215  16.127   9.635  0.2307 -0.1684 -0.3033
  460loPI   PO4 7348   9.970  16.701   9.433  0.1080 -0.1082  0.2057
  460loPI   GL1 7349   9.714  16.694   9.008  0.0519  0.4236 -0.0077
  460loPI   GL2 7350   9.906  16.780   8.904  0.0225  0.1679  0.1519
  460loPI   C1A 7351   9.551  16.583   8.635 -0.3927  0.3316 -0.1753
  460loPI   C2A 7352   9.300  16.395   8.293  0.0991 -0.0151  0.1095
  460loPI   C3A 7353   9.111  16.072   8.057  0.2657  0.0128  0.4013
  460loPI   C4A 7354   8.886  15.782   7.880  0.0577  0.2375 -0.2451
  460loPI   C5A 7355   8.662  15.444   8.016  0.1375  0.1889  0.1298
  460loPI   C6A 7356   8.484  15.102   7.825  0.0952  0.0387  0.1042
  460loPI   C1B 7357  10.029  16.852   8.524  0.5061  0.3056  0.1846
  460loPI   C2B 7358  10.027  16.730   8.133 -0.1398 -0.1097 -0.0567
  460loPI   C3B 7359   9.922  16.813   7.672 -0.0161 -0.1276 -0.0433
  460loPI   C4B 7360   9.804  17.087   7.314  0.0775 -0.2043  0.2167
  461loPI    C1 7361  11.668   5.544   9.418  0.0956  0.0403 -0.0640
  461loPI    C2 7362  11.609   5.184   9.254  0.2777 -0.1108  0.1942
  461loPI    C3 7363  11.981   5.313   9.326  0.2059  0.0289  0.3212
  461loPI   PO4 7364  11.558   5.705   9.141  0.2435 -0.7034  0.0980
  461loPI   GL1 7365  11.341   5.641   8.822 -0.0502 -0.0013  0.1225
  461loPI   GL2 7366  11.112   5.796   8.843 -0.0427 -0.0996 -0.0777
  461loPI   C1A 7367  11.561   5.806   8.477 -0.0327 -0.0262  0.0876
  461loPI   C2A 7368  11.732   5.813   8.069  0.3423 -0.0684  0.1704
  461loPI   C3A 7369  11.889   6.044   7.541  0.0352  0.3092  0.2188
  461loPI   C4A 7370  11.911   6.217   7.222  0.0716 -0.1168  0.2424
  461loPI   C5A 7371  11.614   6.523   6.907  0.1294  0.1852 -0.0044
  461loPI   C6A 7372  11.297   6.647   6.895 -0.0020 -0.1356  0.1181
  461loPI   C1B 7373  11.068   5.957   8.427  0.1258 -0.4718  0.1663
  461loPI   C2B 7374  11.207   5.957   8.069  0.2085  0.4306  0.2379
  461loPI   C3B 7375  11.430   6.019   7.708 -0.4704 -0.2581 -0.1610
  461loPI   C4B 7376  11.391   6.104   7.346 -0.3811 -0.0342  0.2423
  462loPI    C1 7377  18.590  12.302  10.197  0.1659 -0.1657  0.1788
  462loPI    C2 7378  18.986  12.297  10.137  0.1318 -0.1859 -0.0550
  462loPI    C3 7379  18.797  11.965  10.256  0.2198 -0.1106  0.3095
  462loPI   PO4 7380  18.567  12.384   9.930  0.1265  0.1208  0.0827
  462loPI   GL1 7381  18.776  12.425   9.417  0.1193 -0.2957  0.3636
  462loPI   GL2 7382  18.798  12.716   9.320  0.0856  0.3353  0.1426
  462loPI   C1A 7383  18.715  12.227   9.053  0.2516  0.1809  0.0048
  462loPI   C2A 7384  18.691  12.305   8.628 -0.1913  0.2351  0.2065
  462loPI   C3A 7385  18.821  12.304   8.176 -0.3304 -0.0208  0.3688
  462loPI   C4A 7386  18.792  12.315   7.693 -0.0539  0.3436  0.1666
  462loPI   C5A 7387  18.686  12.104   7.336 -0.1740 -0.0777  0.0229
  462loPI   C6A 7388  18.642  11.950   6.946 -0.1679  0.0111  0.1590
  462loPI   C1B 7389  18.840  12.761   8.931 -0.1634 -0.1221  0.2534
  462loPI   C2B 7390  18.785  12.766   8.524  0.0103  0.1003  0.1103
  462loPI   C3B 7391  18.684  12.837   8.056 -0.0174 -0.1737 -0.1986
  462loPI   C4B 7392  18.478  12.956   7.592 -0.1384  0.0085  0.0096
  463loPI    C1 7393   3.343  14.362  10.036 -0.1261 -0.0284  0.1715
  463loPI    C2 7394   3.179  14.009   9.942 -0.0855  0.0155 -0.0711
  463loPI    C3 7395   3.233  14.109  10.326 -0.0755 -0.2515 -0.0013
  463loPI   PO4 7396   3.222  14.554   9.956 -0.1343  0.2978  0.2596
  463loPI   GL1 7397   2.935  14.505   9.663  0.2679  0.2909 -0.1180
  463loPI   GL2 7398   2.804  14.637   9.419 -0.2663 -0.2572  0.0896
  463loPI   C1A 7399   3.054  14.233   9.258  0.0696  0.2924  0.0225
  463loPI   C2A 7400   3.035  13.988   8.859  0.0685  0.1206 -0.0628
  463loPI   C3A 7401   2.923  14.048   8.408  0.0132 -0.0973 -0.1734
  463loPI   C4A 7402   3.014  13.842   8.075 -0.0122 -0.0973  0.0941
  463loPI   C5A 7403   3.125  13.836   7.622 -0.4997 -0.5477  0.3786
  463loPI   C6A 7404   3.431  13.947   7.432 -0.0397  0.4229  0.1328
  463loPI   C1B 7405   2.763  14.502   8.955 -0.1373 -0.2479 -0.1002
  463loPI   C2B 7406   2.622  14.362   8.556  0.1914  0.0329 -0.1938
  463loPI   C3B 7407   2.510  14.423   8.136 -0.0406  0.0067 -0.0665
  463loPI   C4B 7408   2.554  14.526   7.758  0.0589 -0.1688  0.0991
  464loPI    C1 7409  12.328  15.674   9.548  0.2923  0.3181 -0.1300
  464loPI    C2 7410  12.492  15.463   9.846  0.0041  0.1836 -0.0628
  464loPI    C3 7411  12.702  15.537   9.514  0.0829 -0.2862 -0.1246
  464loPI   PO4 7412  12.159  15.611   9.433 -0.0745  0.0864  0.1087
  464loPI   GL1 7413  12.186  15.389   9.047 -0.0512 -0.2702  0.2168
  464loPI   GL2 7414  12.503  15.494   9.039  0.0029  0.2774  0.2144
  464loPI   C1A 7415  12.059  15.412   8.610  0.1731  0.0985  0.3291
  464loPI   C2A 7416  12.292  15.460   8.211  0.0781  0.3156 -0.2182
  464loPI   C3A 7417  12.384  15.484   7.811 -0.4066  0.0151  0.2003
  464loPI   C4A 7418  12.343  15.458   7.392  0.1483  0.0497  0.2589
  464loPI   C5A 7419  12.001  15.564   7.132 -0.2067  0.0846  0.2025
  464loPI   C6A 7420  11.600  15.432   6.883 -0.1298 -0.1489  0.1576
  464loPI   C1B 7421  12.510  15.515   8.607 -0.2502 -0.0218  0.2434
  464loPI   C2B 7422  12.792  15.371   8.273  0.3058 -0.0337 -0.0871
  464loPI   C3B 7423  12.889  15.322   7.911  0.1411 -0.1093  0.0414
  464loPI   C4B 7424  12.803  15.248   7.450  0.1561 -0.0827 -0.3129
  465loPI    C1 7425   6.691  18.935   9.428 -0.0446  0.3886  0.3289
  465loPI    C2 7426   6.368  18.726   9.537  0.0237 -0.0403 -0.2401
  465loPI    C3 7427   6.733  18.576   9.598  0.1169  0.3366  0.1824
  465loPI   PO4 7428   6.684  19.026   9.266 -0.1492 -0.1143  0.1164
  465loPI   GL1 7429   6.807  19.212   8.945  0.0847 -0.2537  0.0383
  465loPI   GL2 7430   7.081  19.044   8.903 -0.0020  0.1568 -0.1248
  465loPI   C1A 7431   6.495  18.999   8.562 -0.1365  0.0141 -0.2460
  465loPI   C2A 7432   6.271  19.009   8.237 -0.2066 -0.0451 -0.0881
  465loPI   C3A 7433   6.221  18.891   7.776 -0.1159 -0.0268  0.1798
  465loPI   C4A 7434   6.035  18.911   7.316  0.1349  0.0353 -0.0557
  465loPI   C5A 7435   5.880  18.895   7.002  0.2071  0.0189 -0.1074
  465loPI   C6A 7436   6.077  18.452   7.065  0.0607 -0.1599  0.1319
  465loPI   C1B 7437   7.032  19.117   8.477  0.0466  0.1352 -0.0134
  465loPI   C2B 7438   6.762  19.357   8.296  0.2479  0.1426  0.4834
  465loPI   C3B 7439   6.969  19.645   7.850  0.0443 -0.1139  0.2468
  465loPI   C4B 7440   6.833  19.676   7.462 -0.0179 -0.1186  0.0651
  466loPI    C1 7441   2.044   5.675  10.702 -0.3286 -0.1642 -0.1141
  466loPI    C2 7442   2.103   6.060  10.794 -0.2070 -0.1933 -0.0678
  466loPI    C3 7443   2.256   5.773  11.027 -0.2357 -0.2694 -0.1421
  466loPI   PO4 7444   1.894   5.761  10.398 -0.0028 -0.2417  0.1672
  466loPI   GL1 7445   1.666   5.425  10.063  0.1556  0.0341  0.0580
  466loPI   GL2 7446   1.991   5.496  10.007 -0.0087  0.0096  0.1882
  466loPI   C1A 7447   1.688   5.839   9.791 -0.0468  0.1452  0.0771
  466loPI   C2A 7448   1.784   6.225   9.478  0.2070  0.0465 -0.1701
  466loPI   C3A 7449   1.830   6.344   9.134  0.0397 -0.2405 -0.2005
  466loPI   C4A 7450   1.957   6.183   8.727  0.4598  0.1321  0.2687
  466loPI   C5A 7451   2.137   6.336   8.403  0.1092 -0.1261 -0.2168
  466loPI   C6A 7452   2.537   6.542   8.327  0.0808  0.0128 -0.1671
  466loPI   C1B 7453   1.851   5.261   9.616 -0.0715  0.1411 -0.0102
  466loPI   C2B 7454   1.859   5.061   9.192  0.0328 -0.0524 -0.0569
  466loPI   C3B 7455   1.917   4.871   8.771  0.0546 -0.1524 -0.0462
  466loPI   C4B 7456   1.577   4.629   8.496  0.2648  0.1360  0.0450
  467loPI    C1 7457   5.979  18.283   9.622  0.0648 -0.0679  0.1710
  467loPI    C2 7458   5.701  18.092   9.837 -0.0761 -0.2166 -0.1383
  467loPI    C3 7459   6.071  17.942   9.809 -0.0319 -0.1498  0.0699
  467loPI   PO4 7460   5.899  18.390   9.361 -0.1311  0.0304  0.5269
  467loPI   GL1 7461   6.025  18.677   9.078  0.0907  0.0963 -0.1023
  467loPI   GL2 7462   6.266  18.882   9.039 -0.0406  0.0068 -0.1746
  467loPI   C1A 7463   5.997  18.776   8.630  0.2219 -0.3854 -0.0332
  467loPI   C2A 7464   5.929  18.539   8.276 -0.3039  0.0412  0.1437
  467loPI   C3A 7465   5.804  18.614   7.873 -0.0309  0.1548  0.1290
  467loPI   C4A 7466   5.723  18.549   7.376  0.0757 -0.0104 -0.0165
  467loPI   C5A 7467   5.581  18.421   7.015  0.1236  0.2894 -0.3555
  467loPI   C6A 7468   5.474  18.292   6.685 -0.3583 -0.1644 -0.3831
  467loPI   C1B 7469   6.081  19.251   8.790  0.2622 -0.0048 -0.0027
  467loPI   C2B 7470   6.090  19.549   8.321  0.2855  0.0591 -0.2589
  467loPI   C3B 7471   6.218  19.481   7.844 -0.2217 -0.2579  0.0900
  467loPI   C4B 7472   6.346  19.352   7.443  0.1590  0.0053 -0.2291
  468loPI    C1 7473   2.918   4.617  10.672  0.1069  0.0103 -0.2032
  468loPI    C2 7474   2.848   4.264  10.846  0.1260 -0.0158 -0.2481
  468loPI    C3 7475   3.181   4.468  10.934  0.0581  0.0467 -0.1332
  468loPI   PO4 7476   2.778   4.632  10.423 -0.1740 -0.0004  0.1369
  468loPI   GL1 7477   2.578   4.871  10.235  0.0393  0.3702  0.3213
  468loPI   GL2 7478   2.621   5.313  10.180  0.0658 -0.1620  0.1754
  468loPI   C1A 7479   2.425   4.565   9.870  0.0629 -0.1354 -0.0482
  468loPI   C2A 7480   2.480   4.522   9.472  0.1856  0.4311 -0.1882
  468loPI   C3A 7481   2.322   4.496   9.052 -0.2627  0.0438  0.0235
  468loPI   C4A 7482   2.340   4.691   8.658 -0.1244  0.1638 -0.2635
  468loPI   C5A 7483   2.278   4.772   8.261  0.1907 -0.0199 -0.0218
  468loPI   C6A 7484   1.959   4.873   7.981 -0.2373 -0.0028  0.2848
  468loPI   C1B 7485   2.532   5.402   9.724  0.1405 -0.1180  0.1226
  468loPI   C2B 7486   2.369   5.421   9.269  0.1770  0.0261 -0.0016
  468loPI   C3B 7487   2.177   5.370   8.843  0.0521 -0.1300  0.0799
  468loPI   C4B 7488   2.043   5.270   8.458  0.3698  0.1235  0.1396
  469loPI    C1 7489  17.152   5.278   9.904  0.2005 -0.1544  0.1342
  469loPI    C2 7490  16.913   5.584  10.001  0.1496 -0.1216 -0.0887
  469loPI    C3 7491  17.208   5.474  10.248 -0.0509 -0.1176  0.1564
  469loPI   PO4 7492  17.006   5.151   9.762  0.4333 -0.5592  0.1223
  469loPI   GL1 7493  17.026   5.116   9.395 -0.0646  0.4749  0.0073
  469loPI   GL2 7494  17.222   5.254   9.301 -0.0010  0.0835 -0.2851
  469loPI   C1A 7495  16.907   5.018   8.939  0.0869  0.0034  0.3014
  469loPI   C2A 7496  16.676   5.178   8.614 -0.0217  0.2435  0.1432
  469loPI   C3A 7497  16.661   5.215   8.123  0.1997 -0.2132 -0.2427
  469loPI   C4A 7498  16.675   5.036   7.731  0.1338  0.0449 -0.1420
  469loPI   C5A 7499  16.821   4.703   7.465 -0.6025  0.0729  0.1504
  469loPI   C6A 7500  16.797   4.362   7.213  0.3229 -0.3462 -0.3582
  469loPI   C1B 7501  17.305   5.393   8.944  0.4111  0.0885 -0.0225
  469loPI   C2B 7502  17.512   5.539   8.548  0.1078 -0.0965  0.0673
  469loPI   C3B 7503  17.470   5.865   8.245  0.0494  0.0824 -0.2713
  469loPI   C4B 7504  17.672   6.134   7.977 -0.2039  0.1320  0.0001
  470loPI    C1 7505  11.173  15.707   9.889  0.0807 -0.1483  0.0239
  470loPI    C2 7506  11.012  15.982  10.130  0.0061 -0.0604 -0.1248
  470loPI    C3 7507  11.153  15.641  10.283  0.2321  0.1210  0.0795
  470loPI   PO4 7508  11.244  15.863   9.656 -0.2832 -0.1193 -0.1660
  470loPI   GL1 7509  10.939  15.836   9.197  0.2890  0.2636 -0.0021
  470loPI   GL2 7510  11.298  15.866   8.996 -0.1347  0.1247 -0.0407
  470loPI   C1A 7511  10.780  15.768   8.786  0.2113  0.2790  0.2428
  470loPI   C2A 7512  10.619  15.553   8.439  0.0344  0.3443 -0.0880
  470loPI   C3A 7513  10.489  15.651   8.061 -0.0232  0.0924 -0.2267
  470loPI   C4A 7514  10.212  15.803   7.682  0.0096 -0.2049 -0.1178
  470loPI   C5A 7515  10.009  15.972   7.356 -0.0262 -0.0487 -0.3023
  470loPI   C6A 7516   9.935  16.349   7.118  0.0724 -0.0621 -0.2925
  470loPI   C1B 7517  11.310  15.806   8.564 -0.1274 -0.4625 -0.0195
  470loPI   C2B 7518  11.164  15.676   8.204  0.5601 -0.2349  0.3382
  470loPI   C3B 7519  11.219  15.388   7.810 -0.0223 -0.3953 -0.0238
  470loPI   C4B 7520  11.047  14.984   7.498  0.2889 -0.1188 -0.1319
  471loPI    C1 7521   4.927  14.276  10.057 -0.3647 -0.1266 -0.0081
  471loPI    C2 7522   4.783  14.018  10.327 -0.1150  0.0756  0.3260
  471loPI    C3 7523   4.855  14.398  10.431  0.4018  0.0481  0.0992
  471loPI   PO4 7524   5.028  14.110   9.898 -0.2454 -0.3587  0.1191
  471loPI   GL1 7525   5.083  13.880   9.530  0.2094 -0.0759  0.0024
  471loPI   GL2 7526   5.335  14.017   9.346 -0.2646 -0.1318  0.0623
  471loPI   C1A 7527   4.815  13.758   9.202  0.0796 -0.0954 -0.1262
  471loPI   C2A 7528   4.680  13.726   8.834  0.0870 -0.2923  0.0915
  471loPI   C3A 7529   4.677  14.054   8.500  0.3441  0.0518  0.0350
  471loPI   C4A 7530   5.013  14.024   8.253  0.0909  0.4133 -0.0064
  471loPI   C5A 7531   5.190  13.702   7.974 -0.3259 -0.0572 -0.0633
  471loPI   C6A 7532   5.288  13.492   7.688  0.0730 -0.4465  0.1403
  471loPI   C1B 7533   5.652  13.956   9.034  0.0597  0.0881 -0.1550
  471loPI   C2B 7534   5.961  13.998   8.690 -0.3472  0.1160 -0.2598
  471loPI   C3B 7535   6.255  14.150   8.335  0.0005 -0.0901 -0.2885
  471loPI   C4B 7536   6.636  14.429   8.269  0.1177 -0.1576 -0.0931
  472loPI    C1 7537  10.811  12.183   9.791  0.0203  0.0144  0.1707
  472loPI    C2 7538  11.091  11.898   9.776  0.0195  0.0192  0.0568
  472loPI    C3 7539  10.855  11.929  10.098  0.0114 -0.1163  0.0647
  472loPI   PO4 7540  10.696  12.118   9.474 -0.0006 -0.2504  0.0871
  472loPI   GL1 7541  10.780  12.281   9.095  0.1825  0.1152 -0.2695
  472loPI   GL2 7542  10.878  12.135   8.936 -0.0224  0.4336 -0.1590
  472loPI   C1A 7543  10.346  12.346   8.952 -0.1990  0.0234 -0.0350
  472loPI   C2A 7544  10.357  12.492   8.518 -0.2063  0.3048 -0.0121
  472loPI   C3A 7545  10.212  12.445   8.171 -0.1682 -0.0428  0.1120
  472loPI   C4A 7546  10.047  12.341   7.763 -0.1594 -0.1229 -0.2523
  472loPI   C5A 7547   9.663  12.439   7.667  0.3338 -0.0831  0.0881
  472loPI   C6A 7548   9.408  12.779   7.366 -0.1768  0.1631  0.0974
  472loPI   C1B 7549  10.615  12.061   8.657 -0.1461 -0.1930  0.3066
  472loPI   C2B 7550  10.550  12.141   8.108  0.0152 -0.1500 -0.0147
  472loPI   C3B 7551  10.514  12.207   7.692  0.1719 -0.0635  0.0117
  472loPI   C4B 7552  10.653  12.354   7.245  0.2329  0.2473  0.2253
  473loPI    C1 7553   9.853  14.226   9.557  0.0561 -0.1848  0.1603
  473loPI    C2 7554  10.063  14.330   9.881  0.0821  0.0022  0.0849
  473loPI    C3 7555   9.883  13.973   9.865  0.2130 -0.0720  0.2389
  473loPI   PO4 7556  10.101  14.217   9.387  0.1931 -0.1054  0.2029
  473loPI   GL1 7557  10.237  14.005   9.064 -0.0641 -0.0658  0.1118
  473loPI   GL2 7558  10.384  13.793   8.984  0.1306  0.0295 -0.0734
  473loPI   C1A 7559  10.176  14.014   8.612  0.0978  0.1436  0.0715
  473loPI   C2A 7560  10.182  13.848   8.242  0.1803 -0.0071  0.0271
  473loPI   C3A 7561  10.347  13.751   7.896  0.2502  0.2947  0.0349
  473loPI   C4A 7562  10.250  13.760   7.515  0.0644  0.0034  0.0988
  473loPI   C5A 7563  10.191  13.578   7.049 -0.1211 -0.2448 -0.1823
  473loPI   C6A 7564  10.087  13.351   6.683  0.0676 -0.3505  0.2593
  473loPI   C1B 7565  10.474  13.612   8.662 -0.2668  0.0387  0.3195
  473loPI   C2B 7566  10.709  13.783   8.292  0.1878 -0.1359 -0.0680
  473loPI   C3B 7567  10.834  13.650   7.853 -0.2027 -0.1164 -0.1817
  473loPI   C4B 7568  11.058  13.540   7.486  0.0060  0.0865  0.1327
  474loPI    C1 7569   3.711  10.304  10.463 -0.1577  0.1896 -0.4678
  474loPI    C2 7570   3.543  10.051  10.724  0.3429  0.2577 -0.0642
  474loPI    C3 7571   3.521  10.446  10.786  0.0556  0.2977 -0.3882
  474loPI   PO4 7572   3.657  10.292  10.256 -0.2716 -0.2035  0.0916
  474loPI   GL1 7573   3.702  10.520   9.845  0.0437 -0.1051 -0.1029
  474loPI   GL2 7574   3.335  10.344   9.825  0.1953  0.3604 -0.3456
  474loPI   C1A 7575   3.951  10.497   9.334  0.0055 -0.1331  0.1640
  474loPI   C2A 7576   4.206  10.581   8.917  0.0176 -0.1489 -0.0938
  474loPI   C3A 7577   4.281  10.555   8.522  0.3129  0.2324  0.1321
  474loPI   C4A 7578   4.265  10.766   8.081 -0.3273  0.2055  0.0198
  474loPI   C5A 7579   4.297  10.599   7.627  0.0610 -0.0115  0.2696
  474loPI   C6A 7580   4.282  10.491   7.255 -0.1805  0.1407  0.0811
  474loPI   C1B 7581   3.430  10.415   9.376  0.0900  0.1222 -0.2265
  474loPI   C2B 7582   3.480  10.460   8.947  0.0376 -0.1321  0.2623
  474loPI   C3B 7583   3.742  10.561   8.622  0.1007  0.2576 -0.0324
  474loPI   C4B 7584   3.818  10.464   8.368  0.2192  0.0391 -0.1065
  475loPI    C1 7585   4.523  14.535   9.988 -0.1249 -0.1237  0.1585
  475loPI    C2 7586   4.341  14.366  10.302 -0.3228  0.0849  0.1581
  475loPI    C3 7587   4.444  14.143   9.987 -0.1329 -0.1238  0.3645
  475loPI   PO4 7588   4.222  14.795   9.890  0.2553  0.0304  0.3303
  475loPI   GL1 7589   4.355  14.769   9.449  0.0326 -0.0761 -0.0429
  475loPI   GL2 7590   4.740  14.862   9.274  0.0395 -0.2207  0.1207
  475loPI   C1A 7591   4.339  14.534   9.165  0.0503  0.1144 -0.3591
  475loPI   C2A 7592   4.362  14.483   8.780  0.0684 -0.1287 -0.0268
  475loPI   C3A 7593   4.311  14.429   8.429  0.0375 -0.0485 -0.1481
  475loPI   C4A 7594   4.019  14.365   7.929  0.0606 -0.0354  0.2581
  475loPI   C5A 7595   3.714  14.422   7.587 -0.1625  0.1190 -0.0633
  475loPI   C6A 7596   3.564  14.827   7.398  0.0144 -0.4475  0.4683
  475loPI   C1B 7597   4.809  14.925   8.856  0.0344  0.0580 -0.2237
  475loPI   C2B 7598   4.781  14.685   8.640 -0.4771  0.3728  0.1723
  475loPI   C3B 7599   4.806  14.449   8.195 -0.1602  0.1839 -0.1342
  475loPI   C4B 7600   4.528  14.212   7.920  0.4343 -0.0530  0.2098
  476loPI    C1 7601  18.807   4.031  10.230  0.1669 -0.0025 -0.1232
  476loPI    C2 7602  18.542   3.775  10.385  0.1765  0.0833  0.0381
  476loPI    C3 7603  18.777   3.989  10.627  0.0907  0.3272 -0.0910
  476loPI   PO4 7604  18.823   4.045  10.013  0.0909  0.0557 -0.1811
  476loPI   GL1 7605  19.223   4.156   9.844  0.1125  0.0125  0.0454
  476loPI   GL2 7606  19.288   3.795   9.886  0.2251  0.1730 -0.0877
  476loPI   C1A 7607  19.356   4.380   9.365  0.2497 -0.0455 -0.0548
  476loPI   C2A 7608  19.215   4.330   8.968  0.0033 -0.1336  0.2519
  476loPI   C3A 7609  19.278   4.508   8.573 -0.0877 -0.1764  0.0309
  476loPI   C4A 7610  19.407   4.855   8.359 -0.0944  0.0117 -0.1164
  476loPI   C5A 7611  19.299   5.143   8.181 -0.3308 -0.0168  0.0341
  476loPI   C6A 7612  19.186   5.171   7.770  0.1709 -0.1897  0.1988
  476loPI   C1B 7613  19.457   3.804   9.447 -0.1791  0.2089 -0.0283
  476loPI   C2B 7614  19.527   4.006   9.088 -0.4178  0.0808  0.3140
  476loPI   C3B 7615  19.637   4.091   8.681 -0.2171  0.3101  0.2317
  476loPI   C4B 7616  19.729   4.230   8.213  0.2920 -0.0327 -0.0580
  477loPI    C1 7617   9.422  13.587   9.829  0.0261  0.1840  0.0378
  477loPI    C2 7618   9.729  13.593  10.085  0.0852 -0.0760 -0.0246
  477loPI    C3 7619   9.376  13.749  10.192  0.1619 -0.0178  0.1467
  477loPI   PO4 7620   9.520  13.728   9.592 -0.1098  0.2724 -0.0737
  477loPI   GL1 7621   9.461  13.755   9.050 -0.0731 -0.0293 -0.3592
  477loPI   GL2 7622   9.783  13.678   8.964 -0.1416 -0.1903  0.0110
  477loPI   C1A 7623   9.158  13.499   8.890 -0.1713 -0.2981 -0.0025
  477loPI   C2A 7624   8.845  13.505   8.546  0.2909  0.0810 -0.0500
  477loPI   C3A 7625   8.440  13.563   8.407 -0.0881  0.0034  0.0517
  477loPI   C4A 7626   8.295  13.849   8.044 -0.0115 -0.0215 -0.0722
  477loPI   C5A 7627   8.098  14.062   7.710  0.0132 -0.0823 -0.3077
  477loPI   C6A 7628   7.933  14.346   7.398  0.1821 -0.4412 -0.1829
  477loPI   C1B 7629   9.720  13.717   8.521 -0.2822 -0.0486 -0.0784
  477loPI   C2B 7630   9.626  13.715   8.153 -0.2452 -0.1043 -0.1337
  477loPI   C3B 7631   9.896  13.921   7.824 -0.0221  0.0547 -0.2227
  477loPI   C4B 7632  10.145  14.267   7.675 -0.0814 -0.1917 -0.3295
  478loPI    C1 7633  16.206   4.527   9.967  0.1249 -0.3115 -0.1130
  478loPI    C2 7634  16.445   4.474  10.284 -0.0734 -0.0820  0.0787
  478loPI    C3 7635  16.187   4.780  10.276 -0.2037 -0.1951 -0.2243
  478loPI   PO4 7636  16.308   4.370   9.715 -0.0454  0.2843 -0.0298
  478loPI   GL1 7637  16.249   4.247   9.327 -0.1561 -0.0653  0.0431
  478loPI   GL2 7638  16.055   4.379   9.132 -0.1505 -0.1980 -0.2002
  478loPI   C1A 7639  16.578   4.251   9.009  0.0808  0.2982 -0.4054
  478loPI   C2A 7640  16.774   4.320   8.606 -0.2077  0.0026  0.2548
  478loPI   C3A 7641  16.744   4.335   8.233 -0.1008  0.0788  0.3595
  478loPI   C4A 7642  16.726   4.259   7.702 -0.0409 -0.1363  0.1134
  478loPI   C5A 7643  16.618   3.900   7.342 -0.0133 -0.3121  0.1471
  478loPI   C6A 7644  16.760   3.859   6.928 -0.0380  0.1004 -0.4148
  478loPI   C1B 7645  16.092   4.132   8.844 -0.3715  0.0434 -0.1659
  478loPI   C2B 7646  16.330   4.233   8.480  0.0060  0.0305  0.0646
  478loPI   C3B 7647  16.324   4.216   8.034 -0.1071  0.3322  0.1230
  478loPI   C4B 7648  16.433   3.872   7.823  0.1435  0.0348  0.0274
  479loPI    C1 7649   9.619   1.376   9.594 -0.0281  0.4447 -0.1291
  479loPI    C2 7650   9.941   1.163   9.699 -0.2063  0.0382 -0.3835
  479loPI    C3 7651   9.974   1.556   9.631  0.1967  0.0345 -0.2350
  479loPI   PO4 7652   9.478   1.234   9.412  0.0367 -0.0694  0.0755
  479loPI   GL1 7653   9.535   1.179   9.023 -0.1937 -0.2672 -0.0701
  479loPI   GL2 7654   9.759   1.300   8.766 -0.0759  0.0417  0.0278
  479loPI   C1A 7655   9.327   1.033   8.640 -0.1720  0.0187 -0.1538
  479loPI   C2A 7656   9.338   0.937   8.265  0.2980  0.0724 -0.3336
  479loPI   C3A 7657   9.524   0.865   7.883  0.1199 -0.1304  0.2762
  479loPI   C4A 7658   9.638   0.505   7.526  0.1949 -0.2000 -0.0065
  479loPI   C5A 7659   9.645   0.473   7.136  0.0181 -0.1945  0.0402
  479loPI   C6A 7660   9.944   0.636   6.871 -0.2578 -0.1647  0.0432
  479loPI   C1B 7661   9.660   1.267   8.339  0.3081  0.1480  0.1526
  479loPI   C2B 7662   9.694   1.352   7.943  0.0581 -0.0418  0.0465
  479loPI   C3B 7663   9.469   1.474   7.577 -0.1848 -0.5989  0.0581
  479loPI   C4B 7664   9.451   1.541   7.108 -0.1709 -0.2437 -0.1389
  480loPI    C1 7665  11.945  12.878   9.788  0.0722  0.1346  0.1119
  480loPI    C2 7666  11.987  13.178  10.050 -0.0879  0.0242  0.2658
  480loPI    C3 7667  11.812  12.836  10.163 -0.0208 -0.0811  0.0561
  480loPI   PO4 7668  11.804  12.971   9.573  0.1542 -0.4324 -0.1994
  480loPI   GL1 7669  11.756  12.810   9.153 -0.4110 -0.0894 -0.1195
  480loPI   GL2 7670  12.078  12.869   9.127 -0.2501  0.1780 -0.0735
  480loPI   C1A 7671  11.725  12.918   8.625  0.0759 -0.0867 -0.1877
  480loPI   C2A 7672  11.808  12.975   8.195  0.1292 -0.2316 -0.1147
  480loPI   C3A 7673  11.933  13.092   7.767 -0.2014  0.4148 -0.1253
  480loPI   C4A 7674  11.981  13.161   7.364  0.2727  0.0862  0.0248
  480loPI   C5A 7675  12.097  13.181   6.928 -0.2404 -0.1295 -0.1593
  480loPI   C6A 7676  12.087  13.401   6.504 -0.1784  0.2611  0.4233
  480loPI   C1B 7677  12.160  12.783   8.768  0.1342  0.0437 -0.1550
  480loPI   C2B 7678  12.270  12.832   8.324 -0.0903  0.1237 -0.1701
  480loPI   C3B 7679  12.330  13.091   8.086  0.2025  0.1087  0.0106
  480loPI   C4B 7680  12.435  13.255   7.703  0.0145  0.0843  0.0953
  481loPI    C1 7681  13.066   0.375   9.265 -0.0430 -0.0400 -0.1002
  481loPI    C2 7682  12.751   0.165   9.135 -0.0006 -0.1530 -0.0223
  481loPI    C3 7683  12.869   0.133   9.516  0.0897 -0.0916 -0.0447
  481loPI   PO4 7684  12.972   0.609   9.118 -0.2426 -0.0544  0.1120
  481loPI   GL1 7685  13.221   0.805   8.826  0.0574  0.2979 -0.1302
  481loPI   GL2 7686  13.476   1.179   8.773 -0.2860 -0.0202  0.0424
  481loPI   C1A 7687  13.094   0.665   8.452 -0.3415 -0.1811 -0.3044
  481loPI   C2A 7688  12.947   0.509   8.179 -0.2066  0.1142  0.0589
  481loPI   C3A 7689  12.955   0.445   7.783 -0.1560  0.1946  0.1102
  481loPI   C4A 7690  12.994   0.351   7.354 -0.2014  0.1147 -0.0059
  481loPI   C5A 7691  13.047   0.390   6.881  0.4902 -0.0107 -0.0410
  481loPI   C6A 7692  12.974   0.238   6.476  0.2543  0.1823  0.3763
  481loPI   C1B 7693  13.373   1.050   8.328  0.1426 -0.0725  0.1823
  481loPI   C2B 7694  13.330   0.890   7.888 -0.0006 -0.3442 -0.0579
  481loPI   C3B 7695  13.200   0.796   7.450 -0.0116 -0.1097  0.1849
  481loPI   C4B 7696  12.958   0.802   7.118 -0.0628  0.2649 -0.0944
  482loPI    C1 7697   4.444  17.303  10.009 -0.3621  0.0511 -0.1450
  482loPI    C2 7698   4.192  17.440  10.289  0.0234  0.1705  0.1525
  482loPI    C3 7699   4.489  17.673  10.155 -0.0381  0.0430 -0.2172
  482loPI   PO4 7700   4.224  17.261   9.808  0.5428 -0.2514 -0.0134
  482loPI   GL1 7701   3.999  17.219   9.341  0.1912  0.0510 -0.1030
  482loPI   GL2 7702   4.362  17.336   9.346 -0.1565  0.2587  0.1099
  482loPI   C1A 7703   3.984  17.081   8.861  0.0232 -0.1307  0.2048
  482loPI   C2A 7704   3.914  16.790   8.507 -0.0094 -0.0214 -0.0943
  482loPI   C3A 7705   3.624  16.608   8.237 -0.4132 -0.3622  0.0598
  482loPI   C4A 7706   3.508  16.258   8.043  0.1465 -0.2542 -0.1282
  482loPI   C5A 7707   3.402  16.086   7.597 -0.2185 -0.0010  0.3717
  482loPI   C6A 7708   3.283  16.360   7.302 -0.0135 -0.1809 -0.1426
  482loPI   C1B 7709   4.431  16.981   9.041  0.0559 -0.2051 -0.2926
  482loPI   C2B 7710   4.452  16.882   8.641  0.0869  0.0351  0.5551
  482loPI   C3B 7711   4.320  16.820   8.182 -0.1338 -0.0353  0.2053
  482loPI   C4B 7712   4.509  16.669   7.833  0.4601 -0.2558 -0.1870
  483loPI    C1 7713  14.000   4.115   9.832  0.0556 -0.1307 -0.0299
  483loPI    C2 7714  13.647   3.926   9.845 -0.1962  0.3407  0.2613
  483loPI    C3 7715  13.935   3.830  10.105 -0.0366 -0.1650 -0.0872
  483loPI   PO4 7716  14.064   4.044   9.564 -0.1009  0.6221 -0.0115
  483loPI   GL1 7717  14.268   4.251   9.139  0.1949 -0.2013 -0.3470
  483loPI   GL2 7718  14.401   4.477   9.237  0.0010 -0.3648 -0.1451
  483loPI   C1A 7719  14.259   4.191   8.729  0.0859 -0.1626 -0.2333
  483loPI   C2A 7720  14.250   4.047   8.282  0.0244 -0.2766  0.0281
  483loPI   C3A 7721  14.153   3.817   7.946  0.0027 -0.0905  0.0194
  483loPI   C4A 7722  14.153   3.458   7.533  0.0186  0.2472 -0.1476
  483loPI   C5A 7723  14.269   3.310   7.077  0.1062 -0.1864 -0.2556
  483loPI   C6A 7724  14.119   3.521   6.709  0.1913  0.2542  0.0160
  483loPI   C1B 7725  14.391   4.639   8.864 -0.2194  0.0180  0.0412
  483loPI   C2B 7726  14.298   4.668   8.438  0.3200 -0.3012  0.1348
  483loPI   C3B 7727  14.134   4.519   8.017  0.1195  0.2114 -0.3291
  483loPI   C4B 7728  14.192   4.230   7.621 -0.1544 -0.2323  0.2168
  484loPI    C1 7729   6.519   0.636   9.439  0.1473  0.0205  0.2880
  484loPI    C2 7730   6.548   0.566   9.831 -0.1245 -0.0416  0.2994
  484loPI    C3 7731   6.256   0.394   9.619  0.0536 -0.0512  0.0587
  484loPI   PO4 7732   6.793   0.673   9.418  0.2101 -0.2457 -0.2922
  484loPI   GL1 7733   6.771   1.143   9.184  0.1069  0.0147  0.0797
  484loPI   GL2 7734   6.651   1.332   9.326 -0.0500 -0.2160 -0.0860
  484loPI   C1A 7735   6.773   1.430   8.877 -0.0655 -0.2923  0.0987
  484loPI   C2A 7736   6.890   1.499   8.584  0.1456 -0.1142 -0.1982
  484loPI   C3A 7737   6.851   1.533   8.183  0.2825 -0.2116  0.3112
  484loPI   C4A 7738   6.929   1.304   7.772 -0.1405 -0.1318 -0.1665
  484loPI   C5A 7739   6.859   1.223   7.326  0.3322 -0.1088 -0.0911
  484loPI   C6A 7740   6.700   1.164   6.915 -0.1365  0.1612 -0.0873
  484loPI   C1B 7741   6.274   1.387   9.086  0.0600 -0.2533  0.4016
  484loPI   C2B 7742   6.274   1.426   8.683 -0.0230  0.0376  0.3289
  484loPI   C3B 7743   6.171   1.274   8.341  0.2342  0.1548  0.2177
  484loPI   C4B 7744   6.411   1.360   7.940 -0.0346  0.0070  0.0537
  485loPI    C1 7745   7.971  18.115   9.227  0.1152  0.2071  0.1681
  485loPI    C2 7746   8.132  18.101   9.593 -0.1431  0.0668  0.2786
  485loPI    C3 7747   8.010  17.764   9.415  0.0774  0.1214  0.0177
  485loPI   PO4 7748   7.830  18.302   9.163  0.2556 -0.0414 -0.0259
  485loPI   GL1 7749   7.888  18.526   8.829 -0.1025  0.1134  0.2367
  485loPI   GL2 7750   7.706  18.185   8.734 -0.1755  0.0935  0.0059
  485loPI   C1A 7751   7.957  18.639   8.423 -0.0211 -0.1004  0.2694
  485loPI   C2A 7752   7.872  18.668   7.955  0.0832 -0.0937  0.1483
  485loPI   C3A 7753   7.621  18.822   7.650 -0.3357 -0.0691 -0.2268
  485loPI   C4A 7754   7.282  18.999   7.678 -0.0629 -0.0269 -0.0434
  485loPI   C5A 7755   6.981  19.145   7.507 -0.1721 -0.1682  0.0503
  485loPI   C6A 7756   6.724  19.276   7.101 -0.5283 -0.0059  0.0734
  485loPI   C1B 7757   7.601  18.321   8.273 -0.0212  0.2170  0.1523
  485loPI   C2B 7758   7.564  18.337   7.784  0.4292  0.3013  0.0594
  485loPI   C3B 7759   7.586  18.040   7.568  0.0322 -0.1595 -0.2533
  485loPI   C4B 7760   7.642  17.838   7.228  0.1129 -0.0213  0.0039
  486loPI    C1 7761   5.476   8.155  10.155  0.0870 -0.0564  0.1266
  486loPI    C2 7762   5.422   8.181  10.550  0.0739  0.0597  0.1174
  486loPI    C3 7763   5.111   8.107  10.310  0.0794  0.0040  0.1272
  486loPI   PO4 7764   5.706   8.290  10.101  0.1067 -0.1031  0.2469
  486loPI   GL1 7765   5.814   8.617   9.789 -0.6055  0.0651  0.0572
  486loPI   GL2 7766   5.896   8.890   9.713 -0.0233 -0.0687 -0.0126
  486loPI   C1A 7767   5.927   8.273   9.382 -0.1226 -0.0953  0.2263
  486loPI   C2A 7768   5.912   8.311   8.963  0.1026 -0.0517  0.1597
  486loPI   C3A 7769   5.798   8.352   8.506 -0.0751  0.4288 -0.5150
  486loPI   C4A 7770   5.896   8.546   8.036  0.0828 -0.0817 -0.2107
  486loPI   C5A 7771   5.940   8.475   7.578 -0.1585 -0.1646 -0.1370
  486loPI   C6A 7772   5.820   8.709   7.219  0.1713 -0.1790  0.1433
  486loPI   C1B 7773   5.766   8.752   9.294 -0.0494  0.0409 -0.2684
  486loPI   C2B 7774   5.833   8.749   8.824 -0.0874 -0.3111 -0.0889
  486loPI   C3B 7775   5.776   8.957   8.431 -0.0308 -0.2729  0.0830
  486loPI   C4B 7776   5.820   9.212   8.042  0.1246  0.2125  0.0131
  487loPI    C1 7777  12.516   1.201   9.756 -0.1432 -0.0363 -0.0549
  487loPI    C2 7778  12.592   1.266  10.143 -0.0522 -0.1533 -0.0526
  487loPI    C3 7779  12.214   1.253  10.013 -0.0858 -0.2094  0.0494
  487loPI   PO4 7780  12.697   1.279   9.516 -0.1018 -0.0137  0.0276
  487loPI   GL1 7781  12.783   1.211   9.119  0.2973  0.0471  0.5514
  487loPI   GL2 7782  12.558   0.931   9.032 -0.1445  0.1237 -0.2444
  487loPI   C1A 7783  12.962   1.449   8.767  0.3506  0.0514  0.3141
  487loPI   C2A 7784  13.029   1.453   8.276  0.0241 -0.2878 -0.1717
  487loPI   C3A 7785  13.149   1.335   7.974  0.1302 -0.2310  0.0287
  487loPI   C4A 7786  13.138   1.460   7.594 -0.2253 -0.0476 -0.1607
  487loPI   C5A 7787  13.268   1.270   7.130  0.0535 -0.1664 -0.0333
  487loPI   C6A 7788  13.416   1.128   6.657  0.2450  0.0839 -0.2706
  487loPI   C1B 7789  12.699   0.960   8.661 -0.0534 -0.0230  0.0515
  487loPI   C2B 7790  12.848   1.019   8.226  0.2098  0.0183 -0.3801
  487loPI   C3B 7791  12.892   1.048   7.764 -0.0919  0.2672 -0.1912
  487loPI   C4B 7792  12.742   1.175   7.353 -0.0490 -0.1121 -0.1519
  488loPI    C1 7793   1.817  13.912  10.349  0.1685  0.1769  0.4946
  488loPI    C2 7794   1.747  13.525  10.422  0.2472  0.0546 -0.0343
  488loPI    C3 7795   1.451  13.792  10.455  0.1781 -0.0557  0.2742
  488loPI   PO4 7796   1.880  13.944  10.115 -0.1524  0.1174 -0.1220
  488loPI   GL1 7797   1.782  13.821   9.576 -0.2434  0.1580  0.5967
  488loPI   GL2 7798   1.679  13.390   9.460 -0.1677  0.1076 -0.1625
  488loPI   C1A 7799   1.646  13.773   9.099 -0.2562  0.1485 -0.1331
  488loPI   C2A 7800   1.547  13.613   8.701  0.0706  0.1794 -0.1704
  488loPI   C3A 7801   1.757  13.321   8.340  0.1346  0.2265  0.1379
  488loPI   C4A 7802   1.877  13.213   7.909  0.1513 -0.0890 -0.1783
  488loPI   C5A 7803   1.860  13.089   7.453 -0.2934  0.0724 -0.2017
  488loPI   C6A 7804   1.747  12.768   7.252 -0.1403  0.5119 -0.1843
  488loPI   C1B 7805   1.370  13.381   9.151 -0.0899 -0.1195 -0.3581
  488loPI   C2B 7806   1.229  13.127   8.827 -0.0075  0.0743 -0.4042
  488loPI   C3B 7807   1.505  12.884   8.501 -0.0340  0.2837  0.1600
  488loPI   C4B 7808   1.692  12.774   8.228  0.1367  0.1014  0.1679
  489loPI    C1 7809  14.592  13.268   9.510 -0.0023 -0.3887  0.3523
  489loPI    C2 7810  14.867  13.535   9.622 -0.0057 -0.1685 -0.1370
  489loPI    C3 7811  14.481  13.597   9.708  0.0359 -0.2133  0.0879
  489loPI   PO4 7812  14.630  13.180   9.152 -0.1615 -0.0310  0.3599
  489loPI   GL1 7813  14.522  13.070   8.811 -0.0203  0.2286  0.1321
  489loPI   GL2 7814  14.839  13.068   8.755  0.2401  0.1822  0.1910
  489loPI   C1A 7815  14.237  13.220   8.486  0.0701 -0.3329 -0.0516
  489loPI   C2A 7816  14.235  13.048   8.061  0.4921  0.1983 -0.0078
  489loPI   C3A 7817  14.291  12.861   7.641 -0.0730 -0.1035 -0.1544
  489loPI   C4A 7818  14.271  12.598   7.394 -0.3966  0.3446 -0.2856
  489loPI   C5A 7819  14.328  12.425   6.948 -0.3260 -0.1541  0.0830
  489loPI   C6A 7820  14.311  12.274   6.551 -0.2514  0.2482 -0.2904
  489loPI   C1B 7821  14.750  13.153   8.296 -0.1851 -0.0130  0.1118
  489loPI   C2B 7822  14.716  13.077   7.838 -0.0220 -0.1222  0.3584
  489loPI   C3B 7823  14.816  12.993   7.414 -0.0017 -0.2262 -0.0090
  489loPI   C4B 7824  15.159  13.156   7.007  0.1320 -0.1586 -0.1616
  490loPI    C1 7825  15.674  12.121   9.489  0.0578  0.1204  0.0870
  490loPI    C2 7826  15.592  12.252   9.858 -0.0215  0.0927  0.0795
  490loPI    C3 7827  15.971  12.190   9.747 -0.0023  0.0194  0.1844
  490loPI   PO4 7828  15.441  12.222   9.351 -0.0817 -0.0574  0.6951
  490loPI   GL1 7829  15.220  11.991   8.984  0.0549 -0.1807  0.0751
  490loPI   GL2 7830  15.123  12.141   8.705  0.1335 -0.1350 -0.1306
  490loPI   C1A 7831  15.485  11.818   8.596 -0.0312  0.1369  0.2121
  490loPI   C2A 7832  15.265  11.774   8.198  0.0426 -0.1006 -0.2370
  490loPI   C3A 7833  15.315  11.837   7.771 -0.0667 -0.0635 -0.0142
  490loPI   C4A 7834  15.622  11.948   7.475 -0.2929 -0.1123 -0.2283
  490loPI   C5A 7835  15.750  12.096   7.208 -0.0159  0.1198  0.0434
  490loPI   C6A 7836  15.599  12.400   7.231  0.3023  0.0378 -0.0860
  490loPI   C1B 7837  15.291  12.264   8.244 -0.0441  0.1208 -0.1365
  490loPI   C2B 7838  15.681  12.036   8.077  0.0918  0.0673 -0.1113
  490loPI   C3B 7839  15.913  12.281   7.770  0.0399 -0.1745 -0.2447
  490loPI   C4B 7840  16.197  12.180   7.342  0.1856  0.0589 -0.0070
  491loPI    C1 7841  10.254  13.425   9.741  0.2965  0.4110 -0.1725
  491loPI    C2 7842  10.412  13.078   9.620  0.0419  0.2153  0.0436
  491loPI    C3 7843  10.578  13.278   9.924  0.1030  0.2097  0.0140
  491loPI   PO4 7844   9.902  13.283   9.639  0.0411  0.1094  0.0022
  491loPI   GL1 7845   9.935  12.982   9.328  0.2714 -0.0169  0.2052
  491loPI   GL2 7846   9.646  12.860   9.374 -0.1573  0.1045 -0.1195
  491loPI   C1A 7847  10.017  12.888   8.936 -0.0170  0.0941  0.1681
  491loPI   C2A 7848  10.115  12.930   8.485  0.2853 -0.1463  0.0667
  491loPI   C3A 7849   9.992  12.910   8.190  0.1540 -0.1050 -0.1794
  491loPI   C4A 7850   9.958  12.877   7.840  0.0932 -0.2290  0.2973
  491loPI   C5A 7851   9.950  12.939   7.385 -0.1221  0.0730 -0.2507
  491loPI   C6A 7852   9.810  13.098   6.991  0.3848 -0.2320  0.0455
  491loPI   C1B 7853   9.394  12.665   9.044 -0.1851 -0.1287 -0.3582
  491loPI   C2B 7854   9.193  12.526   8.718 -0.3679 -0.3322  0.3879
  491loPI   C3B 7855   9.011  12.529   8.336  0.1045  0.2335  0.0124
  491loPI   C4B 7856   8.824  12.759   7.972  0.0681  0.3162 -0.1990
  492loPI    C1 7857  10.524  17.177   9.699 -0.0364  0.3482  0.1811
  492loPI    C2 7858  10.652  16.838   9.528 -0.0929  0.4041  0.0272
  492loPI    C3 7859  10.720  16.904   9.917 -0.0430  0.2359  0.0475
  492loPI   PO4 7860  10.653  17.394   9.561  0.0403  0.1460 -0.2704
  492loPI   GL1 7861  10.758  17.366   9.091  0.0381  0.0308 -0.0699
  492loPI   GL2 7862  10.942  17.032   9.130 -0.3159  0.2948  0.2568
  492loPI   C1A 7863  10.828  17.173   8.648  0.3342 -0.0299  0.0177
  492loPI   C2A 7864  10.548  17.081   8.260  0.1136 -0.0692  0.1223
  492loPI   C3A 7865  10.166  17.166   8.022 -0.1201  0.0273 -0.2359
  492loPI   C4A 7866  10.214  17.214   7.536  0.1456 -0.0134  0.2207
  492loPI   C5A 7867  10.494  17.118   7.197  0.1500  0.1898 -0.3242
  492loPI   C6A 7868  10.864  17.271   6.897 -0.0167 -0.3866  0.1738
  492loPI   C1B 7869  11.011  16.757   8.792 -0.2699  0.1579 -0.1054
  492loPI   C2B 7870  11.062  16.686   8.456 -0.2566 -0.0553  0.0622
  492loPI   C3B 7871  10.944  16.674   8.027  0.1197  0.0635 -0.1546
  492loPI   C4B 7872  11.042  16.480   7.656  0.1290  0.5603 -0.0149
  493loPI    C1 7873   3.335   9.513  10.679  0.0133 -0.1752 -0.2938
  493loPI    C2 7874   3.385   9.117  10.654  0.1613 -0.1814  0.0419
  493loPI    C3 7875   3.106   9.267  10.898  0.0887 -0.0784 -0.1035
  493loPI   PO4 7876   3.297   9.643  10.407 -0.0605 -0.0130  0.0605
  493loPI   GL1 7877   3.391   9.855  10.019 -0.1368 -0.1061  0.0791
  493loPI   GL2 7878   3.773   9.906   9.970  0.2758 -0.3323 -0.2542
  493loPI   C1A 7879   3.410   9.640   9.567  0.0936  0.0729 -0.1585
  493loPI   C2A 7880   3.403   9.681   9.154  0.1286 -0.2860 -0.0983
  493loPI   C3A 7881   3.534   9.625   8.848 -0.1596  0.0253 -0.3275
  493loPI   C4A 7882   3.344   9.597   8.491  0.2023 -0.0960 -0.2660
  493loPI   C5A 7883   3.393   9.577   8.062  0.1753 -0.4273  0.1768
  493loPI   C6A 7884   3.488   9.342   7.589 -0.0661  0.0402 -0.1179
  493loPI   C1B 7885   3.766  10.021   9.603  0.1871 -0.2346 -0.0590
  493loPI   C2B 7886   3.702  10.080   9.109  0.1780  0.2711 -0.0095
  493loPI   C3B 7887   3.881  10.037   8.762  0.0741 -0.0386  0.1466
  493loPI   C4B 7888   4.217   9.992   8.408 -0.3169  0.0180 -0.1608
  494loPI    C1 7889  18.303  17.677   9.720 -0.1597  0.0160 -0.0811
  494loPI    C2 7890  18.394  17.921  10.023 -0.1353  0.3049 -0.3171
  494loPI    C3 7891  18.685  17.741   9.817 -0.1565 -0.0307 -0.0623
  494loPI   PO4 7892  18.347  17.716   9.408  0.0201  0.1053 -0.0028
  494loPI   GL1 7893  18.405  17.631   9.022 -0.0506  0.2613 -0.0108
  494loPI   GL2 7894  18.533  17.367   8.911  0.1406  0.1644  0.0756
  494loPI   C1A 7895  18.637  17.765   8.632  0.1911 -0.0924 -0.1774
  494loPI   C2A 7896  18.674  17.708   8.192 -0.2807 -0.0537 -0.1207
  494loPI   C3A 7897  18.589  17.661   7.690  0.1669  0.3052 -0.5631
  494loPI   C4A 7898  18.659  17.233   7.562 -0.0925  0.0589  0.1923
  494loPI   C5A 7899  18.763  16.878   7.290  0.2103 -0.1082 -0.0705
  494loPI   C6A 7900  19.110  16.578   7.347  0.0344 -0.1276  0.1267
  494loPI   C1B 7901  18.528  17.069   8.654 -0.1361  0.2533  0.1198
  494loPI   C2B 7902  18.678  17.031   8.277  0.0159  0.5056 -0.1641
  494loPI   C3B 7903  18.756  16.526   8.252  0.1513  0.0394  0.3139
  494loPI   C4B 7904  18.934  16.363   7.875  0.0199  0.3953 -0.1757
  495loPI    C1 7905  14.526  15.713   9.753  0.0503  0.0823  0.1297
  495loPI    C2 7906  14.819  15.841   9.513 -0.0725  0.0325 -0.0489
  495loPI    C3 7907  14.815  15.461   9.637 -0.0480  0.0398 -0.0257
  495loPI   PO4 7908  14.290  15.888   9.684  0.0173  0.1469 -0.1064
  495loPI   GL1 7909  14.282  15.801   9.239 -0.1945 -0.3237 -0.1782
  495loPI   GL2 7910  14.036  15.552   8.988 -0.0487 -0.2961  0.1712
  495loPI   C1A 7911  14.358  15.879   8.794  0.1059 -0.2762  0.0709
  495loPI   C2A 7912  14.434  16.183   8.557 -0.3140 -0.2877 -0.0941
  495loPI   C3A 7913  14.286  16.202   8.135 -0.0980  0.1050 -0.4710
  495loPI   C4A 7914  14.061  16.067   7.801 -0.0265 -0.0896 -0.0246
  495loPI   C5A 7915  13.863  16.293   7.573  0.0176 -0.0214  0.1451
  495loPI   C6A 7916  13.724  16.285   7.199 -0.2210  0.2531  0.3905
  495loPI   C1B 7917  14.203  15.451   8.493  0.1358  0.1602 -0.2034
  495loPI   C2B 7918  14.100  15.484   8.027  0.0210  0.0182  0.0722
  495loPI   C3B 7919  13.903  15.556   7.670  0.0993  0.2945  0.0112
  495loPI   C4B 7920  13.891  15.827   7.326  0.1116  0.2797 -0.3052
  496loPI    C1 7921  16.000  13.001   9.492  0.0252 -0.1141  0.1664
  496loPI    C2 7922  16.178  12.643   9.512 -0.2867 -0.2919 -0.1392
  496loPI    C3 7923  15.831  12.706   9.702 -0.2104 -0.1359 -0.0491
  496loPI   PO4 7924  15.988  13.060   9.253  0.2105  0.0221 -0.0954
  496loPI   GL1 7925  15.957  12.940   8.786  0.1045 -0.1250 -0.1929
  496loPI   GL2 7926  15.952  12.615   8.789 -0.1051 -0.0809  0.1220
  496loPI   C1A 7927  16.279  12.960   8.550 -0.4156  0.4010  0.1220
  496loPI   C2A 7928  16.455  13.063   8.213 -0.0398  0.1014 -0.2539
  496loPI   C3A 7929  16.578  13.092   7.728 -0.1065  0.0689 -0.0935
  496loPI   C4A 7930  16.684  13.171   7.256 -0.1366 -0.0873  0.0275
  496loPI   C5A 7931  16.764  13.361   6.929  0.2467  0.2875  0.1504
  496loPI   C6A 7932  17.099  13.284   6.548  0.1461 -0.0104 -0.0869
  496loPI   C1B 7933  16.150  12.429   8.317 -0.1538 -0.2372 -0.1705
  496loPI   C2B 7934  16.184  12.689   7.908  0.0431  0.4027  0.2505
  496loPI   C3B 7935  16.213  12.672   7.470 -0.0817 -0.2548  0.0124
  496loPI   C4B 7936  16.053  12.746   7.104  0.1893  0.0533  0.1882
  497loPI    C1 7937   3.147   6.075  10.963 -0.3111 -0.1085 -0.1179
  497loPI    C2 7938   2.876   6.275  11.179  0.0068  0.2264 -0.0186
  497loPI    C3 7939   3.118   6.010  11.357 -0.1056  0.0895 -0.0678
  497loPI   PO4 7940   3.094   5.958  10.722 -0.3643 -0.0540  0.1257
  497loPI   GL1 7941   2.854   6.003  10.274  0.2190 -0.0589 -0.1111
  497loPI   GL2 7942   3.064   5.656  10.216  0.0474 -0.0025  0.4868
  497loPI   C1A 7943   2.802   6.276   9.858  0.1403  0.5231 -0.2441
  497loPI   C2A 7944   3.169   6.205   9.525  0.1704  0.0005  0.0061
  497loPI   C3A 7945   3.496   6.178   9.142  0.0465 -0.0746 -0.0199
  497loPI   C4A 7946   3.519   6.222   8.789  0.1398  0.0829  0.1942
  497loPI   C5A 7947   3.439   6.294   8.359 -0.1156 -0.1560  0.0157
  497loPI   C6A 7948   3.721   6.334   8.065  0.0717  0.1673  0.2386
  497loPI   C1B 7949   2.988   5.738   9.791 -0.0796  0.2952 -0.1843
  497loPI   C2B 7950   2.935   5.553   9.378 -0.2561 -0.0050 -0.0826
  497loPI   C3B 7951   2.862   5.407   9.084 -0.0572 -0.2244  0.2734
  497loPI   C4B 7952   2.723   5.555   8.642 -0.0303  0.2795 -0.0169
  498loPI    C1 7953   3.064   4.026  10.378 -0.2264  0.1609  0.2036
  498loPI    C2 7954   3.223   3.954  10.738 -0.0291  0.0485  0.0956
  498loPI    C3 7955   2.870   3.793  10.639 -0.0640  0.0458  0.2232
  498loPI   PO4 7956   3.096   4.237  10.331 -0.0205  0.2362  0.0478
  498loPI   GL1 7957   3.089   4.458   9.982  0.0479 -0.0602  0.0847
  498loPI   GL2 7958   2.778   4.244   9.957 -0.0678 -0.0023  0.0468
  498loPI   C1A 7959   3.182   4.484   9.546  0.1870  0.1464 -0.3305
  498loPI   C2A 7960   3.008   4.365   9.210 -0.0151  0.1679 -0.4531
  498loPI   C3A 7961   2.773   4.474   8.881  0.0370 -0.0345  0.3513
  498loPI   C4A 7962   2.788   4.389   8.489  0.0014 -0.1350  0.1337
  498loPI   C5A 7963   2.460   4.296   8.117  0.1051 -0.1197 -0.0120
  498loPI   C6A 7964   2.225   4.308   7.861 -0.1108 -0.0683  0.0682
  498loPI   C1B 7965   2.593   4.033   9.615  0.0319  0.0882  0.1935
  498loPI   C2B 7966   2.602   4.070   9.131  0.2206 -0.4503 -0.0502
  498loPI   C3B 7967   2.426   4.128   8.724  0.0850 -0.1169  0.1084
  498loPI   C4B 7968   2.148   3.938   8.519  0.0896 -0.0769  0.1092
  499loPI    C1 7969   1.334  16.926   9.873 -0.4970  0.0161 -0.0494
  499loPI    C2 7970   1.543  17.205  10.070  0.0346 -0.2097 -0.2725
  499loPI    C3 7971   1.347  16.921  10.272  0.0037 -0.0384 -0.0591
  499loPI   PO4 7972   1.350  17.004   9.597  0.1224  0.0384  0.1042
  499loPI   GL1 7973   1.295  17.252   9.181  0.3717  0.2168 -0.2151
  499loPI   GL2 7974   0.954  17.061   9.126 -0.1541 -0.3949  0.1015
  499loPI   C1A 7975   1.639  17.305   8.847  0.1875 -0.2614  0.0097
  499loPI   C2A 7976   1.652  17.527   8.512  0.1049  0.1347  0.2254
  499loPI   C3A 7977   1.359  17.507   8.128  0.2070 -0.0101 -0.1122
  499loPI   C4A 7978   1.398  17.292   7.804 -0.0972  0.1903  0.1114
  499loPI   C5A 7979   1.496  16.873   7.562  0.5100 -0.3133  0.1476
  499loPI   C6A 7980   1.337  16.697   7.294  0.2385 -0.0152 -0.2335
  499loPI   C1B 7981   1.110  17.235   8.652  0.0043 -0.1304  0.1666
  499loPI   C2B 7982   1.500  17.073   8.397 -0.1460  0.1938  0.1661
  499loPI   C3B 7983   1.633  16.813   8.114  0.3078 -0.1706 -0.0652
  499loPI   C4B 7984   1.904  16.566   7.865 -0.1117  0.1589  0.3495
  500loPI    C1 7985   8.932   9.912  10.263 -0.1367  0.1790  0.0060
  500loPI    C2 7986   8.668   9.681  10.455 -0.1308 -0.0045 -0.2030
  500loPI    C3 7987   8.675  10.075  10.523 -0.0096 -0.0872  0.3053
  500loPI   PO4 7988   8.908   9.892   9.889 -0.1996 -0.0753  0.1538
  500loPI   GL1 7989   8.685   9.896   9.506  0.1555 -0.2361  0.1905
  500loPI   GL2 7990   8.356   9.842   9.493 -0.1036 -0.1024  0.1944
  500loPI   C1A 7991   8.635   9.705   9.104 -0.2212 -0.2616  0.0193
  500loPI   C2A 7992   8.765   9.674   8.642  0.2980  0.0361  0.0503
  500loPI   C3A 7993   8.620   9.799   8.236 -0.4426 -0.1060 -0.0594
  500loPI   C4A 7994   8.125   9.824   8.106 -0.0523 -0.1190  0.2599
  500loPI   C5A 7995   7.754   9.777   8.340  0.1107 -0.1852  0.2715
  500loPI   C6A 7996   7.448   9.482   8.486  0.0688 -0.3673 -0.3754
  500loPI   C1B 7997   8.109   9.820   9.156 -0.1804  0.0629  0.0492
  500loPI   C2B 7998   8.040   9.859   8.740 -0.5276  0.2913  0.0347
  500loPI   C3B 7999   8.257   9.572   8.516 -0.1041  0.3099 -0.0263
  500loPI   C4B 8000   7.923   9.381   8.544 -0.3726  0.3596  0.1585
  501loPI    C1 8001   9.915   8.139   9.833  0.1035 -0.0890 -0.2324
  501loPI    C2 8002   9.671   8.373  10.046  0.1576  0.0371 -0.3074
  501loPI    C3 8003   9.583   7.986   9.995  0.3477 -0.0938  0.2833
  501loPI   PO4 8004   9.930   8.281   9.596  0.3256 -0.1461 -0.5027
  501loPI   GL1 8005   9.937   8.255   9.199 -0.2234  0.0854  0.2224
  501loPI   GL2 8006  10.126   7.973   9.143  0.0872 -0.0873 -0.3725
  501loPI   C1A 8007   9.795   8.176   8.782 -0.0558 -0.0431 -0.0670
  501loPI   C2A 8008   9.697   8.441   8.447 -0.0218 -0.0954 -0.3334
  501loPI   C3A 8009   9.687   8.835   8.219 -0.1215 -0.1668 -0.3809
  501loPI   C4A 8010   9.456   8.840   7.929 -0.2185 -0.2447 -0.0029
  501loPI   C5A 8011   9.466   8.838   7.532  0.0873  0.0035  0.1585
  501loPI   C6A 8012   9.447   8.979   7.034  0.2006  0.1886 -0.1891
  501loPI   C1B 8013   9.901   7.662   8.879  0.1093  0.1754  0.1403
  501loPI   C2B 8014   9.661   7.630   8.437  0.2578  0.0109  0.0203
  501loPI   C3B 8015   9.251   7.392   8.322  0.3102  0.1202 -0.0256
  501loPI   C4B 8016   8.983   7.356   7.863 -0.1333  0.3812  0.1472
  502loPI    C1 8017  15.416  13.093   9.509 -0.1416 -0.0539  0.0451
  502loPI    C2 8018  15.676  13.313   9.719 -0.2744 -0.1190  0.2814
  502loPI    C3 8019  15.290  13.309   9.821 -0.3687 -0.0332 -0.0594
  502loPI   PO4 8020  15.522  13.122   9.227  0.0779  0.0188  0.0308
  502loPI   GL1 8021  15.413  13.059   8.795 -0.2384  0.0898 -0.0818
  502loPI   GL2 8022  15.296  13.262   8.625  0.4493  0.3862 -0.1003
  502loPI   C1A 8023  15.724  13.127   8.421  0.1091 -0.1460  0.0043
  502loPI   C2A 8024  15.754  13.134   7.955 -0.1813  0.0172 -0.0689
  502loPI   C3A 8025  16.070  13.109   7.680  0.0395 -0.5352 -0.0178
  502loPI   C4A 8026  16.099  13.228   7.305  0.1304 -0.1061 -0.0140
  502loPI   C5A 8027  16.337  13.151   6.898 -0.1449 -0.0330 -0.0204
  502loPI   C6A 8028  16.526  13.136   6.586 -0.0643  0.0238  0.0516
  502loPI   C1B 8029  15.112  13.500   8.304 -0.0902  0.2016 -0.0193
  502loPI   C2B 8030  15.119  13.253   8.027 -0.2309 -0.0187  0.0926
  502loPI   C3B 8031  15.244  13.225   7.585  0.1815 -0.2874 -0.2348
  502loPI   C4B 8032  15.255  13.592   7.150 -0.1333  0.0942 -0.2444
  503loPI    C1 8033   8.363   0.255   9.592  0.1810 -0.2523 -0.1344
  503loPI    C2 8034   8.610   0.466   9.825  0.1644 -0.1329 -0.2243
  503loPI    C3 8035   8.406   0.158   9.978  0.0575  0.0223 -0.0495
  503loPI   PO4 8036   8.437   0.152   9.425 -0.0386 -0.2176 -0.5627
  503loPI   GL1 8037   8.396   0.136   9.044  0.1194  0.1646  0.1970
  503loPI   GL2 8038   8.709   0.091   8.939  0.4402 -0.3024  0.0160
  503loPI   C1A 8039   8.399   0.159   8.509  0.0691 -0.0887 -0.2900
  503loPI   C2A 8040   8.384   0.269   8.122 -0.2825 -0.2262  0.3370
  503loPI   C3A 8041   8.157   0.134   7.674 -0.2999  0.2178  0.1753
  503loPI   C4A 8042   7.994   0.346   7.368 -0.0463 -0.0304  0.1090
  503loPI   C5A 8043   8.148   0.611   7.040  0.0914 -0.2050  0.0244
  503loPI   C6A 8044   8.596   0.839   7.172 -0.1485  0.4331  0.1606
  503loPI   C1B 8045   8.913   0.138   8.635  0.0765 -0.0583 -0.1055
  503loPI   C2B 8046   8.867   0.157   8.127 -0.1380  0.1974  0.0722
  503loPI   C3B 8047   8.697  -0.155   7.842  0.1689  0.1361 -0.0790
  503loPI   C4B 8048   8.526  -0.299   7.392  0.0627  0.0998 -0.0780
  504loPI    C1 8049  15.942  13.947   9.567  0.0988 -0.2310  0.1387
  504loPI    C2 8050  15.681  13.857   9.857 -0.0242  0.1470  0.1523
  504loPI    C3 8051  15.961  14.135   9.920  0.0809  0.0827 -0.0237
  504loPI   PO4 8052  15.805  13.996   9.328 -0.2474  0.3588 -0.1770
  504loPI   GL1 8053  15.654  14.005   8.990  0.3095 -0.2720 -0.0196
  504loPI   GL2 8054  15.437  13.941   8.987  0.0499  0.0603 -0.1119
  504loPI   C1A 8055  15.786  13.782   8.595  0.1617  0.2476  0.2940
  504loPI   C2A 8056  15.592  13.566   8.132  0.2024 -0.0425  0.0884
  504loPI   C3A 8057  15.304  13.694   7.748  0.3057 -0.1815  0.0818
  504loPI   C4A 8058  15.011  13.855   7.479  0.5511 -0.0201 -0.1442
  504loPI   C5A 8059  14.967  14.081   7.236 -0.0582 -0.0319 -0.2620
  504loPI   C6A 8060  14.867  14.300   6.866 -0.0089  0.1394  0.4257
  504loPI   C1B 8061  15.295  13.788   8.633 -0.1123  0.0617 -0.2943
  504loPI   C2B 8062  15.394  13.987   8.214 -0.0567  0.1212 -0.0846
  504loPI   C3B 8063  15.579  14.335   8.009 -0.0605  0.5781  0.0338
  504loPI   C4B 8064  15.729  14.314   7.692 -0.1201  0.1821 -0.0065
  505loPI    C1 8065  17.782   1.038   9.375  0.3085 -0.1936 -0.0780
  505loPI    C2 8066  18.120   1.250   9.350  0.0496  0.2437  0.0067
  505loPI    C3 8067  17.892   1.276   9.677 -0.0037 -0.1512  0.0060
  505loPI   PO4 8068  17.649   1.122   9.196 -0.1755  0.0778  0.1158
  505loPI   GL1 8069  17.765   1.388   8.820 -0.2213 -0.0569  0.2251
  505loPI   GL2 8070  17.558   1.144   8.620 -0.0994 -0.0732 -0.0146
  505loPI   C1A 8071  17.931   1.265   8.344 -0.1764 -0.0508 -0.1309
  505loPI   C2A 8072  18.257   1.442   8.078 -0.2610  0.1846 -0.1436
  505loPI   C3A 8073  18.507   1.441   7.700  0.1823 -0.1106 -0.0160
  505loPI   C4A 8074  18.885   1.189   7.672 -0.1357 -0.0789 -0.2665
  505loPI   C5A 8075  19.311   1.300   7.666 -0.4264 -0.1737  0.2288
  505loPI   C6A 8076  19.690   1.594   7.763  0.0975  0.0370 -0.1840
  505loPI   C1B 8077  17.532   0.864   8.271 -0.0879 -0.1719  0.0139
  505loPI   C2B 8078  17.748   0.684   7.970 -0.1454  0.0632 -0.0953
  505loPI   C3B 8079  17.777   0.358   7.817  0.1171 -0.2081 -0.1445
  505loPI   C4B 8080  17.814   0.251   7.401 -0.0648  0.0652 -0.1079
  506loPI    C1 8081  17.074  10.944  10.086  0.1427  0.0558  0.2088
  506loPI    C2 8082  17.424  11.095  10.207  0.1361  0.2551 -0.0137
  506loPI    C3 8083  17.096  11.324  10.209  0.0164  0.0852  0.1424
  506loPI   PO4 8084  17.112  10.907   9.867 -0.0087 -0.0155 -0.0930
  506loPI   GL1 8085  17.049  10.647   9.507  0.2236  0.0634 -0.2159
  506loPI   GL2 8086  17.202  10.916   9.362  0.0584 -0.3080  0.1280
  506loPI   C1A 8087  17.476  10.574   9.271  0.0185 -0.1027 -0.1138
  506loPI   C2A 8088  17.687  10.486   8.934 -0.2609  0.0312 -0.1201
  506loPI   C3A 8089  17.973  10.534   8.632 -0.0680 -0.3035  0.0674
  506loPI   C4A 8090  18.180  10.644   8.194  0.0680  0.0979  0.4638
  506loPI   C5A 8091  18.448  10.797   7.862  0.1734  0.4699  0.1143
  506loPI   C6A 8092  18.358  11.068   7.545 -0.0931  0.2599 -0.1367
  506loPI   C1B 8093  17.121  10.827   8.939 -0.4514 -0.1389  0.0725
  506loPI   C2B 8094  17.193  10.912   8.540  0.0383  0.1184  0.2871
  506loPI   C3B 8095  17.421  10.960   8.055  0.0357 -0.1612 -0.0673
  506loPI   C4B 8096  17.385  10.882   7.619 -0.1258  0.3547 -0.3942
  507loPI    C1 8097   9.172  18.911   9.693 -0.0705 -0.0309  0.1228
  507loPI    C2 8098   9.140  18.514   9.661 -0.0883 -0.0284  0.1112
  507loPI    C3 8099   9.250  18.678  10.009  0.4313 -0.0735 -0.0245
  507loPI   PO4 8100   9.288  18.993   9.437  0.0514 -0.1864  0.0600
  507loPI   GL1 8101   9.173  18.894   9.077  0.2571 -0.1251  0.1632
  507loPI   GL2 8102   9.119  19.168   8.900  0.3061  0.1036 -0.1390
  507loPI   C1A 8103   8.989  18.673   8.643  0.4354  0.2251 -0.2431
  507loPI   C2A 8104   8.990  18.446   8.311  0.2088 -0.0717 -0.3451
  507loPI   C3A 8105   9.197  18.145   8.035 -0.1442 -0.3936  0.0916
  507loPI   C4A 8106   9.339  17.764   7.868  0.3473 -0.0978 -0.1774
  507loPI   C5A 8107   9.336  17.632   7.464 -0.1611 -0.0199  0.1316
  507loPI   C6A 8108   9.017  17.426   7.187  0.0874 -0.0735  0.4377
  507loPI   C1B 8109   9.427  19.293   8.634 -0.3249 -0.2111  0.2854
  507loPI   C2B 8110   9.688  19.413   8.254 -0.0527  0.0626 -0.0574
  507loPI   C3B 8111   9.995  19.456   8.012  0.0640 -0.2538  0.1163
  507loPI   C4B 8112  10.311  19.301   7.836 -0.0297  0.2124 -0.4580
  508loPI    C1 8113   2.742  14.800  10.053 -0.0450  0.1496 -0.3489
  508loPI    C2 8114   3.057  14.979  10.223  0.0042  0.0520 -0.3367
  508loPI    C3 8115   2.701  14.982  10.407  0.0340  0.0312 -0.2784
  508loPI   PO4 8116   2.619  14.947   9.800 -0.1919  0.0965  0.0976
  508loPI   GL1 8117   2.756  15.179   9.403 -0.1026  0.0521 -0.2329
  508loPI   GL2 8118   3.067  15.380   9.360  0.0026  0.3891 -0.0810
  508loPI   C1A 8119   2.650  14.980   9.062 -0.0833  0.1344  0.0793
  508loPI   C2A 8120   2.524  14.798   8.631  0.1489 -0.3528  0.0164
  508loPI   C3A 8121   2.771  14.960   8.220 -0.4355  0.2998  0.2159
  508loPI   C4A 8122   2.917  14.825   7.772 -0.1892 -0.2298 -0.4042
  508loPI   C5A 8123   2.915  15.035   7.358 -0.1158 -0.3419  0.1195
  508loPI   C6A 8124   2.820  15.259   6.933  0.3244 -0.0060  0.0316
  508loPI   C1B 8125   2.938  15.620   9.033  0.0813 -0.0513 -0.0813
  508loPI   C2B 8126   2.982  15.893   8.745  0.1079  0.1600 -0.0552
  508loPI   C3B 8127   3.126  16.009   8.310  0.5025 -0.0950  0.1424
  508loPI   C4B 8128   3.032  16.298   7.882  0.0318  0.2450 -0.2947
  509loPI    C1 8129   9.488  14.927   9.375  0.0153  0.2038  0.0188
  509loPI    C2 8130   9.090  14.957   9.353  0.0186  0.1831 -0.0739
  509loPI    C3 8131   9.321  15.250   9.208  0.0381  0.1500 -0.1099
  509loPI   PO4 8132   9.538  14.631   9.409  0.0188  0.0557  0.0126
  509loPI   GL1 8133   9.757  14.477   9.119 -0.0093  0.0082  0.2230
  509loPI   GL2 8134  10.021  14.581   8.891 -0.1784 -0.1126 -0.1516
  509loPI   C1A 8135   9.649  14.161   8.810 -0.0813  0.3053 -0.0831
  509loPI   C2A 8136   9.796  14.194   8.332 -0.0297 -0.1559  0.0818
  509loPI   C3A 8137   9.803  14.335   8.042 -0.0177  0.0160  0.0727
  509loPI   C4A 8138   9.657  14.486   7.621 -0.0394 -0.0137 -0.0645
  509loPI   C5A 8139   9.369  14.220   7.539  0.0388 -0.0421  0.1719
  509loPI   C6A 8140   9.362  13.793   7.663 -0.1342 -0.0174  0.2213
  509loPI   C1B 8141  10.252  14.506   8.534  0.2772  0.3024 -0.0485
  509loPI   C2B 8142  10.300  14.627   8.136 -0.1772 -0.3061 -0.2182
  509loPI   C3B 8143  10.444  14.690   7.702  0.0579 -0.1315 -0.2015
  509loPI   C4B 8144  10.474  14.942   7.316 -0.1500  0.2187  0.2849
  510loPI    C1 8145  18.937   0.713   9.636 -0.0581  0.2417 -0.1381
  510loPI    C2 8146  18.569   0.707   9.793  0.0504 -0.0685  0.1139
  510loPI    C3 8147  18.889   0.701  10.033  0.2214  0.0801 -0.1071
  510loPI   PO4 8148  18.847   0.593   9.395 -0.4070 -0.0557  0.2314
  510loPI   GL1 8149  19.146   0.400   9.018 -0.3943  0.1613  0.0821
  510loPI   GL2 8150  19.348   0.609   9.045 -0.0828  0.0578  0.1461
  510loPI   C1A 8151  19.319  -0.014   8.684  0.5185 -0.2738 -0.1558
  510loPI   C2A 8152  19.318   0.025   8.250  0.0613 -0.2047 -0.2671
  510loPI   C3A 8153  19.543   0.282   7.964  0.1648  0.2386  0.0309
  510loPI   C4A 8154  19.879   0.536   7.747 -0.2776  0.2063 -0.0113
  510loPI   C5A 8155  19.951   0.889   7.554 -0.2018  0.2072  0.0028
  510loPI   C6A 8156  20.117   1.302   7.454 -0.3450 -0.3035 -0.1702
  510loPI   C1B 8157  19.448   0.558   8.617  0.0567 -0.3858  0.2175
  510loPI   C2B 8158  19.605   0.708   8.173 -0.0012 -0.1187  0.2465
  510loPI   C3B 8159  19.446   0.765   7.728  0.0077  0.0799  0.3900
  510loPI   C4B 8160  19.517   0.610   7.339  0.1074  0.0255  0.1985
  511loPI    C1 8161  14.503  19.102   9.906 -0.3814  0.1205 -0.1099
  511loPI    C2 8162  14.438  19.375  10.191 -0.1697  0.1700 -0.1077
  511loPI    C3 8163  14.349  18.991  10.258 -0.0223  0.1647  0.0653
  511loPI   PO4 8164  14.438  19.225   9.711 -0.3029 -0.1789  0.2160
  511loPI   GL1 8165  14.379  19.224   9.182 -0.1094 -0.1091 -0.2145
  511loPI   GL2 8166  14.648  19.131   8.919  0.3344  0.1421 -0.0967
  511loPI   C1A 8167  13.990  19.264   8.931 -0.0416 -0.3306 -0.1824
  511loPI   C2A 8168  13.871  19.504   8.612 -0.2208 -0.1356 -0.1731
  511loPI   C3A 8169  13.917  19.438   8.219 -0.0326 -0.4293  0.2131
  511loPI   C4A 8170  14.000  19.574   7.809 -0.2635  0.0381 -0.1894
  511loPI   C5A 8171  14.013  19.756   7.431 -0.3161  0.5423 -0.2030
  511loPI   C6A 8172  14.324  20.005   7.216  0.2239  0.3315 -0.1461
  511loPI   C1B 8173  14.799  18.992   8.446  0.0438  0.1064 -0.1059
  511loPI   C2B 8174  14.843  19.020   7.968  0.4338 -0.4143 -0.0522
  511loPI   C3B 8175  14.815  19.200   7.604  0.1429  0.0493 -0.1182
  511loPI   C4B 8176  14.967  18.933   7.283  0.1086 -0.3827  0.1470
  512loPI    C1 8177  18.000   5.339   9.852  0.0168  0.0178  0.1119
  512loPI    C2 8178  18.026   5.206  10.228 -0.0429  0.0753  0.1368
  512loPI    C3 8179  18.308   5.109   9.961  0.0354  0.0900  0.2135
  512loPI   PO4 8180  17.762   5.281   9.770  0.1231  0.0941  0.1823
  512loPI   GL1 8181  17.732   5.296   9.334  0.0057 -0.3875 -0.4219
  512loPI   GL2 8182  17.964   5.540   9.433 -0.1817 -0.5189 -0.0329
  512loPI   C1A 8183  17.827   5.612   8.951 -0.1332 -0.1874 -0.3370
  512loPI   C2A 8184  18.018   5.557   8.458  0.2390 -0.0002  0.1810
  512loPI   C3A 8185  17.971   5.670   8.095  0.1875 -0.1781 -0.1956
  512loPI   C4A 8186  17.728   5.715   7.685 -0.1459 -0.2122  0.5359
  512loPI   C5A 8187  17.512   6.108   7.502 -0.1799  0.0298  0.2720
  512loPI   C6A 8188  17.335   6.192   7.072 -0.1128  0.4233  0.3271
  512loPI   C1B 8189  18.201   5.857   9.227 -0.0464 -0.0752 -0.0062
  512loPI   C2B 8190  18.347   5.842   8.846 -0.4865  0.2714  0.2689
  512loPI   C3B 8191  18.445   5.727   8.341  0.0182  0.4317  0.2116
  512loPI   C4B 8192  18.432   5.822   7.891 -0.0945 -0.0811  0.3928
  513loPI    C1 8193  17.038  16.680   9.549 -0.0746  0.1526 -0.0708
  513loPI    C2 8194  17.334  16.701   9.818 -0.2187 -0.3190  0.1350
  513loPI    C3 8195  17.013  16.937   9.855 -0.0089 -0.0186  0.0802
  513loPI   PO4 8196  17.190  16.519   9.356 -0.1151 -0.1699  0.0859
  513loPI   GL1 8197  17.028  16.470   8.909 -0.1573 -0.1535  0.3881
  513loPI   GL2 8198  16.726  16.468   8.694  0.0371  0.1690 -0.1702
  513loPI   C1A 8199  17.246  16.835   8.548 -0.0847  0.0530 -0.2275
  513loPI   C2A 8200  17.417  16.798   8.123 -0.1455 -0.0669  0.3863
  513loPI   C3A 8201  17.403  16.974   7.673  0.3905  0.0438 -0.1992
  513loPI   C4A 8202  17.495  16.881   7.297 -0.0975  0.2576  0.1546
  513loPI   C5A 8203  17.730  16.729   7.068  0.1637  0.2150 -0.1308
  513loPI   C6A 8204  18.066  16.495   7.009  0.2339 -0.0014 -0.0969
  513loPI   C1B 8205  16.999  16.495   8.274 -0.2216 -0.0699 -0.2102
  513loPI   C2B 8206  16.930  16.515   7.829  0.0348  0.1828 -0.0373
  513loPI   C3B 8207  17.005  16.444   7.451 -0.0676 -0.2513 -0.1947
  513loPI   C4B 8208  17.123  16.469   7.011 -0.1481 -0.2179  0.2310
  514loPI    C1 8209  19.017  17.022   9.458 -0.3175 -0.0147 -0.2274
  514loPI    C2 8210  18.774  17.336   9.410 -0.2546  0.0815  0.0638
  514loPI    C3 8211  18.917  17.248   9.772  0.0388 -0.0543 -0.0819
  514loPI   PO4 8212  19.078  16.999   9.278  0.2344 -0.3875  0.0150
  514loPI   GL1 8213  19.101  17.016   8.849 -0.0819  0.0144 -0.0701
  514loPI   GL2 8214  19.000  17.384   9.007  0.1116  0.2179 -0.0681
  514loPI   C1A 8215  19.135  16.845   8.424  0.0893 -0.3632 -0.1694
  514loPI   C2A 8216  19.188  16.881   8.116 -0.3093 -0.0732  0.3770
  514loPI   C3A 8217  19.230  16.976   7.664 -0.0402  0.1825  0.1195
  514loPI   C4A 8218  19.287  17.080   7.275 -0.2739 -0.1078  0.2836
  514loPI   C5A 8219  19.742  17.039   7.231 -0.1367 -0.0719 -0.1792
  514loPI   C6A 8220  20.025  17.083   6.930 -0.0520  0.0326 -0.3361
  514loPI   C1B 8221  18.970  17.381   8.510  0.0575  0.0610 -0.3768
  514loPI   C2B 8222  18.945  17.397   7.987 -0.1658  0.0390 -0.3207
  514loPI   C3B 8223  19.056  17.514   7.600  0.1331  0.2994  0.0770
  514loPI   C4B 8224  18.971  17.419   7.159 -0.0419  0.1002 -0.1225
  515loPI    C1 8225  19.162  16.304   9.702 -0.0393 -0.2106  0.0473
  515loPI    C2 8226  19.065  16.058  10.001  0.0665 -0.1659  0.1189
  515loPI    C3 8227  19.352  16.332  10.053  0.0945 -0.1670 -0.0279
  515loPI   PO4 8228  19.210  16.116   9.453  0.1123 -0.1643 -0.0372
  515loPI   GL1 8229  19.094  15.858   9.177  0.1896 -0.0232 -0.3109
  515loPI   GL2 8230  19.256  15.943   8.973 -0.2431 -0.2091  0.3131
  515loPI   C1A 8231  18.823  16.027   8.818 -0.0936 -0.0075 -0.0230
  515loPI   C2A 8232  18.870  15.843   8.400 -0.2765  0.0363 -0.1381
  515loPI   C3A 8233  18.663  16.031   8.096  0.0634 -0.4882  0.2211
  515loPI   C4A 8234  18.500  15.961   7.670 -0.0072 -0.2047  0.0382
  515loPI   C5A 8235  18.381  15.948   7.320 -0.0046 -0.1346  0.3155
  515loPI   C6A 8236  18.074  15.797   7.033  0.2445 -0.0679  0.3273
  515loPI   C1B 8237  19.381  15.927   8.506 -0.0570 -0.0121 -0.3289
  515loPI   C2B 8238  19.398  15.806   8.159  0.0147 -0.3261 -0.1994
  515loPI   C3B 8239  19.117  15.912   7.805 -0.0189 -0.3679 -0.1149
  515loPI   C4B 8240  18.900  16.076   7.388  0.0488  0.1711 -0.1845
  516loPI    C1 8241   1.824  10.637  10.733 -0.0018  0.1151 -0.1233
  516loPI    C2 8242   1.549  10.484  10.980  0.1174 -0.0076 -0.0656
  516loPI    C3 8243   1.854  10.696  11.128  0.3040 -0.2577 -0.0852
  516loPI   PO4 8244   1.741  10.726  10.531 -0.2452 -0.0890 -0.0119
  516loPI   GL1 8245   1.735  10.556  10.025 -0.0722 -0.0676  0.1318
  516loPI   GL2 8246   2.044  10.698  10.080  0.1568 -0.3204  0.1629
  516loPI   C1A 8247   1.551  10.330   9.635  0.1981 -0.4924  0.1756
  516loPI   C2A 8248   1.664  10.160   9.310  0.0079  0.1148 -0.1928
  516loPI   C3A 8249   1.885  10.069   8.924 -0.1416 -0.2025  0.2658
  516loPI   C4A 8250   2.113   9.946   8.579  0.1465 -0.0747 -0.0075
  516loPI   C5A 8251   2.400   9.901   8.200  0.0503 -0.0573  0.0800
  516loPI   C6A 8252   2.385   9.459   7.871  0.0482 -0.1976 -0.1457
  516loPI   C1B 8253   2.111  10.867   9.696  0.2102  0.1174 -0.0706
  516loPI   C2B 8254   2.153  10.990   9.279 -0.1825 -0.0476 -0.0464
  516loPI   C3B 8255   2.181  10.949   8.838  0.1853  0.3361  0.2116
  516loPI   C4B 8256   2.311  11.145   8.629 -0.0619 -0.0043  0.3855
  517loPI    C1 8257  16.770  19.075   9.123 -0.0004  0.0818  0.0496
  517loPI    C2 8258  16.926  19.316   9.402 -0.0034 -0.1896  0.2901
  517loPI    C3 8259  17.156  19.178   9.105  0.0436 -0.0421  0.2572
  517loPI   PO4 8260  16.445  18.960   9.171  0.2716  0.0770 -0.1100
  517loPI   GL1 8261  16.193  18.642   8.862 -0.4551 -0.0909  0.0204
  517loPI   GL2 8262  15.873  18.578   8.805 -0.1369 -0.1223 -0.0144
  517loPI   C1A 8263  16.198  18.614   8.328 -0.0058  0.0978  0.0135
  517loPI   C2A 8264  16.176  18.613   7.796 -0.1397 -0.0737 -0.4819
  517loPI   C3A 8265  16.540  18.797   7.488  0.1805  0.2029  0.0268
  517loPI   C4A 8266  16.542  19.189   7.182  0.0384  0.3355  0.2745
  517loPI   C5A 8267  16.513  19.529   7.121 -0.1860 -0.1118 -0.0333
  517loPI   C6A 8268  16.736  19.797   6.820 -0.0647 -0.0306  0.2354
  517loPI   C1B 8269  15.656  18.492   8.425  0.3129 -0.0119  0.1075
  517loPI   C2B 8270  15.676  18.500   7.972 -0.2157 -0.0829  0.0280
  517loPI   C3B 8271  15.682  18.504   7.551 -0.4054  0.0907 -0.2043
  517loPI   C4B 8272  15.981  18.597   7.230  0.2533 -0.0039 -0.0151
  518loPI    C1 8273   5.174   7.204  10.491 -0.2394  0.1800 -0.1600
  518loPI    C2 8274   4.906   7.300  10.772  0.0391  0.0209  0.1675
  518loPI    C3 8275   5.043   6.926  10.746  0.3973  0.1497  0.1513
  518loPI   PO4 8276   5.100   7.181  10.198  0.0416 -0.0137 -0.1294
  518loPI   GL1 8277   4.681   7.173   9.862 -0.1196  0.0133  0.0813
  518loPI   GL2 8278   4.836   7.076   9.547 -0.0535  0.1123  0.1285
  518loPI   C1A 8279   4.375   6.867   9.584 -0.0844  0.0546 -0.0989
  518loPI   C2A 8280   4.314   6.491   9.430  0.1657  0.0667 -0.0103
  518loPI   C3A 8281   4.389   6.059   9.106  0.2677 -0.1183  0.1893
  518loPI   C4A 8282   4.272   5.647   8.982 -0.0620  0.5718  0.1063
  518loPI   C5A 8283   4.326   5.139   8.931 -0.1357  0.0021 -0.1152
  518loPI   C6A 8284   4.473   4.874   9.258 -0.0048  0.1320  0.0207
  518loPI   C1B 8285   4.924   6.670   9.513  0.2845  0.1986 -0.0145
  518loPI   C2B 8286   4.695   6.652   9.154  0.1742 -0.0953  0.1581
  518loPI   C3B 8287   4.484   6.685   8.838 -0.1282 -0.1739 -0.1203
  518loPI   C4B 8288   4.473   6.657   8.427 -0.3622 -0.0673  0.0810
  519loPI    C1 8289   8.741  11.819   9.952 -0.1057  0.1267  0.1172
  519loPI    C2 8290   8.962  11.877  10.280 -0.0433  0.0467  0.0897
  519loPI    C3 8291   8.569  11.812  10.313 -0.0480  0.1025  0.1444
  519loPI   PO4 8292   8.733  11.929   9.770 -0.2062 -0.0856  0.0668
  519loPI   GL1 8293   8.713  12.018   9.416  0.0495 -0.2362 -0.2471
  519loPI   GL2 8294   8.669  11.772   9.274  0.2054  0.2137 -0.3797
  519loPI   C1A 8295   8.440  12.326   9.100 -0.1298 -0.2046  0.0906
  519loPI   C2A 8296   8.218  12.213   8.782  0.1139 -0.0672  0.4245
  519loPI   C3A 8297   8.183  11.949   8.452  0.0803  0.0544 -0.1406
  519loPI   C4A 8298   7.999  12.071   8.134 -0.0321  0.0212  0.1681
  519loPI   C5A 8299   7.588  12.047   7.972 -0.0224  0.2892 -0.0717
  519loPI   C6A 8300   7.222  12.086   7.999  0.2607 -0.2548  0.0445
  519loPI   C1B 8301   8.494  11.743   8.965 -0.3100 -0.0833  0.3417
  519loPI   C2B 8302   8.541  11.559   8.628 -0.3149  0.1893 -0.1877
  519loPI   C3B 8303   8.460  11.322   8.285 -0.0460  0.3326  0.1496
  519loPI   C4B 8304   8.332  11.368   7.927  0.0020  0.0923 -0.0167
  520loPI    C1 8305  16.831  15.533   9.215 -0.0491 -0.1826  0.1512
  520loPI    C2 8306  16.604  15.328   9.472 -0.0757  0.0231  0.2941
  520loPI    C3 8307  16.737  15.693   9.569 -0.0682  0.0940  0.0243
  520loPI   PO4 8308  16.958  15.292   9.096 -0.1921 -0.0194 -0.1373
  520loPI   GL1 8309  16.975  14.989   8.892  0.2355  0.3383  0.0789
  520loPI   GL2 8310  17.194  14.784   8.792  0.3866  0.0125 -0.1965
  520loPI   C1A 8311  16.905  14.882   8.389  0.2465 -0.2293  0.0234
  520loPI   C2A 8312  17.210  14.689   8.111  0.1636  0.2083 -0.0714
  520loPI   C3A 8313  17.239  14.356   7.824 -0.2490  0.0446 -0.2147
  520loPI   C4A 8314  17.240  13.906   7.633 -0.0362 -0.1056  0.2001
  520loPI   C5A 8315  17.369  13.442   7.513 -0.0416 -0.0306  0.1343
  520loPI   C6A 8316  17.258  13.157   7.136  0.1810 -0.0865 -0.2585
  520loPI   C1B 8317  17.095  14.409   8.490  0.1371  0.1025  0.1052
  520loPI   C2B 8318  17.475  14.007   8.516  0.1290  0.2138 -0.3680
  520loPI   C3B 8319  17.849  13.663   8.638  0.3192  0.3634  0.1752
  520loPI   C4B 8320  18.291  13.676   8.722 -0.0261 -0.2013  0.0775
  521loPI    C1 8321   2.483   9.244  10.364  0.0912  0.4035 -0.1679
  521loPI    C2 8322   2.803   9.439  10.503  0.1221  0.1363  0.1467
  521loPI    C3 8323   2.437   9.590  10.560  0.1610  0.2153  0.1894
  521loPI   PO4 8324   2.562   9.192  10.099  0.2248 -0.0064  0.5087
  521loPI   GL1 8325   2.707   9.446   9.781  0.3350 -0.0140  0.1143
  521loPI   GL2 8326   2.959   9.338   9.497  0.1730  0.1254 -0.1555
  521loPI   C1A 8327   2.467   9.504   9.368 -0.0539  0.0122  0.1781
  521loPI   C2A 8328   2.372   9.515   8.877 -0.0072  0.1868  0.1511
  521loPI   C3A 8329   2.320   9.541   8.484 -0.0962 -0.1042  0.0051
  521loPI   C4A 8330   1.984   9.450   8.233  0.0309  0.1782  0.0278
  521loPI   C5A 8331   1.769   9.304   7.877  0.2328  0.0223 -0.4683
  521loPI   C6A 8332   1.551   9.356   7.427  0.5084 -0.0064 -0.6264
  521loPI   C1B 8333   3.118   9.123   9.256 -0.1242  0.0039 -0.4069
  521loPI   C2B 8334   2.955   8.960   8.813  0.0891  0.3766  0.1208
  521loPI   C3B 8335   2.945   8.953   8.375  0.1766 -0.3194 -0.2112
  521loPI   C4B 8336   2.831   8.986   7.989  0.1371  0.0431  0.0191
  522loPI    C1 8337  16.357   6.882   9.221 -0.0068  0.1484 -0.1713
  522loPI    C2 8338  16.628   7.116   9.399  0.1367 -0.1878  0.0634
  522loPI    C3 8339  16.745   6.845   9.129 -0.0237 -0.0228 -0.1760
  522loPI   PO4 8340  16.228   6.679   9.394 -0.0436 -0.4508 -0.3204
  522loPI   GL1 8341  15.949   6.496   9.174 -0.0816  0.0131  0.0047
  522loPI   GL2 8342  16.265   6.436   9.005  0.0107  0.2318  0.0993
  522loPI   C1A 8343  15.836   6.357   8.784  0.1005 -0.0749  0.2415
  522loPI   C2A 8344  15.760   6.511   8.327  0.0722 -0.0821  0.0487
  522loPI   C3A 8345  15.663   6.701   7.915 -0.0127 -0.1459  0.2116
  522loPI   C4A 8346  16.071   6.828   7.588  0.3169 -0.0028  0.1965
  522loPI   C5A 8347  16.323   6.781   7.219  0.0402 -0.0369  0.5316
  522loPI   C6A 8348  16.273   7.138   6.930 -0.1805 -0.0536 -0.1585
  522loPI   C1B 8349  16.527   6.649   8.721  0.3365 -0.0798  0.1787
  522loPI   C2B 8350  16.753   6.433   8.454  0.1963  0.0806  0.2915
  522loPI   C3B 8351  16.664   6.119   8.022 -0.0536 -0.2519 -0.0861
  522loPI   C4B 8352  16.664   5.940   7.532 -0.4895 -0.0306 -0.0200
  523loPI    C1 8353  17.311   5.796   9.883  0.1436 -0.2642 -0.1233
  523loPI    C2 8354  17.385   6.173   9.773 -0.4316 -0.1401 -0.1164
  523loPI    C3 8355  17.503   6.043  10.133 -0.0298 -0.0416 -0.2072
  523loPI   PO4 8356  17.450   5.620   9.693  0.0158  0.2487 -0.3199
  523loPI   GL1 8357  17.502   5.737   9.293  0.1150  0.1029  0.0252
  523loPI   GL2 8358  17.690   6.060   9.299  0.0221  0.3007  0.0088
  523loPI   C1A 8359  17.350   5.999   8.955  0.2161  0.3295 -0.2307
  523loPI   C2A 8360  17.526   6.372   8.649 -0.2608  0.0363 -0.0957
  523loPI   C3A 8361  17.828   6.485   8.378 -0.0647  0.1614  0.0076
  523loPI   C4A 8362  18.262   6.598   8.208 -0.2483  0.0794  0.0123
  523loPI   C5A 8363  18.663   6.935   8.086  0.1601 -0.0927  0.2159
  523loPI   C6A 8364  18.950   7.190   7.995  0.1291  0.0369  0.0346
  523loPI   C1B 8365  17.850   6.173   8.949 -0.0419 -0.1113 -0.0584
  523loPI   C2B 8366  18.005   6.032   8.498  0.0844 -0.1812 -0.1132
  523loPI   C3B 8367  18.129   6.205   7.998 -0.0072 -0.0337  0.2391
  523loPI   C4B 8368  18.107   6.152   7.587 -0.3742 -0.3411  0.0863
  524loPI    C1 8369  11.250  10.751   9.370  0.0291 -0.0908  0.0189
  524loPI    C2 8370  11.390  10.617   9.720  0.0667  0.0208  0.0470
  524loPI    C3 8371  11.020  10.521   9.602  0.0788 -0.0738  0.0855
  524loPI   PO4 8372  11.527  10.982   9.230  0.2325 -0.0988 -0.0569
  524loPI   GL1 8373  11.779  10.946   8.857  0.1686  0.2876 -0.0198
  524loPI   GL2 8374  11.402  10.697   8.829 -0.3470  0.4383  0.1463
  524loPI   C1A 8375  11.907  11.041   8.429  0.0162  0.1827 -0.1096
  524loPI   C2A 8376  11.685  11.118   7.938 -0.0298  0.0110 -0.3053
  524loPI   C3A 8377  11.712  11.249   7.539  0.2409  0.3610 -0.1551
  524loPI   C4A 8378  11.955  11.431   7.250  0.1188 -0.1858 -0.0386
  524loPI   C5A 8379  11.841  11.603   6.869  0.1031  0.3498 -0.2773
  524loPI   C6A 8380  11.493  11.457   6.715 -0.2332 -0.1147  0.4762
  524loPI   C1B 8381  11.502  10.784   8.399 -0.0025  0.1553 -0.0276
  524loPI   C2B 8382  11.379  10.705   7.935 -0.0956 -0.0500  0.5381
  524loPI   C3B 8383  11.301  10.832   7.488  0.3208 -0.2898 -0.0117
  524loPI   C4B 8384  11.009  10.909   7.131 -0.4536  0.1853  0.1028
  525loPI    C1 8385   0.008   5.642  10.303  0.1471 -0.1464 -0.2386
  525loPI    C2 8386  -0.044   5.292  10.489  0.1059 -0.1111 -0.1832
  525loPI    C3 8387  -0.360   5.523  10.406  0.1752  0.1431  0.2308
  525loPI   PO4 8388   0.225   5.492  10.130 -0.1086  0.1746 -0.1431
  525loPI   GL1 8389   0.501   5.264   9.854  0.2720  0.0621 -0.3151
  525loPI   GL2 8390   0.569   4.833   9.934 -0.1808  0.1343 -0.3084
  525loPI   C1A 8391   0.541   5.322   9.339  0.1144  0.2160 -0.3125
  525loPI   C2A 8392   0.314   5.219   9.054 -0.0949  0.3944 -0.0652
  525loPI   C3A 8393   0.460   5.174   8.649  0.0467  0.0773 -0.1244
  525loPI   C4A 8394   0.452   5.069   8.230 -0.1833 -0.1085 -0.2075
  525loPI   C5A 8395   0.364   5.412   8.058 -0.1228 -0.1352  0.1954
  525loPI   C6A 8396   0.540   5.689   7.674 -0.1251 -0.1044 -0.3126
  525loPI   C1B 8397   0.914   5.056   9.637 -0.2398  0.0459  0.2382
  525loPI   C2B 8398   1.019   5.133   9.262  0.2285 -0.0716  0.3504
  525loPI   C3B 8399   0.878   5.284   8.787  0.1464 -0.1374  0.1476
  525loPI   C4B 8400   0.929   5.320   8.378  0.0413  0.3082 -0.0608
  526loPI    C1 8401  19.241  15.511   9.502  0.0036  0.2065 -0.0113
  526loPI    C2 8402  18.884  15.641   9.627 -0.0980  0.0115 -0.0946
  526loPI    C3 8403  19.157  15.518   9.893 -0.1703 -0.0366 -0.0418
  526loPI   PO4 8404  19.324  15.357   9.282  0.0193  0.1496 -0.1010
  526loPI   GL1 8405  19.317  15.064   8.946 -0.3136  0.2762 -0.1856
  526loPI   GL2 8406  18.970  15.123   8.976  0.3069 -0.1444  0.0294
  526loPI   C1A 8407  19.200  14.846   8.561  0.2497 -0.1956  0.1806
  526loPI   C2A 8408  19.302  14.758   8.167  0.1026 -0.0710  0.2258
  526loPI   C3A 8409  19.432  14.994   7.742  0.0728  0.0778  0.0292
  526loPI   C4A 8410  19.268  15.197   7.364 -0.1490  0.1056 -0.2871
  526loPI   C5A 8411  19.004  15.283   7.078 -0.1350 -0.0530  0.1916
  526loPI   C6A 8412  18.790  15.350   6.769  0.1074 -0.0135 -0.0109
  526loPI   C1B 8413  18.752  14.824   8.736  0.1730  0.1693  0.1167
  526loPI   C2B 8414  18.780  14.895   8.254  0.1122  0.1121 -0.1625
  526loPI   C3B 8415  18.926  15.047   7.887 -0.2655 -0.1351 -0.1459
  526loPI   C4B 8416  18.841  14.988   7.440 -0.0096  0.1858 -0.1096
  527loPI    C1 8417  10.356  13.930   9.737  0.0086 -0.0126  0.0505
  527loPI    C2 8418  10.661  13.785   9.951  0.1286 -0.0197 -0.1230
  527loPI    C3 8419  10.582  14.178   9.954 -0.0587 -0.0562  0.1714
  527loPI   PO4 8420  10.459  13.785   9.496  0.1422 -0.0429  0.0465
  527loPI   GL1 8421  10.537  13.451   9.272 -0.0929 -0.0605 -0.1391
  527loPI   GL2 8422  10.207  13.319   9.176 -0.0789 -0.1568 -0.1373
  527loPI   C1A 8423  10.842  13.489   9.048 -0.1818 -0.2162 -0.4072
  527loPI   C2A 8424  10.946  13.370   8.666  0.1338 -0.1595 -0.2039
  527loPI   C3A 8425  11.033  13.342   8.227 -0.1135  0.0969 -0.1527
  527loPI   C4A 8426  10.864  13.137   7.872 -0.0591 -0.2963 -0.2824
  527loPI   C5A 8427  10.971  12.692   7.645 -0.5522 -0.1291  0.5384
  527loPI   C6A 8428  11.010  12.273   7.538 -0.1002 -0.1792  0.1618
  527loPI   C1B 8429  10.043  13.357   8.755 -0.1536  0.2195  0.2318
  527loPI   C2B 8430  10.058  13.405   8.280 -0.2361  0.0910 -0.2841
  527loPI   C3B 8431   9.949  13.405   7.864 -0.4125  0.0634 -0.0181
  527loPI   C4B 8432   9.895  13.466   7.493  0.2075  0.0803  0.2107
  528loPI    C1 8433   5.506  16.278   9.823  0.3920 -0.1899  0.3913
  528loPI    C2 8434   5.321  15.985   9.623 -0.0066  0.2498  0.0936
  528loPI    C3 8435   5.341  15.973  10.022 -0.0418 -0.1631  0.0874
  528loPI   PO4 8436   5.700  16.376   9.609  0.0546 -0.0862 -0.0981
  528loPI   GL1 8437   5.684  16.232   9.189  0.3478 -0.0322  0.2040
  528loPI   GL2 8438   5.512  15.886   9.100  0.0458 -0.0558 -0.0331
  528loPI   C1A 8439   5.545  16.431   8.914 -0.1410  0.0400 -0.0563
  528loPI   C2A 8440   5.217  16.314   8.814 -0.0404 -0.4154 -0.0663
  528loPI   C3A 8441   5.071  16.219   8.364  0.1035  0.0466  0.0793
  528loPI   C4A 8442   4.977  15.902   7.966  0.3348 -0.1899  0.1766
  528loPI   C5A 8443   4.990  15.764   7.515 -0.0351  0.6173 -0.1781
  528loPI   C6A 8444   4.803  15.424   7.400 -0.0377  0.2035 -0.2914
  528loPI   C1B 8445   5.579  15.950   8.663 -0.2143 -0.2394  0.4149
  528loPI   C2B 8446   5.458  15.890   8.252 -0.1091  0.0072  0.1968
  528loPI   C3B 8447   5.410  16.010   7.840 -0.0663  0.2836  0.0368
  528loPI   C4B 8448   5.308  16.177   7.430  0.0559  0.2099 -0.0617
  529loPI    C1 8449  12.165  12.109   9.631 -0.0596 -0.0253 -0.1480
  529loPI    C2 8450  12.385  12.183   9.956 -0.0380  0.0537 -0.1807
  529loPI    C3 8451  12.052  12.394   9.889 -0.1376 -0.0827 -0.1182
  529loPI   PO4 8452  12.274  12.138   9.381 -0.1777  0.2095  0.2595
  529loPI   GL1 8453  12.166  12.338   9.031 -0.1382  0.1523  0.0754
  529loPI   GL2 8454  11.930  12.214   8.802  0.1938  0.4449 -0.1265
  529loPI   C1A 8455  12.386  12.354   8.645 -0.2684  0.1042  0.1240
  529loPI   C2A 8456  12.553  12.426   8.241  0.0258  0.0140  0.1462
  529loPI   C3A 8457  12.452  12.650   7.852 -0.1236  0.1270  0.0208
  529loPI   C4A 8458  12.346  12.828   7.477 -0.0126  0.0661 -0.0490
  529loPI   C5A 8459  12.492  13.042   7.185 -0.0362  0.0154  0.1781
  529loPI   C6A 8460  12.642  13.277   6.989 -0.0161  0.1621 -0.0495
  529loPI   C1B 8461  11.904  12.449   8.466 -0.0844 -0.0502  0.3531
  529loPI   C2B 8462  11.984  12.547   8.033 -0.4383 -0.0117 -0.0116
  529loPI   C3B 8463  11.936  12.569   7.599  0.2163  0.1154 -0.0308
  529loPI   C4B 8464  11.809  12.715   7.227 -0.0350  0.1764 -0.0115
  530loPI    C1 8465  12.342  14.866   9.839  0.2288 -0.2554 -0.0706
  530loPI    C2 8466  12.290  14.669  10.183 -0.1226  0.0238  0.0420
  530loPI    C3 8467  12.277  15.069  10.177 -0.1154  0.0222 -0.2952
  530loPI   PO4 8468  12.177  14.788   9.709  0.4001  0.0212  0.1854
  530loPI   GL1 8469  12.033  14.771   9.307 -0.2722 -0.2028  0.2036
  530loPI   GL2 8470  11.803  15.044   9.324  0.1767 -0.0560  0.1308
  530loPI   C1A 8471  12.287  14.932   8.890 -0.3089 -0.1569  0.0194
  530loPI   C2A 8472  12.436  14.963   8.506  0.0983 -0.1048 -0.3363
  530loPI   C3A 8473  12.414  14.988   8.095 -0.3947 -0.0684 -0.3212
  530loPI   C4A 8474  12.531  14.848   7.626 -0.0340 -0.2607 -0.0947
  530loPI   C5A 8475  12.438  14.477   7.386 -0.2599  0.1649 -0.0017
  530loPI   C6A 8476  12.235  14.174   7.261 -0.1301  0.1117  0.2078
  530loPI   C1B 8477  11.820  14.975   8.903 -0.2136  0.1786  0.1920
  530loPI   C2B 8478  11.953  14.947   8.440 -0.0505 -0.1427  0.1377
  530loPI   C3B 8479  11.928  14.852   7.963 -0.0696 -0.0452  0.5653
  530loPI   C4B 8480  12.199  14.528   7.793  0.1462 -0.0402 -0.3099
  531loPI    C1 8481   2.853   6.768  10.911 -0.2213 -0.1694 -0.1967
  531loPI    C2 8482   3.117   6.502  10.770 -0.0062 -0.0299 -0.0639
  531loPI    C3 8483   3.236   6.786  11.026 -0.2671  0.0943 -0.0766
  531loPI   PO4 8484   2.623   6.759  10.778  0.1777 -0.0312  0.0516
  531loPI   GL1 8485   2.629   7.020  10.364 -0.0680 -0.0304  0.1991
  531loPI   GL2 8486   2.365   6.806  10.213  0.1100 -0.2597 -0.4657
  531loPI   C1A 8487   2.487   7.220   9.954  0.0618 -0.3495  0.1777
  531loPI   C2A 8488   2.571   7.433   9.640  0.0784  0.2479 -0.1586
  531loPI   C3A 8489   2.514   7.466   9.170  0.1399 -0.1476  0.0750
  531loPI   C4A 8490   2.395   7.460   8.707 -0.0146  0.1701 -0.0072
  531loPI   C5A 8491   2.449   7.415   8.297 -0.0806  0.5589 -0.0334
  531loPI   C6A 8492   2.685   7.387   7.821 -0.0125 -0.2512  0.3438
  531loPI   C1B 8493   2.460   6.678   9.631 -0.1044 -0.4064  0.2323
  531loPI   C2B 8494   2.685   6.459   9.346  0.0789 -0.0792 -0.0447
  531loPI   C3B 8495   2.915   6.147   9.113  0.1669 -0.3671 -0.0538
  531loPI   C4B 8496   2.815   6.116   8.678 -0.1560 -0.1506  0.0060
  532loPI    C1 8497   3.164   1.108   9.927 -0.0158 -0.1511 -0.0783
  532loPI    C2 8498   2.949   0.932  10.215  0.1437 -0.1444  0.0460
  532loPI    C3 8499   3.268   0.746  10.061 -0.0700 -0.2448 -0.2851
  532loPI   PO4 8500   2.961   1.192   9.678 -0.3160 -0.3017 -0.1965
  532loPI   GL1 8501   3.022   1.394   9.267  0.2446  0.0304  0.0747
  532loPI   GL2 8502   3.441   1.220   9.092  0.2470  0.1148 -0.0104
  532loPI   C1A 8503   3.083   1.561   8.853  0.1273  0.0329 -0.0639
  532loPI   C2A 8504   2.911   1.830   8.493 -0.2130  0.0577 -0.2703
  532loPI   C3A 8505   2.941   2.102   8.208 -0.1216 -0.1284 -0.1770
  532loPI   C4A 8506   3.018   2.455   7.887  0.0421 -0.0091 -0.0562
  532loPI   C5A 8507   3.299   2.650   7.588  0.0662  0.1411  0.2217
  532loPI   C6A 8508   3.560   2.933   7.552 -0.3743 -0.2059 -0.3752
  532loPI   C1B 8509   3.578   1.417   8.659  0.2095  0.0172  0.1138
  532loPI   C2B 8510   3.375   1.491   8.351 -0.1778  0.3487 -0.0347
  532loPI   C3B 8511   3.342   1.444   7.875  0.0538  0.0652  0.1701
  532loPI   C4B 8512   3.399   1.542   7.448 -0.0522 -0.2552  0.1181
  533loPI    C1 8513  17.274  12.010  10.077  0.2537 -0.1724 -0.4682
  533loPI    C2 8514  17.353  11.763  10.381 -0.1154  0.1658 -0.0861
  533loPI    C3 8515  17.599  12.068  10.303  0.0652 -0.0150 -0.2332
  533loPI   PO4 8516  17.199  11.866   9.907 -0.2411 -0.2004  0.2252
  533loPI   GL1 8517  17.263  11.888   9.427  0.0049  0.1199 -0.1291
  533loPI   GL2 8518  16.996  12.040   9.219  0.1548 -0.0715 -0.2329
  533loPI   C1A 8519  17.497  11.811   9.165 -0.2230 -0.2663  0.0362
  533loPI   C2A 8520  17.701  11.572   8.873  0.1236 -0.3330  0.1366
  533loPI   C3A 8521  17.872  11.674   8.492  0.0616  0.0998 -0.4338
  533loPI   C4A 8522  17.950  11.892   8.145  0.1295  0.1693 -0.1261
  533loPI   C5A 8523  18.004  12.014   7.742 -0.0979 -0.1602 -0.1075
  533loPI   C6A 8524  18.220  11.894   7.345 -0.1359 -0.4326  0.0200
  533loPI   C1B 8525  16.821  12.180   8.880  0.4422  0.3784  0.1283
  533loPI   C2B 8526  16.986  12.197   8.461 -0.2918 -0.0016 -0.0387
  533loPI   C3B 8527  17.130  12.242   7.981  0.0970 -0.0199 -0.0697
  533loPI   C4B 8528  17.322  12.539   7.519 -0.3435 -0.0202  0.1802
  534loPI    C1 8529   7.618  14.482  10.055 -0.1275 -0.0586  0.2097
  534loPI    C2 8530   7.941  14.694  10.159 -0.1976  0.0245  0.2596
  534loPI    C3 8531   7.655  14.620  10.429 -0.3675  0.2180  0.1353
  534loPI   PO4 8532   7.610  14.563   9.775  0.0042 -0.0707  0.0433
  534loPI   GL1 8533   7.469  14.210   9.519 -0.1691  0.1690  0.0586
  534loPI   GL2 8534   7.284  14.485   9.360 -0.1084 -0.0667  0.1327
  534loPI   C1A 8535   7.185  13.997   9.337 -0.2985 -0.0138 -0.2524
  534loPI   C2A 8536   6.952  13.785   9.079  0.2579 -0.0963 -0.0365
  534loPI   C3A 8537   6.581  13.659   8.912 -0.0555  0.2563  0.1823
  534loPI   C4A 8538   6.401  13.676   8.532  0.0340  0.2431  0.1561
  534loPI   C5A 8539   6.037  13.726   8.279  0.1863 -0.0762  0.0063
  534loPI   C6A 8540   5.694  13.611   8.044 -0.0033 -0.0669 -0.1757
  534loPI   C1B 8541   7.320  14.369   8.951  0.2965  0.1334 -0.3013
  534loPI   C2B 8542   7.220  14.089   8.725  0.0623 -0.0419 -0.0750
  534loPI   C3B 8543   7.069  13.637   8.572  0.0956 -0.0984  0.0830
  534loPI   C4B 8544   7.201  13.130   8.454 -0.0176 -0.0677 -0.4680
  535loPI    C1 8545   6.031   2.885  10.233  0.0237  0.1157  0.0608
  535loPI    C2 8546   5.736   3.130  10.348  0.0760  0.2391 -0.0650
  535loPI    C3 8547   5.958   2.942  10.622 -0.1686  0.0846  0.0302
  535loPI   PO4 8548   6.000   2.935   9.938  0.0124  0.0537 -0.4548
  535loPI   GL1 8549   6.138   3.107   9.637  0.1081 -0.1864  0.3316
  535loPI   GL2 8550   6.160   3.356   9.497  0.5305 -0.1728 -0.0613
  535loPI   C1A 8551   5.917   2.872   9.302 -0.3471  0.1006  0.2491
  535loPI   C2A 8552   5.823   2.876   8.882 -0.1561 -0.0814 -0.2183
  535loPI   C3A 8553   5.866   2.819   8.467 -0.1974  0.1397 -0.3355
  535loPI   C4A 8554   5.759   3.049   8.006 -0.0927  0.0656 -0.2821
  535loPI   C5A 8555   5.696   3.465   7.777  0.0340  0.0688 -0.2366
  535loPI   C6A 8556   5.641   3.651   7.371  0.1966 -0.0994 -0.2896
  535loPI   C1B 8557   6.122   3.241   9.072  0.0788 -0.0002  0.1171
  535loPI   C2B 8558   5.920   3.266   8.660 -0.0795 -0.2063  0.0625
  535loPI   C3B 8559   5.549   3.421   8.362 -0.1841 -0.1698 -0.1938
  535loPI   C4B 8560   5.373   3.663   8.113 -0.2349  0.3773  0.2864
  536loPI    C1 8561   6.142   4.663  10.548  0.1482 -0.0188 -0.1080
  536loPI    C2 8562   6.531   4.601  10.620  0.1280 -0.1673 -0.1244
  536loPI    C3 8563   6.254   4.419  10.845  0.0674 -0.2347 -0.2524
  536loPI   PO4 8564   6.175   4.609  10.207 -0.1854 -0.4059  0.1528
  536loPI   GL1 8565   5.935   4.623   9.797  0.0338 -0.0184  0.0373
  536loPI   GL2 8566   5.742   4.920   9.827 -0.0723 -0.0399 -0.0922
  536loPI   C1A 8567   5.918   4.603   9.323  0.0744  0.1713 -0.1918
  536loPI   C2A 8568   5.874   4.647   8.906  0.2015 -0.1223  0.3131
  536loPI   C3A 8569   5.654   4.595   8.472  0.1261  0.0314 -0.1327
  536loPI   C4A 8570   5.354   4.787   8.114 -0.3148  0.3041  0.2047
  536loPI   C5A 8571   5.235   4.885   7.610 -0.0402 -0.4396 -0.3683
  536loPI   C6A 8572   4.959   5.048   7.304 -0.1293  0.2461  0.0990
  536loPI   C1B 8573   5.527   4.936   9.397  0.1025 -0.1993 -0.0162
  536loPI   C2B 8574   5.373   4.909   9.049 -0.0380 -0.3134 -0.0048
  536loPI   C3B 8575   5.343   4.966   8.608 -0.0228 -0.2385  0.0466
  536loPI   C4B 8576   5.374   5.264   8.312 -0.1718 -0.1485 -0.1145
  537loPI    C1 8577   6.128  14.335  10.018  0.0570 -0.1113  0.0311
  537loPI    C2 8578   6.187  14.036  10.277  0.1267  0.0157  0.1632
  537loPI    C3 8579   6.458  14.328  10.243 -0.0157  0.1476  0.1496
  537loPI   PO4 8580   5.980  14.131   9.823 -0.2531  0.1259  0.0029
  537loPI   GL1 8581   6.155  14.100   9.361  0.0898  0.0380  0.1099
  537loPI   GL2 8582   6.356  13.822   9.425 -0.0474 -0.0410 -0.1138
  537loPI   C1A 8583   6.210  14.359   8.943 -0.2301  0.1778 -0.2258
  537loPI   C2A 8584   6.368  14.488   8.676  0.2716 -0.3238 -0.3518
  537loPI   C3A 8585   6.232  14.754   8.378  0.1532  0.1028  0.1010
  537loPI   C4A 8586   6.289  14.683   7.938 -0.0411  0.2627 -0.1170
  537loPI   C5A 8587   6.108  14.610   7.550 -0.0046  0.3478  0.1434
  537loPI   C6A 8588   5.827  14.510   7.164  0.0525  0.2625  0.3642
  537loPI   C1B 8589   6.118  13.670   9.078 -0.2472  0.0383  0.1480
  537loPI   C2B 8590   5.936  13.494   8.722 -0.2384  0.3824 -0.0015
  537loPI   C3B 8591   5.483  13.622   8.563 -0.0265 -0.0762  0.0995
  537loPI   C4B 8592   5.124  13.652   8.547  0.1650  0.0665 -0.0087
  538loPI    C1 8593  11.835  18.852   9.765 -0.2360  0.1137  0.2917
  538loPI    C2 8594  12.000  19.209   9.691 -0.0637 -0.0416 -0.1013
  538loPI    C3 8595  12.143  18.979   9.986  0.0556  0.0641 -0.0756
  538loPI   PO4 8596  11.792  18.785   9.547 -0.1020  0.0017 -0.2102
  538loPI   GL1 8597  11.527  18.556   9.202 -0.0031  0.2393  0.3646
  538loPI   GL2 8598  11.412  18.252   9.144  0.1876 -0.1144 -0.0136
  538loPI   C1A 8599  11.626  18.600   8.796  0.0517  0.3600 -0.1892
  538loPI   C2A 8600  11.600  18.776   8.337 -0.0810 -0.1601 -0.2214
  538loPI   C3A 8601  11.584  18.706   7.980  0.2074 -0.1387  0.1440
  538loPI   C4A 8602  11.302  18.685   7.687  0.2575  0.0714 -0.0665
  538loPI   C5A 8603  11.236  18.311   7.492 -0.2742  0.0840 -0.1404
  538loPI   C6A 8604  11.548  18.136   7.216 -0.3265  0.0443 -0.0620
  538loPI   C1B 8605  11.335  18.155   8.718 -0.2293 -0.1012  0.1360
  538loPI   C2B 8606  11.391  18.280   8.285 -0.1668  0.2062 -0.0012
  538loPI   C3B 8607  11.340  18.093   7.958 -0.1351 -0.1508  0.4053
  538loPI   C4B 8608  11.605  17.957   7.640  0.1157 -0.0001  0.0330
  539loPI    C1 8609   5.862   6.435  10.220  0.0894 -0.1877  0.2496
  539loPI    C2 8610   5.857   6.686  10.532  0.0254  0.0916  0.0282
  539loPI    C3 8611   6.202   6.608  10.343  0.0154  0.1618 -0.0195
  539loPI   PO4 8612   5.602   6.570   9.997  0.1540 -0.0613 -0.2694
  539loPI   GL1 8613   5.861   6.548   9.569  0.0565  0.1199 -0.0776
  539loPI   GL2 8614   6.194   6.560   9.428 -0.0287 -0.4653 -0.1796
  539loPI   C1A 8615   5.724   6.644   9.173  0.0634  0.3455  0.0799
  539loPI   C2A 8616   5.590   6.568   8.753 -0.0748 -0.0656  0.0198
  539loPI   C3A 8617   5.423   6.942   8.463 -0.0382 -0.1534 -0.1638
  539loPI   C4A 8618   5.151   6.973   8.017  0.1619  0.1239  0.1160
  539loPI   C5A 8619   4.856   7.062   7.738 -0.4081  0.3164 -0.0418
  539loPI   C6A 8620   4.504   7.218   7.735  0.0230  0.1357  0.2119
  539loPI   C1B 8621   6.206   6.802   9.153 -0.0068 -0.2421  0.0206
  539loPI   C2B 8622   5.989   6.911   8.754 -0.2552  0.2998 -0.0111
  539loPI   C3B 8623   6.018   7.090   8.309 -0.0832  0.2444 -0.2831
  539loPI   C4B 8624   6.115   7.124   7.946  0.2537 -0.2618 -0.0663
  540loPI    C1 8625  11.850   4.092   9.632  0.0526  0.5563 -0.0348
  540loPI    C2 8626  11.901   4.385   9.899 -0.1758  0.2639  0.3397
  540loPI    C3 8627  11.937   4.003  10.012 -0.1504  0.1367 -0.0806
  540loPI   PO4 8628  11.990   4.169   9.295  0.1251  0.2059  0.2037
  540loPI   GL1 8629  11.788   4.080   9.030  0.1427 -0.0708 -0.0259
  540loPI   GL2 8630  11.482   4.135   9.038 -0.0722  0.0718  0.1831
  540loPI   C1A 8631  11.828   4.429   8.739  0.4162  0.2165  0.1136
  540loPI   C2A 8632  11.612   4.373   8.310 -0.0621 -0.1665  0.1605
  540loPI   C3A 8633  11.567   4.359   7.841  0.1444 -0.3006 -0.0360
  540loPI   C4A 8634  11.531   4.164   7.414 -0.0065  0.1645  0.0605
  540loPI   C5A 8635  11.669   3.776   7.212  0.2388  0.0478  0.3014
  540loPI   C6A 8636  11.628   3.631   6.764 -0.1050  0.1826 -0.0502
  540loPI   C1B 8637  11.398   4.092   8.719  0.2020  0.2013  0.1645
  540loPI   C2B 8638  11.271   3.994   8.319  0.1444 -0.1269  0.1596
  540loPI   C3B 8639  11.341   3.876   7.820  0.0324 -0.0601  0.2130
  540loPI   C4B 8640  11.092   3.756   7.431 -0.1129 -0.1356 -0.1207
  541loPI    C1 8641   6.636   6.420  10.129 -0.1114  0.4000 -0.0774
  541loPI    C2 8642   6.457   6.088  10.263 -0.1155  0.2778 -0.3779
  541loPI    C3 8643   6.651   6.328  10.518  0.2898 -0.2000 -0.2208
  541loPI   PO4 8644   6.736   6.321   9.912 -0.0891 -0.1804  0.0361
  541loPI   GL1 8645   6.697   6.203   9.513  0.1159  0.0727  0.1821
  541loPI   GL2 8646   6.622   5.856   9.374  0.1808 -0.0649  0.0050
  541loPI   C1A 8647   6.575   6.325   9.135 -0.0167  0.0971  0.1362
  541loPI   C2A 8648   6.582   6.549   8.753  0.2756 -0.0575  0.1346
  541loPI   C3A 8649   6.447   6.986   8.621  0.3598 -0.0332  0.0665
  541loPI   C4A 8650   6.495   7.308   8.445 -0.0348 -0.2857 -0.5804
  541loPI   C5A 8651   6.635   7.296   8.021  0.0437  0.0502 -0.1697
  541loPI   C6A 8652   6.873   7.147   7.628  0.0578  0.0099 -0.1628
  541loPI   C1B 8653   6.610   5.873   8.974 -0.2337  0.1222  0.0209
  541loPI   C2B 8654   6.624   5.950   8.498  0.1010  0.0244  0.1100
  541loPI   C3B 8655   6.518   6.397   8.263  0.2073 -0.1439 -0.1585
  541loPI   C4B 8656   6.415   6.818   8.135 -0.0665  0.3261  0.2352
  542loPI    C1 8657  13.593   7.771   9.447 -0.0373  0.2343  0.0350
  542loPI    C2 8658  13.656   8.131   9.609 -0.2436  0.3065 -0.0421
  542loPI    C3 8659  13.379   7.888   9.765 -0.1009  0.1783  0.0131
  542loPI   PO4 8660  13.665   7.911   9.149  0.1884 -0.1996 -0.0962
  542loPI   GL1 8661  13.910   8.005   8.753 -0.1354  0.0329 -0.1187
  542loPI   GL2 8662  14.039   8.362   8.701  0.0688 -0.0181  0.0738
  542loPI   C1A 8663  13.566   7.843   8.506 -0.0612 -0.2197  0.0795
  542loPI   C2A 8664  13.582   7.479   8.272 -0.1980  0.1897 -0.1893
  542loPI   C3A 8665  13.866   7.452   7.819 -0.2068 -0.0519  0.0910
  542loPI   C4A 8666  13.989   7.299   7.435  0.0304  0.1283  0.3482
  542loPI   C5A 8667  14.238   7.399   7.053  0.4663  0.0108  0.0661
  542loPI   C6A 8668  14.466   7.236   6.761  0.0161 -0.1957 -0.1577
  542loPI   C1B 8669  14.281   8.598   8.421 -0.1792 -0.0518 -0.2124
  542loPI   C2B 8670  14.460   8.571   8.024 -0.1865  0.0548  0.3362
  542loPI   C3B 8671  14.694   8.443   7.802  0.0523 -0.1505 -0.0567
  542loPI   C4B 8672  14.918   8.236   7.463 -0.1213 -0.2240  0.0148
  543loPI    C1 8673   5.015   0.229   9.652 -0.0352  0.1874  0.0946
  543loPI    C2 8674   4.616   0.206   9.678 -0.0337 -0.4028 -0.2310
  543loPI    C3 8675   4.845  -0.036   9.900  0.1640  0.1794  0.2247
  543loPI   PO4 8676   5.020   0.304   9.346 -0.2592 -0.0526 -0.1417
  543loPI   GL1 8677   5.182   0.298   8.927  0.2557 -0.2079  0.0376
  543loPI   GL2 8678   4.893   0.220   8.793  0.0215  0.0953  0.0139
  543loPI   C1A 8679   5.381   0.096   8.647  0.0003 -0.2239  0.1583
  543loPI   C2A 8680   5.723  -0.219   8.392  0.0803 -0.1842  0.4647
  543loPI   C3A 8681   5.759  -0.311   8.018  0.0219  0.0109 -0.3872
  543loPI   C4A 8682   5.636  -0.169   7.691  0.0287  0.2369  0.0401
  543loPI   C5A 8683   5.597  -0.004   7.350 -0.0613 -0.1087  0.0755
  543loPI   C6A 8684   5.827   0.327   7.132  0.0533 -0.3255 -0.3149
  543loPI   C1B 8685   5.009   0.201   8.378  0.0407  0.1884 -0.0798
  543loPI   C2B 8686   4.835   0.217   8.064  0.1988  0.0665  0.0854
  543loPI   C3B 8687   4.819   0.520   7.579 -0.0085  0.1143 -0.1577
  543loPI   C4B 8688   4.559   0.920   7.490 -0.3029 -0.3746  0.1604
  544loPI    C1 8689   1.591   5.318  10.526 -0.0087  0.1870 -0.0039
  544loPI    C2 8690   1.744   5.325  10.895  0.1010 -0.2099 -0.0372
  544loPI    C3 8691   1.465   5.591  10.789 -0.1456 -0.2757  0.4250
  544loPI   PO4 8692   1.520   5.062  10.400  0.1849  0.0116 -0.1011
  544loPI   GL1 8693   1.853   4.930  10.084  0.0177 -0.0593  0.1931
  544loPI   GL2 8694   2.160   5.033   9.960 -0.1714 -0.1462 -0.0777
  544loPI   C1A 8695   1.504   4.957   9.751 -0.2646 -0.2010 -0.0343
  544loPI   C2A 8696   1.455   4.873   9.384  0.3535 -0.1430 -0.1849
  544loPI   C3A 8697   1.355   4.894   8.982  0.1186 -0.1767 -0.3051
  544loPI   C4A 8698   1.368   5.155   8.721  0.2315 -0.0692  0.0496
  544loPI   C5A 8699   1.561   5.214   8.341  0.2839 -0.0761  0.1361
  544loPI   C6A 8700   1.375   5.327   7.982 -0.3164  0.0665  0.4173
  544loPI   C1B 8701   2.316   5.007   9.647 -0.0214  0.1431 -0.2872
  544loPI   C2B 8702   2.419   4.971   9.143 -0.0527  0.1498  0.2096
  544loPI   C3B 8703   2.663   5.060   8.696  0.1035 -0.2009 -0.2917
  544loPI   C4B 8704   2.774   4.903   8.316  0.3854 -0.0978  0.3597
  545loPI    C1 8705  13.721   6.350   9.200  0.0076 -0.0689 -0.1051
  545loPI    C2 8706  13.616   6.167   9.540  0.2557  0.0892  0.0602
  545loPI    C3 8707  13.815   6.514   9.553 -0.0050  0.2557 -0.2491
  545loPI   PO4 8708  13.647   6.208   9.019 -0.0723 -0.2635 -0.1366
  545loPI   GL1 8709  13.632   6.148   8.618  0.3361 -0.2792  0.2987
  545loPI   GL2 8710  13.677   6.406   8.514  0.1758  0.1280 -0.0760
  545loPI   C1A 8711  13.458   5.890   8.313 -0.2689 -0.5250 -0.4856
  545loPI   C2A 8712  13.323   5.727   7.915 -0.0332  0.1914  0.0474
  545loPI   C3A 8713  13.374   5.972   7.553 -0.1285  0.0739 -0.2743
  545loPI   C4A 8714  13.567   6.101   7.224  0.2512  0.0983  0.3230
  545loPI   C5A 8715  13.741   5.881   6.864  0.1244  0.2912 -0.3047
  545loPI   C6A 8716  13.734   5.771   6.489  0.1708  0.0065  0.1149
  545loPI   C1B 8717  13.428   6.650   8.185 -0.4513  0.0342 -0.1114
  545loPI   C2B 8718  13.419   6.516   7.783 -0.2191  0.2989 -0.3481
  545loPI   C3B 8719  13.714   6.520   7.395  0.0953  0.0179 -0.3654
  545loPI   C4B 8720  13.623   6.680   6.966  0.1081 -0.0153  0.0654
  546loPI    C1 8721   5.750   5.295  10.513 -0.2687  0.1558  0.1465
  546loPI    C2 8722   5.761   4.931  10.347  0.0985  0.1019  0.2789
  546loPI    C3 8723   5.482   5.018  10.619  0.0991 -0.1301  0.3557
  546loPI   PO4 8724   5.799   5.483  10.259  0.0916  0.3175  0.5020
  546loPI   GL1 8725   5.709   5.548   9.956 -0.2198 -0.5672  0.0199
  546loPI   GL2 8726   5.952   5.570   9.818  0.2297  0.4088 -0.0870
  546loPI   C1A 8727   5.492   5.443   9.531  0.2410  0.0795 -0.0984
  546loPI   C2A 8728   5.243   5.380   9.188 -0.2069 -0.5090 -0.1956
  546loPI   C3A 8729   5.363   5.405   8.775  0.2729 -0.2388  0.0775
  546loPI   C4A 8730   5.573   5.676   8.415 -0.3372 -0.2136 -0.3959
  546loPI   C5A 8731   5.792   5.536   8.137  0.1261  0.0435 -0.0415
  546loPI   C6A 8732   5.949   5.620   7.767  0.1744  0.0327 -0.0499
  546loPI   C1B 8733   5.948   5.266   9.517 -0.3668 -0.1071 -0.2427
  546loPI   C2B 8734   5.814   5.251   9.103  0.1638 -0.2874 -0.0330
  546loPI   C3B 8735   5.828   5.295   8.665  0.1246 -0.0554  0.2408
  546loPI   C4B 8736   5.818   4.997   8.288 -0.3248 -0.2458  0.2740
  547loPI    C1 8737  15.945   1.916   9.148 -0.3891 -0.0689  0.0116
  547loPI    C2 8738  15.804   1.996   9.514 -0.0791  0.0486  0.1083
  547loPI    C3 8739  15.938   1.629   9.428  0.0662  0.0823  0.1871
  547loPI   PO4 8740  15.706   2.104   8.956  0.0780 -0.0933 -0.3333
  547loPI   GL1 8741  15.665   1.972   8.610  0.3027 -0.1891  0.4535
  547loPI   GL2 8742  15.356   2.068   8.598 -0.1748 -0.1814 -0.1457
  547loPI   C1A 8743  15.694   2.096   8.139 -0.4531 -0.0349  0.1322
  547loPI   C2A 8744  15.665   2.105   7.752  0.2697  0.2154 -0.2611
  547loPI   C3A 8745  15.404   2.138   7.389 -0.1605  0.2808  0.1812
  547loPI   C4A 8746  14.990   2.036   7.177 -0.2518  0.1519 -0.3340
  547loPI   C5A 8747  14.589   1.860   6.932  0.2199 -0.0532 -0.1081
  547loPI   C6A 8748  14.524   1.569   6.716 -0.0483 -0.0946  0.0356
  547loPI   C1B 8749  15.193   2.117   8.247  0.4187  0.1579 -0.2842
  547loPI   C2B 8750  15.208   1.984   7.856  0.1858 -0.3994  0.4264
  547loPI   C3B 8751  14.880   1.834   7.639 -0.1289  0.3539 -0.4394
  547loPI   C4B 8752  14.883   1.559   7.268 -0.0662 -0.0835 -0.4554
  548loPI    C1 8753   2.551  13.430  10.201 -0.0741  0.2443 -0.1623
  548loPI    C2 8754   2.223  13.622  10.324  0.0544  0.2417  0.1983
  548loPI    C3 8755   2.334  13.282  10.502  0.0783  0.0704 -0.1358
  548loPI   PO4 8756   2.507  13.436   9.938  0.2538 -0.2517  0.2842
  548loPI   GL1 8757   2.518  13.523   9.474  0.1063  0.0289 -0.1726
  548loPI   GL2 8758   2.699  13.772   9.253 -0.0151  0.0777  0.0449
  548loPI   C1A 8759   2.131  13.633   9.209 -0.1510  0.3101 -0.0494
  548loPI   C2A 8760   2.057  13.676   8.651 -0.1103  0.3921 -0.0358
  548loPI   C3A 8761   2.203  13.468   8.213 -0.1964 -0.0729 -0.0555
  548loPI   C4A 8762   2.385  13.133   7.998  0.3028 -0.1914 -0.1034
  548loPI   C5A 8763   2.629  13.005   7.524 -0.0800  0.0966  0.0423
  548loPI   C6A 8764   2.761  12.579   7.322 -0.0677 -0.0439 -0.1952
  548loPI   C1B 8765   2.728  13.561   8.913  0.0955  0.1992  0.0392
  548loPI   C2B 8766   3.059  13.590   8.542  0.0209 -0.0140 -0.0815
  548loPI   C3B 8767   3.287  13.439   8.224 -0.1690 -0.1669 -0.1058
  548loPI   C4B 8768   3.617  13.641   7.841 -0.2846  0.0348 -0.1295
  549loPI    C1 8769   5.576  17.331   9.686  0.0090  0.3270 -0.1765
  549loPI    C2 8770   5.866  17.333   9.411  0.4173  0.1745  0.2388
  549loPI    C3 8771   5.946  17.447   9.786 -0.0482  0.0674  0.3766
  549loPI   PO4 8772   5.348  17.444   9.499 -0.3079  0.4331 -0.0177
  549loPI   GL1 8773   5.390  17.351   9.179  0.0877  0.0759  0.0943
  549loPI   GL2 8774   5.668  17.521   9.005 -0.2063  0.1182  0.3040
  549loPI   C1A 8775   5.196  17.420   8.820  0.0685 -0.0514 -0.1905
  549loPI   C2A 8776   5.099  17.297   8.339  0.0176 -0.1022  0.1077
  549loPI   C3A 8777   4.942  17.010   7.937  0.1595  0.3626  0.2264
  549loPI   C4A 8778   4.867  16.877   7.568 -0.3284  0.0105  0.0360
  549loPI   C5A 8779   4.481  16.833   7.205 -0.1033 -0.2158 -0.1103
  549loPI   C6A 8780   4.170  17.140   7.017  0.1136 -0.0394  0.1755
  549loPI   C1B 8781   5.606  17.320   8.528  0.0319 -0.1565 -0.0736
  549loPI   C2B 8782   5.606  17.242   8.089  0.0594  0.2916  0.0071
  549loPI   C3B 8783   5.464  17.267   7.695 -0.1795 -0.1214  0.2609
  549loPI   C4B 8784   5.652  17.029   7.412  0.0929  0.2053  0.0077
  550loPI    C1 8785  17.899   0.565   9.409 -0.0493  0.0462  0.2455
  550loPI    C2 8786  18.099   0.783   9.678  0.1611  0.0336  0.1022
  550loPI    C3 8787  17.993   0.407   9.764  0.1922  0.0430  0.1819
  550loPI   PO4 8788  18.009   0.585   9.193 -0.0853  0.1069  0.2159
  550loPI   GL1 8789  18.245   0.353   8.993 -0.1748  0.1301 -0.1754
  550loPI   GL2 8790  18.460   0.117   9.035  0.1332 -0.3355 -0.1955
  550loPI   C1A 8791  18.294   0.577   8.621 -0.2207 -0.2567  0.0682
  550loPI   C2A 8792  18.129   0.781   8.270 -0.0277 -0.2422 -0.0692
  550loPI   C3A 8793  18.185   1.006   7.799 -0.2551 -0.2586 -0.0480
  550loPI   C4A 8794  18.407   1.056   7.402  0.0226  0.1404  0.3629
  550loPI   C5A 8795  18.841   0.928   7.209  0.0590 -0.0312 -0.0897
  550loPI   C6A 8796  19.078   0.701   7.028  0.2233 -0.3149 -0.2301
  550loPI   C1B 8797  18.795   0.133   8.813  0.4327  0.0188 -0.0355
  550loPI   C2B 8798  18.925   0.286   8.459 -0.1622  0.1139  0.0262
  550loPI   C3B 8799  19.163   0.506   8.180  0.0493  0.0176  0.0043
  550loPI   C4B 8800  19.064   0.864   8.043  0.2302 -0.1104  0.1343
  551loPI    C1 8801  17.928   8.816  10.395  0.1235 -0.1459  0.1908
  551loPI    C2 8802  17.540   8.848  10.483  0.0930  0.0059  0.0082
  551loPI    C3 8803  17.795   9.134  10.597  0.1046  0.0453 -0.1151
  551loPI   PO4 8804  17.975   8.800  10.114  0.2600  0.2183 -0.0548
  551loPI   GL1 8805  18.294   8.882   9.771  0.1485 -0.1937 -0.1822
  551loPI   GL2 8806  18.242   8.930   9.362 -0.4061 -0.1398 -0.0891
  551loPI   C1A 8807  18.672   8.647   9.508 -0.0795  0.1218 -0.0569
  551loPI   C2A 8808  18.854   8.555   9.038  0.3842  0.0928  0.1768
  551loPI   C3A 8809  18.821   8.565   8.586  0.0825  0.1677  0.0522
  551loPI   C4A 8810  18.570   8.641   8.129  0.0178 -0.0713  0.1279
  551loPI   C5A 8811  18.501   8.676   7.646  0.5174 -0.0697 -0.1412
  551loPI   C6A 8812  18.703   8.429   7.300 -0.1660 -0.0870  0.0071
  551loPI   C1B 8813  18.389   8.624   9.013 -0.0895  0.2765  0.2732
  551loPI   C2B 8814  18.509   8.204   8.835 -0.1194  0.2425  0.2770
  551loPI   C3B 8815  18.404   7.802   8.697 -0.0160 -0.0870 -0.1546
  551loPI   C4B 8816  18.174   7.706   8.298 -0.0907  0.5190  0.4944
  552loPI    C1 8817   4.127  12.208  10.540  0.1183 -0.1832 -0.0482
  552loPI    C2 8818   3.848  12.390  10.762  0.0487  0.1761 -0.4167
  552loPI    C3 8819   4.235  12.468  10.824  0.0623 -0.1501 -0.0569
  552loPI   PO4 8820   4.013  12.193  10.292 -0.3724  0.2775 -0.1054
  552loPI   GL1 8821   4.138  12.213   9.901  0.0396 -0.0426  0.1372
  552loPI   GL2 8822   4.107  12.471   9.846 -0.1565 -0.1754 -0.1823
  552loPI   C1A 8823   4.529  12.154   9.788 -0.2061  0.0097 -0.0370
  552loPI   C2A 8824   4.416  11.932   9.350  0.0159 -0.0628  0.0551
  552loPI   C3A 8825   4.242  11.591   9.221 -0.2091  0.1059 -0.2063
  552loPI   C4A 8826   4.335  11.357   8.822  0.2004  0.1698  0.4497
  552loPI   C5A 8827   4.501  11.175   8.499  0.0900 -0.1799  0.3119
  552loPI   C6A 8828   4.536  11.211   8.058  0.0667  0.3996 -0.0956
  552loPI   C1B 8829   4.338  12.473   9.454 -0.2303 -0.0610  0.2022
  552loPI   C2B 8830   4.560  12.320   9.056  0.3723  0.1788 -0.1952
  552loPI   C3B 8831   4.869  12.380   8.840 -0.0750  0.1340 -0.0076
  552loPI   C4B 8832   5.190  12.384   8.475  0.0436  0.0856  0.1837
  553loPI    C1 8833   5.226   3.908  10.474 -0.5183 -0.0928 -0.0059
  553loPI    C2 8834   5.246   4.070  10.839 -0.3030  0.1977 -0.1423
  553loPI    C3 8835   5.185   3.677  10.798  0.0804  0.0939  0.2169
  553loPI   PO4 8836   5.441   4.040  10.352 -0.3540 -0.3918 -0.1726
  553loPI   GL1 8837   5.355   4.528  10.171  0.0674  0.1131 -0.0581
  553loPI   GL2 8838   5.430   4.299   9.893 -0.3057  0.0717 -0.1036
  553loPI   C1A 8839   5.100   4.630   9.774  0.3581 -0.0410  0.0550
  553loPI   C2A 8840   5.041   4.963   9.400  0.0220  0.0010  0.1314
  553loPI   C3A 8841   4.874   5.107   8.983  0.1763 -0.2539 -0.0435
  553loPI   C4A 8842   4.884   5.126   8.451 -0.1251  0.1461 -0.4168
  553loPI   C5A 8843   4.931   5.156   8.091  0.0415  0.1547  0.3904
  553loPI   C6A 8844   5.092   5.321   7.726 -0.3006  0.0936  0.0656
  553loPI   C1B 8845   5.510   4.440   9.486 -0.1158 -0.0612 -0.0723
  553loPI   C2B 8846   5.373   4.455   9.071 -0.2844 -0.2798 -0.2379
  553loPI   C3B 8847   5.134   4.446   8.822 -0.1390 -0.0721 -0.0545
  553loPI   C4B 8848   4.945   4.533   8.408 -0.0011  0.0333  0.1278
  554loPI    C1 8849  11.927  13.992   9.930 -0.1475 -0.1191 -0.1134
  554loPI    C2 8850  11.919  14.386   9.998  0.1443 -0.1458  0.0950
  554loPI    C3 8851  11.813  14.131  10.288  0.0523 -0.2245 -0.0071
  554loPI   PO4 8852  12.149  13.989   9.756  0.0935 -0.0621  0.1062
  554loPI   GL1 8853  12.233  13.885   9.411 -0.1406  0.2611  0.2259
  554loPI   GL2 8854  12.336  13.593   9.410  0.1589 -0.1709  0.0795
  554loPI   C1A 8855  12.241  13.849   9.005  0.0721  0.1334  0.1923
  554loPI   C2A 8856  12.539  13.804   8.648  0.0696 -0.1694  0.0372
  554loPI   C3A 8857  12.772  14.017   8.328 -0.1434  0.1016 -0.2042
  554loPI   C4A 8858  12.800  14.108   7.934 -0.3235 -0.1640 -0.0620
  554loPI   C5A 8859  12.959  13.997   7.619  0.0873 -0.0068  0.1198
  554loPI   C6A 8860  12.718  14.047   7.182 -0.0901  0.3389 -0.0725
  554loPI   C1B 8861  12.421  13.290   9.125  0.2569 -0.2313 -0.0304
  554loPI   C2B 8862  12.443  13.223   8.716 -0.0779 -0.0542  0.1980
  554loPI   C3B 8863  12.691  13.362   8.431  0.4628 -0.3255  0.2763
  554loPI   C4B 8864  12.505  13.603   8.088  0.1212  0.1928 -0.1518
  555loPI    C1 8865  15.352   6.525   9.614 -0.0816 -0.1106 -0.0730
  555loPI    C2 8866  15.386   6.674   9.984  0.2084 -0.1002 -0.1015
  555loPI    C3 8867  15.224   6.313   9.928  0.0135 -0.0332  0.0187
  555loPI   PO4 8868  15.388   6.674   9.426 -0.0554 -0.0693 -0.4679
  555loPI   GL1 8869  15.496   6.892   9.036  0.0500  0.1270  0.0777
  555loPI   GL2 8870  15.237   7.148   9.121  0.4894  0.0413  0.1755
  555loPI   C1A 8871  15.530   6.696   8.682  0.0145 -0.0921  0.0389
  555loPI   C2A 8872  15.279   6.618   8.325  0.1485  0.1180  0.0976
  555loPI   C3A 8873  14.957   6.570   8.048 -0.1124 -0.2796 -0.0720
  555loPI   C4A 8874  14.739   6.329   7.674 -0.2196 -0.1354  0.3197
  555loPI   C5A 8875  14.607   6.476   7.225 -0.2167 -0.0138 -0.1243
  555loPI   C6A 8876  14.926   6.301   6.928  0.0741  0.2339 -0.0796
  555loPI   C1B 8877  15.423   7.273   8.680  0.0319 -0.4031 -0.1910
  555loPI   C2B 8878  15.542   7.070   8.265 -0.1739  0.3840 -0.1350
  555loPI   C3B 8879  15.270   7.017   8.010  0.1408 -0.0792  0.2639
  555loPI   C4B 8880  15.088   7.186   7.651 -0.2309  0.1133  0.3681
  556loPI    C1 8881  17.126   4.829  10.242  0.1634  0.1168  0.0113
  556loPI    C2 8882  17.315   4.680  10.562 -0.0993  0.1592  0.1895
  556loPI    C3 8883  16.916   4.659  10.537 -0.0721  0.0279 -0.2033
  556loPI   PO4 8884  17.231   4.733  10.014  0.0744  0.1501 -0.3540
  556loPI   GL1 8885  17.366   4.792   9.658 -0.2958  0.2740 -0.1640
  556loPI   GL2 8886  17.118   4.641   9.476 -0.1603  0.1851 -0.0599
  556loPI   C1A 8887  17.514   4.746   9.100  0.2196 -0.1540  0.0170
  556loPI   C2A 8888  17.400   5.001   8.649  0.2688  0.2864  0.0235
  556loPI   C3A 8889  17.202   5.184   8.361  0.2802  0.2734  0.2517
  556loPI   C4A 8890  17.190   5.314   7.896  0.1116 -0.0535 -0.0636
  556loPI   C5A 8891  17.149   5.129   7.535 -0.1389  0.1725 -0.1790
  556loPI   C6A 8892  17.391   5.035   7.143 -0.1369  0.5162 -0.1357
  556loPI   C1B 8893  17.043   4.571   9.012  0.1941 -0.1120 -0.0999
  556loPI   C2B 8894  17.257   4.523   8.670 -0.2229  0.2922  0.0694
  556loPI   C3B 8895  17.076   4.696   8.335  0.1047 -0.3637 -0.0762
  556loPI   C4B 8896  17.033   4.828   7.935  0.0284 -0.1780  0.0882
  557loPI    C1 8897   6.309   7.441  10.048  0.0323 -0.0913 -0.0864
  557loPI    C2 8898   6.645   7.383  10.258 -0.0225  0.1345  0.0664
  557loPI    C3 8899   6.325   7.548  10.433 -0.2401 -0.1471 -0.0578
  557loPI   PO4 8900   6.279   7.277   9.901  0.1029 -0.2720 -0.3125
  557loPI   GL1 8901   6.063   7.419   9.545 -0.2402 -0.0649  0.3380
  557loPI   GL2 8902   5.945   7.090   9.441 -0.1982 -0.1045 -0.0321
  557loPI   C1A 8903   5.892   7.765   9.239  0.3363 -0.0200 -0.3285
  557loPI   C2A 8904   5.662   7.885   8.857 -0.0610  0.0239 -0.0973
  557loPI   C3A 8905   5.445   7.955   8.495  0.1647  0.2742  0.0688
  557loPI   C4A 8906   5.251   8.033   8.089 -0.0890  0.0822 -0.3050
  557loPI   C5A 8907   4.915   8.087   7.846  0.5918 -0.1264  0.2675
  557loPI   C6A 8908   4.601   8.144   7.493  0.1360 -0.2616 -0.1033
  557loPI   C1B 8909   5.811   7.288   9.090  0.0142  0.0085 -0.2836
  557loPI   C2B 8910   5.662   7.401   8.702  0.3705  0.1311 -0.0998
  557loPI   C3B 8911   5.789   7.489   8.298  0.1026 -0.0408  0.2817
  557loPI   C4B 8912   5.391   7.535   8.008  0.2436  0.0766 -0.3581
  558loPI    C1 8913  17.617  12.590   9.734 -0.1564 -0.2220 -0.0813
  558loPI    C2 8914  17.298  12.794   9.605  0.1038  0.0737 -0.2723
  558loPI    C3 8915  17.516  12.935   9.908 -0.0284 -0.2031 -0.0439
  558loPI   PO4 8916  17.802  12.603   9.577 -0.0803  0.1211 -0.0399
  558loPI   GL1 8917  18.180  12.488   9.356  0.1239 -0.3894  0.2077
  558loPI   GL2 8918  18.355  12.192   9.427  0.0794  0.3259  0.2223
  558loPI   C1A 8919  18.318  12.495   9.007  0.0488 -0.2822  0.0484
  558loPI   C2A 8920  18.348  12.761   8.702  0.0534  0.1314 -0.2145
  558loPI   C3A 8921  18.293  13.015   8.396 -0.2516  0.1088 -0.0211
  558loPI   C4A 8922  18.372  13.491   8.234 -0.2046  0.0773 -0.2028
  558loPI   C5A 8923  18.459  13.610   7.802  0.1895 -0.1750 -0.0295
  558loPI   C6A 8924  18.282  13.438   7.384  0.2740  0.0261  0.1975
  558loPI   C1B 8925  18.230  11.929   9.013 -0.3157 -0.1306 -0.0344
  558loPI   C2B 8926  18.362  11.911   8.647 -0.2486  0.1215  0.3329
  558loPI   C3B 8927  18.483  12.004   8.236  0.0636  0.2435 -0.2192
  558loPI   C4B 8928  18.482  11.958   7.818  0.2222 -0.1092  0.1702
  559loPI    C1 8929   0.280   3.656  10.364  0.1367  0.2562  0.2410
  559loPI    C2 8930  -0.078   3.499  10.280  0.1645  0.3732 -0.1131
  559loPI    C3 8931   0.144   3.345  10.575 -0.1412  0.2494  0.0562
  559loPI   PO4 8932   0.199   3.906  10.272 -0.0488 -0.1278 -0.2292
  559loPI   GL1 8933   0.322   4.272  10.034  0.2300 -0.0241 -0.0451
  559loPI   GL2 8934   0.372   4.006   9.792 -0.0499  0.0041  0.1344
  559loPI   C1A 8935   0.167   4.614   9.778 -0.0721  0.3974 -0.1001
  559loPI   C2A 8936   0.340   4.744   9.433  0.0719 -0.1050 -0.0554
  559loPI   C3A 8937   0.260   4.669   8.951 -0.0564  0.3847  0.0817
  559loPI   C4A 8938   0.410   4.619   8.633 -0.1150  0.1256  0.3832
  559loPI   C5A 8939   0.597   4.640   8.188  0.1454  0.4656  0.1880
  559loPI   C6A 8940   0.522   4.646   7.728  0.1007 -0.2472  0.3080
  559loPI   C1B 8941   0.458   4.272   9.402 -0.0314  0.2892 -0.0226
  559loPI   C2B 8942   0.692   4.199   8.947 -0.1386  0.5572  0.3691
  559loPI   C3B 8943   0.802   4.234   8.636  0.0294  0.0096  0.0624
  559loPI   C4B 8944   0.871   4.174   8.232  0.0987  0.0504  0.3685
  560loPI    C1 8945   0.559   3.143  10.252  0.1129  0.1880 -0.2944
  560loPI    C2 8946   0.890   3.105  10.473 -0.0332  0.1631 -0.0769
  560loPI    C3 8947   0.552   2.923  10.586 -0.0307 -0.1137 -0.4918
  560loPI   PO4 8948   0.692   3.148   9.962  0.2375  0.0599 -0.0514
  560loPI   GL1 8949   0.781   2.892   9.680 -0.0306 -0.0866 -0.0377
  560loPI   GL2 8950   1.031   2.992   9.571  0.1693 -0.1930  0.0439
  560loPI   C1A 8951   0.524   3.215   9.280  0.1792 -0.1103 -0.2879
  560loPI   C2A 8952   0.483   3.150   8.882  0.4765 -0.2145  0.0773
  560loPI   C3A 8953   0.589   3.006   8.429  0.0323  0.0245  0.2937
  560loPI   C4A 8954   0.419   2.939   8.004  0.0223 -0.1297  0.1128
  560loPI   C5A 8955   0.578   2.824   7.492 -0.0441 -0.1391  0.0319
  560loPI   C6A 8956   0.917   2.820   7.225 -0.3262 -0.0576  0.3704
  560loPI   C1B 8957   0.910   2.876   9.225 -0.4133 -0.0539 -0.0395
  560loPI   C2B 8958   0.875   2.796   8.852 -0.0242  0.1722  0.4640
  560loPI   C3B 8959   1.051   2.708   8.375  0.2228 -0.1601  0.0305
  560loPI   C4B 8960   1.363   2.554   8.088 -0.0192 -0.1650 -0.1224
  561loPI    C1 8961   9.075   6.165  10.247  0.0184 -0.1875 -0.3047
  561loPI    C2 8962   8.766   5.988  10.430  0.0642 -0.0672 -0.1082
  561loPI    C3 8963   8.747   6.376  10.336  0.1838 -0.0418 -0.0296
  561loPI   PO4 8964   9.094   6.020  10.027 -0.2127  0.1175  0.1863
  561loPI   GL1 8965   8.985   6.116   9.625 -0.3058 -0.1260  0.2974
  561loPI   GL2 8966   8.998   5.918   9.438  0.1628 -0.1609  0.0231
  561loPI   C1A 8967   8.794   6.320   9.197 -0.2688 -0.0339 -0.1911
  561loPI   C2A 8968   8.972   6.473   8.861  0.4393 -0.0530  0.3959
  561loPI   C3A 8969   9.038   6.455   8.432 -0.0819  0.0910  0.3395
  561loPI   C4A 8970   9.015   6.418   7.995  0.4803 -0.3431 -0.1155
  561loPI   C5A 8971   8.843   6.473   7.522  0.2198  0.0134 -0.0600
  561loPI   C6A 8972   8.977   6.389   7.194 -0.0901 -0.0053 -0.3950
  561loPI   C1B 8973   9.228   6.114   9.103 -0.0740  0.2275  0.3082
  561loPI   C2B 8974   9.519   6.344   8.743  0.2934  0.1211 -0.4482
  561loPI   C3B 8975   9.457   6.164   8.336 -0.3137  0.0860  0.0499
  561loPI   C4B 8976   9.542   6.304   7.920  0.1374  0.2298  0.0315
  562loPI    C1 8977  14.427  11.128   9.548 -0.1324 -0.0204  0.1359
  562loPI    C2 8978  14.742  10.902   9.648  0.0958  0.1826 -0.1081
  562loPI    C3 8979  14.593  11.166   9.910 -0.1707 -0.2380  0.1780
  562loPI   PO4 8980  14.317  10.988   9.346  0.0248 -0.0150  0.0606
  562loPI   GL1 8981  14.286  11.081   8.924 -0.0657  0.0385  0.1326
  562loPI   GL2 8982  14.348  10.778   8.788  0.1756  0.0598  0.1305
  562loPI   C1A 8983  13.958  11.292   8.673 -0.1412  0.0250  0.0689
  562loPI   C2A 8984  13.732  11.527   8.332  0.0358 -0.2810  0.2155
  562loPI   C3A 8985  13.571  11.859   8.150 -0.2684 -0.1206 -0.2513
  562loPI   C4A 8986  13.817  12.045   7.684 -0.1341  0.2239  0.1625
  562loPI   C5A 8987  13.917  12.145   7.274  0.3965  0.1077 -0.0279
  562loPI   C6A 8988  13.864  12.565   7.103 -0.1648  0.0600 -0.0677
  562loPI   C1B 8989  14.151  10.855   8.493  0.1376  0.2956  0.2622
  562loPI   C2B 8990  14.092  10.826   8.024 -0.2375  0.1466 -0.3232
  562loPI   C3B 8991  13.990  10.484   7.758  0.3483  0.0320  0.0384
  562loPI   C4B 8992  13.800  10.318   7.340 -0.3980  0.2402 -0.1200
  563loPI    C1 8993   5.474   8.757  10.661  0.1357 -0.1149  0.0748
  563loPI    C2 8994   5.456   9.109  10.472 -0.0545 -0.1747 -0.0208
  563loPI    C3 8995   5.701   9.062  10.784  0.1430 -0.0274 -0.1519
  563loPI   PO4 8996   5.416   8.633  10.426 -0.0082  0.0449  0.1400
  563loPI   GL1 8997   5.162   8.596   9.987 -0.4845  0.0649 -0.4513
  563loPI   GL2 8998   5.368   8.816   9.953  0.2425  0.2337 -0.1866
  563loPI   C1A 8999   5.028   8.928   9.646  0.0189  0.0666 -0.3351
  563loPI   C2A 9000   5.113   8.939   9.209 -0.0330 -0.3873 -0.0278
  563loPI   C3A 9001   4.943   9.163   8.886 -0.1338  0.0224  0.0952
  563loPI   C4A 9002   4.768   9.268   8.399  0.2474 -0.0157  0.1290
  563loPI   C5A 9003   4.447   8.902   8.288  0.1138  0.2619 -0.0597
  563loPI   C6A 9004   4.338   8.457   8.338 -0.0663  0.1673  0.0834
  563loPI   C1B 9005   5.399   8.515   9.539 -0.0766  0.4777  0.1607
  563loPI   C2B 9006   5.394   8.357   9.157  0.1350 -0.2427 -0.2121
  563loPI   C3B 9007   5.368   8.528   8.686 -0.1515 -0.0539  0.0988
  563loPI   C4B 9008   5.428   8.651   8.293  0.4518  0.4040  0.0338
  564loPI    C1 9009  14.572   7.768   9.913  0.4662  0.0812 -0.0076
  564loPI    C2 9010  14.928   7.600   9.983  0.3612 -0.1433 -0.0046
  564loPI    C3 9011  14.601   7.371   9.956  0.1752  0.0851  0.2584
  564loPI   PO4 9012  14.620   7.949   9.567  0.0654  0.2393  0.0866
  564loPI   GL1 9013  14.853   7.980   9.148 -0.3163 -0.2763 -0.5755
  564loPI   GL2 9014  14.735   7.710   9.099 -0.3139 -0.1471 -0.1074
  564loPI   C1A 9015  14.860   8.007   8.692  0.2202 -0.0676 -0.1191
  564loPI   C2A 9016  14.785   7.741   8.248  0.3633  0.2726 -0.3584
  564loPI   C3A 9017  14.983   7.683   7.824 -0.1673  0.1916  0.0919
  564loPI   C4A 9018  14.872   7.659   7.398  0.0973 -0.0617  0.1027
  564loPI   C5A 9019  14.788   7.965   7.102 -0.1302  0.0504  0.1706
  564loPI   C6A 9020  14.959   7.992   6.681  0.0565 -0.3633  0.0775
  564loPI   C1B 9021  14.931   7.490   8.667  0.5582  0.2787 -0.0474
  564loPI   C2B 9022  15.235   7.478   8.216 -0.0960 -0.0310 -0.1834
  564loPI   C3B 9023  15.470   7.440   7.821  0.2857  0.1250 -0.0158
  564loPI   C4B 9024  15.535   7.588   7.534 -0.1204  0.1516  0.0996
  565loPI    C1 9025  11.258  10.105   9.353  0.3438 -0.1033 -0.1156
  565loPI    C2 9026  11.014   9.931   9.618 -0.1498  0.0768 -0.4374
  565loPI    C3 9027  11.357  10.097   9.741 -0.0675 -0.3839 -0.0101
  565loPI   PO4 9028  11.107  10.188   9.203  0.1047 -0.2132 -0.1413
  565loPI   GL1 9029  10.799  10.091   8.894  0.1828  0.1845 -0.3966
  565loPI   GL2 9030  10.523  10.111   8.814 -0.1519  0.0366  0.1340
  565loPI   C1A 9031  10.852   9.801   8.548  0.0283 -0.0057  0.1218
  565loPI   C2A 9032  10.784   9.891   8.083 -0.2155 -0.0887  0.3232
  565loPI   C3A 9033  10.704   9.987   7.673  0.2243  0.1352 -0.1344
  565loPI   C4A 9034  10.436  10.419   7.513 -0.0454  0.3116 -0.1621
  565loPI   C5A 9035  10.015  10.358   7.263 -0.2817 -0.1347 -0.1886
  565loPI   C6A 9036   9.695  10.025   7.167  0.1741 -0.2437  0.1071
  565loPI   C1B 9037  10.599  10.196   8.419  0.2524 -0.3193 -0.1579
  565loPI   C2B 9038  10.281  10.172   8.038  0.0240 -0.6108 -0.3412
  565loPI   C3B 9039   9.975  10.334   7.790  0.1881 -0.0162  0.1275
  565loPI   C4B 9040   9.563  10.359   7.529  0.3318  0.1227 -0.2555
  566loPI    C1 9041  11.660  14.755   9.686 -0.0184 -0.0316  0.0864
  566loPI    C2 9042  11.396  14.853   9.970  0.0344 -0.1584  0.1801
  566loPI    C3 9043  11.788  14.857  10.051  0.0499 -0.1893  0.1072
  566loPI   PO4 9044  11.531  14.572   9.556 -0.4038  0.0740 -0.0017
  566loPI   GL1 9045  11.493  14.634   9.080 -0.0955 -0.0030  0.0503
  566loPI   GL2 9046  11.397  14.961   9.082 -0.0371  0.5577  0.1157
  566loPI   C1A 9047  11.931  14.464   8.973  0.2152  0.0460 -0.3187
  566loPI   C2A 9048  12.013  14.203   8.564 -0.0956  0.0955  0.1055
  566loPI   C3A 9049  12.233  14.042   8.147 -0.0734 -0.2784 -0.0182
  566loPI   C4A 9050  12.378  13.937   7.730 -0.0930  0.0807 -0.1130
  566loPI   C5A 9051  12.603  13.634   7.445  0.1453 -0.1155 -0.0597
  566loPI   C6A 9052  13.061  13.473   7.288  0.2484  0.1754 -0.2631
  566loPI   C1B 9053  11.361  14.933   8.656 -0.0623 -0.1993  0.1555
  566loPI   C2B 9054  11.424  14.868   8.234 -0.1093 -0.0595 -0.1078
  566loPI   C3B 9055  11.483  14.959   7.723 -0.3796  0.0751  0.0385
  566loPI   C4B 9056  11.473  15.279   7.365 -0.4112 -0.0962 -0.0020
  567loPI    C1 9057   6.308  17.524   9.442 -0.1603  0.0345  0.3191
  567loPI    C2 9058   6.603  17.757   9.580  0.1531 -0.1062 -0.0930
  567loPI    C3 9059   6.689  17.409   9.403 -0.2555 -0.1012 -0.3149
  567loPI   PO4 9060   6.170  17.762   9.324 -0.0863 -0.4382 -0.0658
  567loPI   GL1 9061   6.169  17.965   8.913 -0.0143 -0.3079 -0.1887
  567loPI   GL2 9062   6.211  18.322   8.821 -0.1472 -0.3507 -0.2224
  567loPI   C1A 9063   5.909  17.723   8.600 -0.1682  0.0386  0.1276
  567loPI   C2A 9064   5.858  17.753   8.198  0.0846  0.4376  0.2145
  567loPI   C3A 9065   5.785  17.771   7.746 -0.0712 -0.2900  0.1682
  567loPI   C4A 9066   5.781  17.515   7.303 -0.1484  0.0990 -0.1383
  567loPI   C5A 9067   5.918  17.231   7.051 -0.0875  0.0762 -0.0467
  567loPI   C6A 9068   5.876  16.778   7.061  0.2716 -0.0409  0.0314
  567loPI   C1B 9069   6.486  18.526   8.460  0.0020 -0.1202 -0.1142
  567loPI   C2B 9070   6.507  18.488   8.029  0.0110  0.1136  0.0027
  567loPI   C3B 9071   6.652  18.234   7.770 -0.0918  0.1434  0.2750
  567loPI   C4B 9072   7.070  18.075   7.572 -0.1645  0.2061  0.2038
  568loPI    C1 9073  14.007   2.922   9.430  0.0866 -0.2568 -0.0903
  568loPI    C2 9074  13.654   2.921   9.243  0.0615 -0.0181 -0.0478
  568loPI    C3 9075  13.702   3.135   9.577  0.2190 -0.1283  0.0010
  568loPI   PO4 9076  14.056   2.615   9.339 -0.0952 -0.2383  0.2675
  568loPI   GL1 9077  14.230   2.707   8.949  0.4018 -0.2004  0.0631
  568loPI   GL2 9078  14.163   2.411   8.859 -0.0692  0.1063 -0.1393
  568loPI   C1A 9079  14.014   2.831   8.409 -0.0636 -0.2128 -0.1422
  568loPI   C2A 9080  13.676   3.112   8.312 -0.4116 -0.0307  0.1769
  568loPI   C3A 9081  13.440   3.164   7.988 -0.2590 -0.0749  0.2781
  568loPI   C4A 9082  13.359   2.939   7.614  0.1307 -0.0001 -0.3072
  568loPI   C5A 9083  13.410   2.882   7.146  0.0779  0.1789  0.3086
  568loPI   C6A 9084  13.609   2.604   6.754 -0.1813 -0.0742  0.1219
  568loPI   C1B 9085  14.123   2.370   8.322 -0.0783 -0.0393 -0.0988
  568loPI   C2B 9086  14.176   2.496   7.913  0.1562 -0.0089  0.2335
  568loPI   C3B 9087  13.968   2.581   7.479 -0.0811  0.1656 -0.0515
  568loPI   C4B 9088  14.001   2.546   7.071 -0.0466 -0.0216 -0.0401
  569loPI    C1 9089  17.349  14.957   9.298 -0.0642  0.1522  0.0040
  569loPI    C2 9090  17.354  14.777   9.655 -0.4738 -0.0842 -0.1020
  569loPI    C3 9091  17.019  14.951   9.524 -0.2510  0.2355 -0.2609
  569loPI   PO4 9092  17.530  15.106   9.248  0.0971  0.2309  0.0562
  569loPI   GL1 9093  17.523  15.189   8.902 -0.0834  0.1616 -0.2612
  569loPI   GL2 9094  17.441  15.583   8.877 -0.1084 -0.2208 -0.1979
  569loPI   C1A 9095  17.376  15.096   8.464 -0.1090 -0.0324  0.3078
  569loPI   C2A 9096  17.243  15.201   8.177  0.0106 -0.0511  0.0268
  569loPI   C3A 9097  17.099  15.090   7.759 -0.0825 -0.1171 -0.2534
  569loPI   C4A 9098  16.929  14.771   7.672  0.0337 -0.2207 -0.5465
  569loPI   C5A 9099  16.801  14.591   7.418 -0.1339 -0.4304 -0.2964
  569loPI   C6A 9100  16.869  14.877   7.084 -0.1894 -0.1243 -0.0614
  569loPI   C1B 9101  17.351  15.733   8.460  0.4133  0.0214 -0.1980
  569loPI   C2B 9102  17.304  15.683   8.104 -0.3529 -0.1491  0.0344
  569loPI   C3B 9103  17.160  15.585   7.705 -0.0578 -0.1768  0.2756
  569loPI   C4B 9104  17.079  15.349   7.318  0.1219  0.0740 -0.2628
  570loPI    C1 9105   5.528  10.965  10.633  0.1793 -0.2559 -0.2164
  570loPI    C2 9106   5.181  10.780  10.562  0.1186 -0.1327 -0.2424
  570loPI    C3 9107   5.340  10.773  10.929 -0.1829  0.2633 -0.0967
  570loPI   PO4 9108   5.549  11.119  10.409  0.0903  0.1334 -0.1371
  570loPI   GL1 9109   5.726  11.089  10.037  0.1784  0.0117  0.0410
  570loPI   GL2 9110   5.670  10.807   9.844  0.0526 -0.1337  0.2245
  570loPI   C1A 9111   5.373  11.219   9.742 -0.1619 -0.2687  0.3202
  570loPI   C2A 9112   5.188  11.396   9.380  0.0669 -0.1806 -0.1076
  570loPI   C3A 9113   5.298  11.573   8.913 -0.3263 -0.0319 -0.1544
  570loPI   C4A 9114   5.160  11.903   8.592 -0.1956 -0.2850 -0.2612
  570loPI   C5A 9115   5.519  11.996   8.336  0.1143 -0.1363  0.3278
  570loPI   C6A 9116   5.679  12.427   8.325  0.0758 -0.2479  0.3939
  570loPI   C1B 9117   5.608  10.920   9.484 -0.0079  0.0130 -0.2798
  570loPI   C2B 9118   5.602  11.218   9.212 -0.0116  0.1095  0.1084
  570loPI   C3B 9119   5.792  11.233   8.785  0.2356 -0.0143  0.3157
  570loPI   C4B 9120   5.599  11.462   8.517 -0.0542  0.0127  0.1153
  571loPI    C1 9121  15.203   0.257   9.444 -0.0454  0.1579 -0.0249
  571loPI    C2 9122  15.209   0.483   9.774  0.1638 -0.0379  0.1086
  571loPI    C3 9123  15.396   0.130   9.770  0.0042 -0.1225 -0.1607
  571loPI   PO4 9124  15.133   0.440   9.251 -0.2339 -0.0764 -0.0477
  571loPI   GL1 9125  15.157   0.633   8.909 -0.1171  0.1321  0.2938
  571loPI   GL2 9126  15.433   0.429   8.870  0.0547 -0.0832 -0.0394
  571loPI   C1A 9127  15.185   0.750   8.458 -0.1755  0.4131  0.0450
  571loPI   C2A 9128  15.344   0.665   8.018 -0.1059 -0.0005  0.0279
  571loPI   C3A 9129  15.240   0.676   7.505 -0.3027 -0.2922  0.0014
  571loPI   C4A 9130  14.984   0.906   7.107 -0.3190  0.0438  0.1061
  571loPI   C5A 9131  14.629   1.143   7.040 -0.1120  0.0242  0.0656
  571loPI   C6A 9132  14.314   1.059   6.773 -0.0163 -0.0772 -0.1655
  571loPI   C1B 9133  15.638   0.372   8.528 -0.4589 -0.3652  0.0576
  571loPI   C2B 9134  15.966   0.110   8.359  0.0900  0.3536  0.0339
  571loPI   C3B 9135  16.290  -0.096   8.195 -0.0645  0.3806  0.0594
  571loPI   C4B 9136  16.504  -0.430   7.971  0.0981  0.2056 -0.3493
  572loPI    C1 9137  18.446  10.771  10.088  0.0610  0.1660 -0.3658
  572loPI    C2 9138  18.650  11.115  10.080  0.0627  0.1781 -0.0034
  572loPI    C3 9139  18.385  11.047  10.372  0.1576 -0.1823  0.0025
  572loPI   PO4 9140  18.744  10.559   9.915 -0.1515 -0.0310  0.2195
  572loPI   GL1 9141  19.028  10.340   9.606  0.0020  0.1334  0.1704
  572loPI   GL2 9142  18.858  10.122   9.536  0.3139  0.2231  0.1304
  572loPI   C1A 9143  19.070  10.708   9.344 -0.1154 -0.0338  0.3162
  572loPI   C2A 9144  19.244  10.889   8.984 -0.2004 -0.1040 -0.1998
  572loPI   C3A 9145  19.255  10.790   8.556  0.2056  0.0197  0.1685
  572loPI   C4A 9146  19.313  10.747   8.030  0.1153  0.2857 -0.4173
  572loPI   C5A 9147  19.124  10.509   7.616  0.0696 -0.0512 -0.1307
  572loPI   C6A 9148  18.667  10.447   7.419 -0.1738  0.1992 -0.0875
  572loPI   C1B 9149  19.012  10.190   9.150  0.2777 -0.1188 -0.2756
  572loPI   C2B 9150  18.934  10.079   8.724 -0.2625 -0.3297  0.5088
  572loPI   C3B 9151  18.874   9.882   8.249 -0.3890  0.0695 -0.1107
  572loPI   C4B 9152  18.483   9.633   8.270 -0.1247  0.1559 -0.1479
  573loPI    C1 9153  18.046  11.430  10.327 -0.0289  0.0997  0.1008
  573loPI    C2 9154  18.436  11.511  10.290  0.0181 -0.1506  0.0238
  573loPI    C3 9155  18.264  11.519  10.651  0.1202 -0.1543  0.0730
  573loPI   PO4 9156  17.916  11.168  10.203 -0.1903 -0.1622  0.3247
  573loPI   GL1 9157  17.813  11.043   9.855  0.3774  0.0522 -0.0948
  573loPI   GL2 9158  18.074  10.890   9.806  0.4134 -0.1877 -0.0987
  573loPI   C1A 9159  17.669  11.026   9.444  0.0413  0.2524 -0.0875
  573loPI   C2A 9160  17.687  10.984   8.966  0.0057 -0.0171 -0.0484
  573loPI   C3A 9161  17.718  10.966   8.558  0.0473 -0.1343  0.0241
  573loPI   C4A 9162  18.029  11.200   8.396  0.3334 -0.1298  0.0839
  573loPI   C5A 9163  18.299  11.202   8.153 -0.0263 -0.1153 -0.2554
  573loPI   C6A 9164  18.730  11.289   7.903 -0.2000  0.1719  0.1850
  573loPI   C1B 9165  18.183  10.996   9.367  0.3305 -0.0283 -0.0876
  573loPI   C2B 9166  18.295  10.877   8.910 -0.0335 -0.2669 -0.0453
  573loPI   C3B 9167  18.499  10.906   8.528 -0.1216  0.3435 -0.0065
  573loPI   C4B 9168  18.719  10.882   8.227 -0.2512  0.3400  0.1169
  574loPI    C1 9169  16.058  15.518   9.565  0.0089  0.2966  0.1259
  574loPI    C2 9170  15.823  15.216   9.682  0.2087 -0.0194 -0.2619
  574loPI    C3 9171  16.016  15.437   9.955 -0.1871 -0.0347  0.0396
  574loPI   PO4 9172  16.141  15.258   9.310 -0.1503  0.1810  0.2220
  574loPI   GL1 9173  15.997  15.207   8.915  0.2790  0.1473 -0.2285
  574loPI   GL2 9174  15.986  15.531   8.834  0.1849 -0.3580  0.1982
  574loPI   C1A 9175  15.934  15.156   8.480 -0.1697  0.1059 -0.1693
  574loPI   C2A 9176  16.058  15.228   8.051 -0.1024 -0.2396  0.1855
  574loPI   C3A 9177  16.025  15.218   7.692  0.2897  0.1967  0.1211
  574loPI   C4A 9178  15.810  15.369   7.305 -0.1496  0.0468  0.1721
  574loPI   C5A 9179  15.506  15.424   7.095  0.2205 -0.2136 -0.2621
  574loPI   C6A 9180  15.302  15.645   6.951  0.2317 -0.0930  0.1405
  574loPI   C1B 9181  16.308  15.631   8.356 -0.1251 -0.0494  0.0326
  574loPI   C2B 9182  16.167  15.705   7.942  0.1412 -0.0706 -0.3278
  574loPI   C3B 9183  16.274  15.736   7.558 -0.2076 -0.1193 -0.1809
  574loPI   C4B 9184  16.252  15.596   7.103  0.1137 -0.0463 -0.0128
  575loPI    C1 9185  14.512  12.788   9.629  0.1125 -0.3711 -0.1231
  575loPI    C2 9186  14.589  12.511   9.907 -0.0938  0.2127  0.5449
  575loPI    C3 9187  14.211  12.606   9.819 -0.0406 -0.1745 -0.1746
  575loPI   PO4 9188  14.633  12.732   9.397  0.0834 -0.4820  0.2709
  575loPI   GL1 9189  14.413  12.598   8.982  0.3689 -0.0464  0.0681
  575loPI   GL2 9190  14.711  12.578   8.901 -0.1606  0.2712 -0.2280
  575loPI   C1A 9191  14.544  12.731   8.457 -0.1373  0.2084  0.0072
  575loPI   C2A 9192  14.676  12.623   8.006  0.1041  0.5495 -0.2007
  575loPI   C3A 9193  14.757  12.494   7.526 -0.1995 -0.3268  0.1782
  575loPI   C4A 9194  15.084  12.610   7.243 -0.1159 -0.0526 -0.0269
  575loPI   C5A 9195  15.311  12.663   6.865 -0.0880 -0.1156 -0.0371
  575loPI   C6A 9196  14.959  12.866   6.567 -0.1589  0.0073 -0.1583
  575loPI   C1B 9197  15.033  12.677   8.559  0.0340  0.1507 -0.0773
  575loPI   C2B 9198  15.199  12.821   8.232  0.0057  0.1340 -0.3847
  575loPI   C3B 9199  15.160  12.728   7.783  0.1423  0.2755  0.0823
  575loPI   C4B 9200  15.322  12.381   7.688  0.0087  0.1412 -0.0958
  576loPI    C1 9201  17.874   4.440   9.924  0.0574  0.1174 -0.1512
  576loPI    C2 9202  17.884   4.839   9.914  0.3487  0.1177  0.0216
  576loPI    C3 9203  17.704   4.652  10.218  0.2080  0.1156 -0.0619
  576loPI   PO4 9204  18.007   4.331   9.625 -0.1159 -0.1998 -0.0476
  576loPI   GL1 9205  18.268   4.493   9.235  0.2521  0.1235  0.0419
  576loPI   GL2 9206  17.918   4.397   9.151 -0.2200  0.4264 -0.5282
  576loPI   C1A 9207  18.267   4.327   8.802  0.1629 -0.3572  0.3406
  576loPI   C2A 9208  18.215   4.148   8.440 -0.1123 -0.0446  0.2974
  576loPI   C3A 9209  18.315   4.385   8.054 -0.1792 -0.0302  0.7411
  576loPI   C4A 9210  18.255   4.584   7.637 -0.4209 -0.1668 -0.0102
  576loPI   C5A 9211  18.370   5.030   7.479  0.1553  0.1922  0.1423
  576loPI   C6A 9212  18.448   5.297   7.171  0.0835 -0.0526 -0.0255
  576loPI   C1B 9213  17.784   4.487   8.758  0.1120  0.1345 -0.1079
  576loPI   C2B 9214  17.630   4.677   8.412 -0.2402  0.1304 -0.0208
  576loPI   C3B 9215  17.590   4.874   7.945  0.1515 -0.0110  0.2011
  576loPI   C4B 9216  17.644   4.805   7.516 -0.2964 -0.2380  0.2332
  577loPI    C1 9217   8.330  16.074   9.545 -0.0776 -0.0771  0.0813
  577loPI    C2 9218   8.337  16.397   9.781 -0.0887 -0.0372  0.0269
  577loPI    C3 9219   8.625  16.122   9.811 -0.0415  0.0119  0.0255
  577loPI   PO4 9220   8.307  16.213   9.253 -0.1484  0.0588  0.3109
  577loPI   GL1 9221   8.518  16.200   8.914 -0.1647 -0.1953  0.0766
  577loPI   GL2 9222   8.522  16.551   8.918  0.2559  0.3772 -0.1078
  577loPI   C1A 9223   8.323  16.242   8.505 -0.2080  0.1894  0.0460
  577loPI   C2A 9224   8.133  16.295   8.144 -0.0006 -0.2630 -0.4421
  577loPI   C3A 9225   8.184  16.361   7.695  0.1386 -0.1202 -0.4463
  577loPI   C4A 9226   8.405  16.178   7.289 -0.2495  0.1897  0.1411
  577loPI   C5A 9227   8.745  15.967   7.043  0.1585  0.0679 -0.1930
  577loPI   C6A 9228   9.024  15.681   7.121  0.0575  0.3890  0.0342
  577loPI   C1B 9229   8.190  16.746   8.760  0.4394  0.0656 -0.3687
  577loPI   C2B 9230   7.927  16.693   8.516 -0.0467 -0.0890 -0.0616
  577loPI   C3B 9231   7.801  17.020   8.195 -0.3299  0.3044  0.1470
  577loPI   C4B 9232   7.526  17.150   7.776 -0.0250 -0.0776  0.0878
  578loPI    C1 9233  13.213  18.605   9.251  0.2477  0.0738 -0.0245
  578loPI    C2 9234  13.007  18.427   9.544 -0.2275  0.0459 -0.3634
  578loPI    C3 9235  13.195  18.773   9.613 -0.1540 -0.0675  0.0263
  578loPI   PO4 9236  13.058  18.653   9.079 -0.2029  0.0949  0.0975
  578loPI   GL1 9237  13.177  18.451   8.789 -0.2396  0.0062  0.1086
  578loPI   GL2 9238  13.315  18.304   8.602 -0.1254  0.1386  0.0887
  578loPI   C1A 9239  13.019  18.727   8.432  0.0527 -0.1394  0.1767
  578loPI   C2A 9240  13.056  18.802   8.007 -0.2579 -0.0547 -0.1972
  578loPI   C3A 9241  13.178  18.873   7.546  0.1786  0.3891 -0.3454
  578loPI   C4A 9242  13.144  18.867   7.046 -0.1538 -0.0212  0.1287
  578loPI   C5A 9243  13.273  18.872   6.573  0.2210  0.2819 -0.0580
  578loPI   C6A 9244  13.546  19.048   6.113 -0.0720 -0.0934 -0.0248
  578loPI   C1B 9245  13.240  17.902   8.271 -0.0817 -0.2048 -0.0384
  578loPI   C2B 9246  13.276  17.731   7.928  0.3022  0.1976 -0.2227
  578loPI   C3B 9247  13.430  17.807   7.461  0.0346 -0.0854  0.0749
  578loPI   C4B 9248  13.109  17.686   7.183 -0.3421  0.1055  0.0074
  579loPI    C1 9249  15.732   6.143   9.444  0.1285  0.0682 -0.0625
  579loPI    C2 9250  16.017   5.993   9.206 -0.0471 -0.0295 -0.2138
  579loPI    C3 9251  16.118   6.196   9.536  0.1965 -0.3276 -0.0999
  579loPI   PO4 9252  15.503   5.961   9.372  0.1339 -0.1101  0.0810
  579loPI   GL1 9253  15.106   6.073   9.029  0.0944  0.0165 -0.1827
  579loPI   GL2 9254  15.396   6.369   9.021  0.5080  0.2979 -0.0787
  579loPI   C1A 9255  14.797   6.066   8.592  0.0605  0.2564  0.2199
  579loPI   C2A 9256  14.721   5.958   8.209 -0.1028  0.1400 -0.0453
  579loPI   C3A 9257  14.365   5.995   7.868  0.2168 -0.0087  0.2136
  579loPI   C4A 9258  14.382   5.813   7.513 -0.2671  0.0407  0.1839
  579loPI   C5A 9259  14.410   5.602   7.058 -0.0776 -0.4350 -0.0281
  579loPI   C6A 9260  14.685   5.432   6.678 -0.1446  0.1952  0.0473
  579loPI   C1B 9261  15.433   6.166   8.678 -0.3777 -0.0041  0.2733
  579loPI   C2B 9262  15.305   6.130   8.198  0.1522  0.0240  0.1257
  579loPI   C3B 9263  15.296   6.326   7.804 -0.2665  0.0429 -0.1423
  579loPI   C4B 9264  15.140   6.231   7.338 -0.2188  0.0594  0.0848
  580loPI    C1 9265  16.164   7.335   9.529 -0.0401  0.0987  0.0325
  580loPI    C2 9266  16.273   7.625   9.782 -0.1018  0.1423  0.0094
  580loPI    C3 9267  15.966   7.386   9.873 -0.3510  0.3836 -0.1830
  580loPI   PO4 9268  16.150   7.411   9.336  0.0922  0.3400 -0.0150
  580loPI   GL1 9269  16.406   7.343   9.028 -0.0617 -0.1256 -0.1342
  580loPI   GL2 9270  16.500   7.590   8.968 -0.2718  0.0221 -0.4566
  580loPI   C1A 9271  16.583   7.176   8.676 -0.0180  0.0546 -0.3216
  580loPI   C2A 9272  16.716   6.936   8.350 -0.3199  0.0550 -0.0964
  580loPI   C3A 9273  16.680   6.622   8.033  0.1092 -0.2181 -0.0262
  580loPI   C4A 9274  17.037   6.379   7.678 -0.2827 -0.0494  0.1613
  580loPI   C5A 9275  17.306   6.547   7.365 -0.1396  0.0982 -0.0664
  580loPI   C6A 9276  17.031   6.601   7.075  0.1564 -0.1007  0.2454
  580loPI   C1B 9277  16.382   7.567   8.496  0.2417  0.1616  0.1468
  580loPI   C2B 9278  16.240   7.448   8.171  0.0214 -0.3879  0.0973
  580loPI   C3B 9279  15.955   7.281   7.838 -0.0931 -0.2512 -0.1769
  580loPI   C4B 9280  15.639   7.083   7.600  0.0614  0.1662 -0.1532
  581loPI    C1 9281   6.431   3.865  10.188 -0.3303 -0.4618  0.0205
  581loPI    C2 9282   6.248   4.142  10.412 -0.0597 -0.2153 -0.0566
  581loPI    C3 9283   6.434   3.834  10.587  0.1092 -0.0500  0.0588
  581loPI   PO4 9284   6.220   3.840  10.014  0.0289 -0.2900  0.0295
  581loPI   GL1 9285   5.947   3.901   9.709  0.3360 -0.0329  0.1180
  581loPI   GL2 9286   6.014   4.143   9.449  0.1896 -0.3676  0.5080
  581loPI   C1A 9287   5.796   3.583   9.276  0.1663 -0.1021  0.1350
  581loPI   C2A 9288   5.616   3.652   8.840 -0.1052 -0.0897 -0.3324
  581loPI   C3A 9289   5.185   3.754   8.709 -0.2683 -0.1897 -0.3145
  581loPI   C4A 9290   4.902   4.074   8.546  0.1625  0.2608 -0.1013
  581loPI   C5A 9291   4.731   4.045   8.217  0.2238 -0.0385  0.3677
  581loPI   C6A 9292   4.436   3.809   8.066  0.1818  0.2730 -0.1189
  581loPI   C1B 9293   5.814   4.105   9.101  0.0527  0.0545  0.0397
  581loPI   C2B 9294   5.638   4.130   8.612 -0.4807  0.1315 -0.3554
  581loPI   C3B 9295   5.345   4.128   8.285  0.3438 -0.0096  0.0836
  581loPI   C4B 9296   5.037   4.278   7.849 -0.0466 -0.1006 -0.0545
  582loPI    C1 9297   3.652  18.803   9.553 -0.1094 -0.0413  0.0489
  582loPI    C2 9298   3.910  19.092   9.655 -0.0672  0.0396 -0.2729
  582loPI    C3 9299   3.758  18.850   9.936  0.0710  0.2287 -0.0308
  582loPI   PO4 9300   3.711  18.917   9.222  0.1339 -0.3048 -0.1626
  582loPI   GL1 9301   3.556  19.118   8.969 -0.3410  0.0792  0.0939
  582loPI   GL2 9302   3.834  19.403   8.855  0.4073  0.0298 -0.3002
  582loPI   C1A 9303   3.508  19.264   8.476  0.0939  0.0052 -0.1927
  582loPI   C2A 9304   3.728  19.485   8.066 -0.0582 -0.2394 -0.0173
  582loPI   C3A 9305   3.859  19.667   7.739  0.0584  0.1908 -0.2624
  582loPI   C4A 9306   3.754  19.900   7.428  0.1622  0.3324 -0.0853
  582loPI   C5A 9307   3.694  20.080   7.052  0.1868  0.4209  0.1561
  582loPI   C6A 9308   3.584  20.397   6.813  0.0413 -0.1158 -0.0572
  582loPI   C1B 9309   4.034  19.336   8.439 -0.1806 -0.0133  0.1350
  582loPI   C2B 9310   4.171  19.298   7.949  0.0513  0.1717  0.0795
  582loPI   C3B 9311   4.419  19.272   7.598  0.0218 -0.3123  0.5817
  582loPI   C4B 9312   4.386  19.258   7.161 -0.0916  0.1213  0.0657
  583loPI    C1 9313   1.269  15.404   9.750  0.0626 -0.3176  0.0618
  583loPI    C2 9314   0.904  15.441   9.909  0.0998  0.1458  0.0527
  583loPI    C3 9315   1.217  15.355  10.143 -0.0083 -0.2383  0.0625
  583loPI   PO4 9316   1.254  15.372   9.521  0.1206  0.3542  0.1814
  583loPI   GL1 9317   1.098  15.435   9.178 -0.2701 -0.2355  0.2723
  583loPI   GL2 9318   1.094  15.703   9.107 -0.1146 -0.1302 -0.0613
  583loPI   C1A 9319   0.882  15.198   8.820 -0.0832  0.1391  0.1106
  583loPI   C2A 9320   0.815  15.213   8.439  0.2795 -0.0764  0.1958
  583loPI   C3A 9321   0.925  15.151   8.051  0.0746  0.0807 -0.0815
  583loPI   C4A 9322   0.894  14.769   7.836 -0.0073  0.2155  0.1903
  583loPI   C5A 9323   0.993  14.501   7.525 -0.3459 -0.0371 -0.3510
  583loPI   C6A 9324   1.255  14.122   7.452 -0.0102  0.0541 -0.3458
  583loPI   C1B 9325   1.256  15.503   8.704 -0.0306  0.2370 -0.1776
  583loPI   C2B 9326   1.303  15.445   8.211 -0.1462 -0.0746  0.3731
  583loPI   C3B 9327   1.314  15.449   7.759  0.2384  0.1713 -0.0740
  583loPI   C4B 9328   0.985  15.296   7.394 -0.0557 -0.2121  0.3896
  584loPI    C1 9329   9.750   3.956   9.772  0.0714 -0.1747 -0.1669
  584loPI    C2 9330   9.981   3.646   9.872  0.1749  0.0331  0.2597
  584loPI    C3 9331   9.684   3.760  10.114  0.2696  0.3934  0.2126
  584loPI   PO4 9332   9.819   3.918   9.466 -0.0128  0.0321 -0.1723
  584loPI   GL1 9333   9.778   3.915   9.054 -0.0030 -0.1713 -0.0458
  584loPI   GL2 9334   9.904   4.226   8.983  0.1247  0.2319 -0.0201
  584loPI   C1A 9335   9.906   3.890   8.616  0.0538 -0.0416  0.1905
  584loPI   C2A 9336   9.810   3.984   8.167  0.2187 -0.2815 -0.0106
  584loPI   C3A 9337   9.788   3.934   7.714  0.3297 -0.1588  0.0532
  584loPI   C4A 9338   9.698   3.714   7.372  0.0025  0.0261 -0.2374
  584loPI   C5A 9339   9.322   3.919   7.241  0.0317  0.0285 -0.2489
  584loPI   C6A 9340   9.355   4.204   6.916 -0.0710  0.0080  0.0782
  584loPI   C1B 9341   9.965   4.459   8.615  0.0673 -0.2499  0.1726
  584loPI   C2B 9342  10.003   4.481   8.204  0.0026  0.1864  0.1727
  584loPI   C3B 9343   9.824   4.427   7.806 -0.0796  0.1315 -0.4562
  584loPI   C4B 9344   9.929   4.676   7.446 -0.1204  0.1904 -0.0728
  585loPI    C1 9345   3.875   1.989  10.080  0.0547 -0.0713  0.0524
  585loPI    C2 9346   3.881   1.737  10.391 -0.0892  0.0868  0.1849
  585loPI    C3 9347   3.982   2.121  10.442 -0.0023  0.0879  0.0119
  585loPI   PO4 9348   3.722   1.910   9.957  0.0841 -0.0555  0.2879
  585loPI   GL1 9349   3.884   1.820   9.558 -0.1723 -0.1419 -0.1098
  585loPI   GL2 9350   4.234   1.719   9.624 -0.5320 -0.3796 -0.1592
  585loPI   C1A 9351   3.824   2.186   9.295 -0.1135 -0.0746  0.0709
  585loPI   C2A 9352   3.526   2.385   8.940  0.0776 -0.0191  0.1533
  585loPI   C3A 9353   3.299   2.435   8.611 -0.0578 -0.0406  0.2063
  585loPI   C4A 9354   3.327   2.555   8.297  0.0747 -0.0491  0.0316
  585loPI   C5A 9355   3.339   3.021   8.120 -0.2632 -0.1667  0.2488
  585loPI   C6A 9356   3.171   3.243   7.819 -0.0621 -0.0962  0.1961
  585loPI   C1B 9357   4.178   1.862   9.157  0.0916 -0.3352 -0.1494
  585loPI   C2B 9358   3.793   1.785   8.923  0.4177  0.3053  0.1647
  585loPI   C3B 9359   3.451   1.928   8.593  0.1098  0.1772  0.0383
  585loPI   C4B 9360   3.359   1.918   8.141 -0.2473 -0.0280  0.1121
  586loPI    C1 9361   4.761   3.935  10.726 -0.1901 -0.1759 -0.0831
  586loPI    C2 9362   4.493   3.721  10.933 -0.2360  0.0225  0.0653
  586loPI    C3 9363   4.667   4.041  11.100  0.0712 -0.0851 -0.0414
  586loPI   PO4 9364   4.730   3.955  10.562 -0.0989 -0.1428  0.2845
  586loPI   GL1 9365   4.824   3.982  10.176  0.1073 -0.0302  0.1188
  586loPI   GL2 9366   4.978   4.059   9.958  0.0844  0.0996  0.2348
  586loPI   C1A 9367   4.515   3.987   9.731 -0.0974  0.3717  0.0694
  586loPI   C2A 9368   4.452   3.967   9.294  0.5386 -0.2628 -0.1309
  586loPI   C3A 9369   4.397   4.146   8.827 -0.2385  0.4287  0.0512
  586loPI   C4A 9370   4.316   4.463   8.473 -0.2098 -0.3680 -0.3887
  586loPI   C5A 9371   4.517   4.476   8.080 -0.2061 -0.1094  0.0436
  586loPI   C6A 9372   4.793   4.701   7.835  0.0377 -0.1653 -0.1223
  586loPI   C1B 9373   5.099   4.109   9.549 -0.0350 -0.2069 -0.0794
  586loPI   C2B 9374   4.928   4.021   9.140 -0.1333  0.1331  0.1397
  586loPI   C3B 9375   4.681   3.743   8.908  0.2702  0.2795  0.0137
  586loPI   C4B 9376   4.645   3.476   8.484 -0.0680 -0.0004  0.0990
  587loPI    C1 9377   7.626   0.463   9.999 -0.0045 -0.1984  0.0679
  587loPI    C2 9378   8.023   0.500  10.031 -0.0434  0.3313  0.0241
  587loPI    C3 9379   7.799   0.456  10.359  0.0411  0.1290  0.0557
  587loPI   PO4 9380   7.592   0.505   9.750  0.0034  0.0944  0.1314
  587loPI   GL1 9381   7.950   0.381   9.305 -0.0137 -0.0325  0.1298
  587loPI   GL2 9382   7.810   0.610   9.250  0.0031 -0.3575  0.3523
  587loPI   C1A 9383   7.846   0.340   8.836  0.0347 -0.4583 -0.1542
  587loPI   C2A 9384   7.887   0.152   8.404 -0.0661  0.0745 -0.0174
  587loPI   C3A 9385   7.863   0.311   8.026 -0.0973  0.0734  0.0861
  587loPI   C4A 9386   7.550   0.283   7.784 -0.3281  0.0968 -0.0880
  587loPI   C5A 9387   7.337   0.596   7.421  0.1654 -0.1080  0.2661
  587loPI   C6A 9388   6.996   0.765   7.118  0.1085  0.3889 -0.1047
  587loPI   C1B 9389   7.641   0.822   8.816  0.4769  0.1763  0.2087
  587loPI   C2B 9390   7.474   0.626   8.467  0.0123  0.0007 -0.1230
  587loPI   C3B 9391   7.434   0.256   8.300  0.0337 -0.0558 -0.1451
  587loPI   C4B 9392   7.236  -0.078   8.057  0.1515 -0.2368 -0.0188
  588loPI    C1 9393  18.384  12.824   9.721 -0.0079  0.0868  0.1208
  588loPI    C2 9394  18.035  12.892   9.904 -0.0637  0.2110 -0.0302
  588loPI    C3 9395  18.362  12.815  10.120 -0.1793  0.1168  0.1128
  588loPI   PO4 9396  18.357  13.023   9.567 -0.1865 -0.1610 -0.2271
  588loPI   GL1 9397  18.404  13.101   9.141  0.0411  0.3890  0.3047
  588loPI   GL2 9398  18.021  12.932   9.143 -0.1686  0.0911 -0.2511
  588loPI   C1A 9399  18.575  13.181   8.813 -0.1043  0.1947  0.1112
  588loPI   C2A 9400  18.731  13.341   8.526 -0.2292 -0.3062 -0.0673
  588loPI   C3A 9401  18.834  13.356   8.097 -0.4090 -0.4691  0.0227
  588loPI   C4A 9402  18.948  13.644   7.832 -0.1583  0.2117 -0.0299
  588loPI   C5A 9403  18.889  13.772   7.467  0.2546  0.0752  0.1683
  588loPI   C6A 9404  18.578  13.840   7.116  0.1091  0.1545  0.1663
  588loPI   C1B 9405  17.855  12.858   8.804  0.1426  0.1582  0.0217
  588loPI   C2B 9406  17.773  12.893   8.345 -0.3551  0.0668 -0.0839
  588loPI   C3B 9407  18.040  12.883   7.906 -0.2235 -0.0858  0.0265
  588loPI   C4B 9408  18.205  13.236   7.875  0.1843  0.1172  0.0823
  589loPI    C1 9409   8.029  10.688  10.466 -0.0441 -0.0210  0.0571
  589loPI    C2 9410   7.857  10.607  10.818 -0.3305  0.2375 -0.0183
  589loPI    C3 9411   8.119  10.908  10.788 -0.0133 -0.0255  0.0516
  589loPI   PO4 9412   7.830  10.591  10.229 -0.0025  0.0832 -0.0418
  589loPI   GL1 9413   7.781  10.668   9.806  0.0460  0.2299  0.0205
  589loPI   GL2 9414   7.978  10.742   9.518 -0.0794  0.0254 -0.1827
  589loPI   C1A 9415   7.523  10.704   9.452 -0.3087  0.1430 -0.0406
  589loPI   C2A 9416   7.262  10.837   9.079  0.2000 -0.3726 -0.2732
  589loPI   C3A 9417   7.189  10.968   8.635  0.1130 -0.2677 -0.1396
  589loPI   C4A 9418   7.188  11.105   8.320 -0.1556  0.0671  0.4041
  589loPI   C5A 9419   7.422  11.311   7.909  0.1750  0.1161 -0.1130
  589loPI   C6A 9420   7.471  11.575   7.597  0.0887 -0.0780  0.2061
  589loPI   C1B 9421   7.943  10.812   9.108 -0.0924 -0.3484  0.1303
  589loPI   C2B 9422   7.805  10.935   8.712  0.2478 -0.0592  0.4174
  589loPI   C3B 9423   7.693  11.048   8.370  0.1688 -0.0275  0.0104
  589loPI   C4B 9424   7.837  11.048   7.952 -0.3063  0.0859  0.2608
  590loPI    C1 9425  13.190   7.331   9.349 -0.0232  0.0268 -0.0245
  590loPI    C2 9426  13.070   7.712   9.335  0.1124  0.0735  0.0668
  590loPI    C3 9427  12.970   7.483   9.647  0.1020  0.0590  0.0527
  590loPI   PO4 9428  13.430   7.321   9.325 -0.0143  0.2443 -0.0168
  590loPI   GL1 9429  13.707   7.428   8.996  0.0402 -0.0301  0.1030
  590loPI   GL2 9430  13.367   7.557   8.918 -0.1305  0.1101  0.0862
  590loPI   C1A 9431  13.993   7.538   8.639 -0.0417  0.1146  0.0010
  590loPI   C2A 9432  14.045   7.704   8.293 -0.3535  0.1041  0.2754
  590loPI   C3A 9433  14.260   7.748   8.051  0.1030  0.3179  0.0140
  590loPI   C4A 9434  14.447   8.039   7.695  0.2448  0.0091 -0.0870
  590loPI   C5A 9435  14.439   8.202   7.360  0.1657 -0.1802  0.2900
  590loPI   C6A 9436  14.379   8.197   6.968  0.0002  0.0184  0.1004
  590loPI   C1B 9437  13.112   7.717   8.558  0.1825  0.0268 -0.1633
  590loPI   C2B 9438  13.130   7.716   8.189  0.1048  0.0431 -0.1220
  590loPI   C3B 9439  13.276   7.676   7.781  0.1020 -0.0679  0.0190
  590loPI   C4B 9440  13.485   7.643   7.372  0.0731  0.2871  0.0925
  591POPI    C1 9441  17.655   7.271   9.197  0.1425 -0.0965 -0.0914
  591POPI    C2 9442  17.419   7.516   9.407  0.0265 -0.2035 -0.0957
  591POPI    C3 9443  17.811   7.498   9.487  0.0235 -0.0693 -0.0482
  591POPI   PO4 9444  17.561   7.033   9.154 -0.1406 -0.0150 -0.1153
  591POPI   GL1 9445  17.515   6.971   8.753  0.0052  0.0106  0.3429
  591POPI   GL2 9446  17.663   7.277   8.661  0.4980 -0.1635 -0.0743
  591POPI   C1A 9447  17.492   6.868   8.350 -0.2060  0.0399 -0.1043
  591POPI   D2A 9448  17.692   7.015   7.833  0.2701  0.0380 -0.1851
  591POPI   C3A 9449  17.508   7.417   7.731  0.1485 -0.3230  0.2279
  591POPI   C4A 9450  17.428   7.753   7.560  0.0706 -0.1563 -0.4227
  591POPI   C1B 9451  17.709   7.440   8.248  0.1606 -0.0569  0.2834
  591POPI   C2B 9452  17.830   7.772   7.869  0.2387 -0.3711 -0.0777
  591POPI   C3B 9453  17.926   8.013   7.457 -0.1126 -0.0514  0.1440
  591POPI   C4B 9454  18.173   8.196   7.142  0.1055 -0.1262  0.2303
  592POPI    C1 9455   7.750   7.238   9.874  0.1409  0.0120  0.0983
  592POPI    C2 9456   7.735   7.483  10.190 -0.1339  0.0487  0.0591
  592POPI    C3 9457   7.576   7.117  10.213 -0.3077  0.1127 -0.0881
  592POPI   PO4 9458   7.668   7.474   9.704 -0.1912 -0.0420  0.3089
  592POPI   GL1 9459   7.870   7.635   9.375  0.3335 -0.2787 -0.1582
  592POPI   GL2 9460   8.145   7.460   9.252  0.2186 -0.1434  0.2786
  592POPI   C1A 9461   7.970   7.988   9.212 -0.2187 -0.0275  0.3206
  592POPI   D2A 9462   7.789   8.334   8.929  0.0308  0.0575  0.1798
  592POPI   C3A 9463   7.921   8.486   8.545  0.4789  0.2604  0.0813
  592POPI   C4A 9464   7.772   8.607   8.128 -0.1837  0.0485  0.2871
  592POPI   C1B 9465   7.977   7.527   8.821  0.3851  0.0661  0.0617
  592POPI   C2B 9466   7.780   7.480   8.474 -0.0520  0.0062  0.2316
  592POPI   C3B 9467   7.457   7.680   8.129  0.1854 -0.3618 -0.0828
  592POPI   C4B 9468   7.397   8.073   7.905 -0.1734  0.1230  0.0426
  593POPI    C1 9469  14.120   7.932   9.879  0.1569 -0.0850 -0.0252
  593POPI    C2 9470  13.840   7.653   9.944  0.0059  0.0982  0.1251
  593POPI    C3 9471  14.131   7.711  10.212  0.0666  0.0517  0.0698
  593POPI   PO4 9472  14.113   7.895   9.551  0.0658  0.4003  0.3955
  593POPI   GL1 9473  14.299   7.957   9.191  0.3410  0.0535 -0.2671
  593POPI   GL2 9474  14.201   7.661   9.025  0.2756  0.0134 -0.2132
  593POPI   C1A 9475  14.514   8.285   8.872 -0.0381  0.1506  0.1211
  593POPI   D2A 9476  14.775   8.569   8.642 -0.3335  0.2923 -0.3799
  593POPI   C3A 9477  14.852   8.407   8.354  0.0523 -0.0766  0.1967
  593POPI   C4A 9478  15.074   8.211   8.073  0.0326  0.0779 -0.1735
  593POPI   C1B 9479  14.412   7.824   8.674  0.2800 -0.1649  0.0873
  593POPI   C2B 9480  14.364   8.099   8.415 -0.2212 -0.1657  0.2259
  593POPI   C3B 9481  14.070   8.220   8.094 -0.0771  0.1625  0.1586
  593POPI   C4B 9482  13.936   7.926   7.708 -0.3097  0.2366  0.2046
  594POPI    C1 9483  19.371   0.739   9.904 -0.3351 -0.0067 -0.1289
  594POPI    C2 9484  19.688   0.497   9.877 -0.1599  0.2384 -0.3166
  594POPI    C3 9485  19.330   0.347   9.971 -0.0281 -0.0710 -0.2945
  594POPI   PO4 9486  19.426   0.890   9.704  0.0281 -0.1258  0.0301
  594POPI   GL1 9487  19.289   1.004   9.358 -0.1537  0.0008  0.1457
  594POPI   GL2 9488  19.030   1.069   9.241  0.3041  0.1790 -0.3014
  594POPI   C1A 9489  19.491   1.079   8.990 -0.1124 -0.3398  0.1243
  594POPI   D2A 9490  19.678   1.322   8.692  0.2975 -0.0698 -0.2785
  594POPI   C3A 9491  19.464   1.644   8.394  0.0676  0.3098  0.1690
  594POPI   C4A 9492  19.229   1.637   8.034 -0.1221  0.1978 -0.1315
  594POPI   C1B 9493  19.036   1.012   8.820 -0.2072 -0.0172 -0.1159
  594POPI   C2B 9494  19.260   1.028   8.506 -0.0802  0.1314 -0.0939
  594POPI   C3B 9495  19.457   1.202   8.116 -0.3234 -0.1328  0.0635
  594POPI   C4B 9496  19.811   1.157   7.880  0.1739 -0.1237  0.0390
  595POPI    C1 9497  15.368  15.416   9.578 -0.1829  0.1532 -0.2042
  595POPI    C2 9498  15.337  15.814   9.601  0.1495  0.1719 -0.0189
  595POPI    C3 9499  15.574  15.617   9.856 -0.1402 -0.1636 -0.0014
  595POPI   PO4 9500  15.178  15.390   9.311  0.2659  0.0770  0.3843
  595POPI   GL1 9501  15.171  15.352   8.768  0.1517  0.0948  0.1380
  595POPI   GL2 9502  15.443  15.487   8.777 -0.1614 -0.2236  0.2259
  595POPI   C1A 9503  15.087  15.631   8.400  0.0329  0.1284 -0.1570
  595POPI   D2A 9504  15.165  15.710   8.042  0.2816 -0.3123  0.2952
  595POPI   C3A 9505  14.957  15.679   7.729  0.0207 -0.1818 -0.3814
  595POPI   C4A 9506  14.998  15.440   7.316 -0.0278 -0.2782  0.0260
  595POPI   C1B 9507  15.466  15.285   8.325  0.1315  0.3608  0.1208
  595POPI   C2B 9508  15.510  15.131   7.950 -0.0551  0.0192  0.1696
  595POPI   C3B 9509  15.457  15.165   7.544 -0.0920  0.1523 -0.0091
  595POPI   C4B 9510  15.402  14.952   7.183  0.0827 -0.0041 -0.2065
  596POPI    C1 9511  12.960  14.636   9.528  0.0381  0.2008 -0.0195
  596POPI    C2 9512  12.915  14.245   9.457  0.0485  0.1999 -0.0210
  596POPI    C3 9513  13.033  14.370   9.818  0.1557  0.1951 -0.0539
  596POPI   PO4 9514  12.737  14.722   9.365 -0.0535 -0.3416  0.2549
  596POPI   GL1 9515  12.893  14.871   8.953  0.3117  0.6151 -0.0665
  596POPI   GL2 9516  12.877  15.177   8.961  0.0666  0.1211 -0.4479
  596POPI   C1A 9517  13.047  14.958   8.513  0.0608  0.2775 -0.0286
  596POPI   D2A 9518  13.239  15.007   8.116  0.1306 -0.0571  0.0101
  596POPI   C3A 9519  13.256  15.043   7.703  0.1469 -0.2660  0.3021
  596POPI   C4A 9520  13.284  15.042   7.274 -0.0192  0.1514  0.2183
  596POPI   C1B 9521  12.977  15.476   8.739  0.3067  0.2256  0.1892
  596POPI   C2B 9522  13.216  15.540   8.503  0.1472 -0.1537  0.3720
  596POPI   C3B 9523  13.447  15.541   8.098  0.0770 -0.2146 -0.0121
  596POPI   C4B 9524  13.400  15.548   7.653 -0.3357  0.1181 -0.0168
  597POPI    C1 9525  16.643  18.029   9.616  0.0312 -0.2026 -0.0977
  597POPI    C2 9526  17.032  17.973   9.543  0.1023  0.0911  0.0403
  597POPI    C3 9527  16.895  17.961   9.919  0.0478  0.3782  0.0323
  597POPI   PO4 9528  16.499  18.058   9.457  0.1164  0.1122 -0.1103
  597POPI   GL1 9529  16.544  18.100   9.067 -0.0472 -0.1887 -0.0071
  597POPI   GL2 9530  16.142  18.180   8.989 -0.0348  0.3334  0.0782
  597POPI   C1A 9531  16.419  17.839   8.763 -0.0798  0.0772 -0.3108
  597POPI   D2A 9532  16.559  17.428   8.540 -0.1213  0.3544 -0.2048
  597POPI   C3A 9533  16.425  17.205   8.110  0.2791 -0.2076  0.0989
  597POPI   C4A 9534  16.422  17.308   7.623  0.3134  0.1555  0.0111
  597POPI   C1B 9535  16.065  18.147   8.562  0.2444 -0.1893  0.2432
  597POPI   C2B 9536  15.999  18.084   8.052 -0.3008 -0.4557 -0.3022
  597POPI   C3B 9537  16.066  18.166   7.629 -0.0538  0.0212  0.0186
  597POPI   C4B 9538  16.183  18.146   7.195 -0.3304 -0.1103 -0.4461
  598POPI    C1 9539  15.752  17.212   9.420 -0.1928  0.0133 -0.2549
  598POPI    C2 9540  15.406  17.196   9.620 -0.0707 -0.0898 -0.0483
  598POPI    C3 9541  15.751  17.126   9.811  0.0542 -0.1204 -0.2813
  598POPI   PO4 9542  15.661  17.082   9.198 -0.1846 -0.0477 -0.0634
  598POPI   GL1 9543  15.478  16.889   8.827 -0.2040 -0.1983 -0.3120
  598POPI   GL2 9544  15.768  16.874   8.720  0.0170 -0.1654  0.2422
  598POPI   C1A 9545  15.174  16.718   8.522  0.2313  0.2987 -0.3283
  598POPI   D2A 9546  15.281  16.604   8.086  0.0427  0.0938  0.1999
  598POPI   C3A 9547  15.116  16.738   7.663  0.0227  0.0551 -0.0158
  598POPI   C4A 9548  14.741  16.728   7.386  0.0348  0.3343 -0.4182
  598POPI   C1B 9549  15.644  16.716   8.336 -0.0018  0.0303  0.0766
  598POPI   C2B 9550  15.613  16.902   7.903 -0.2887 -0.0780  0.2917
  598POPI   C3B 9551  15.602  16.903   7.480  0.2683  0.5979  0.2225
  598POPI   C4B 9552  15.674  16.896   7.029 -0.0006 -0.5314 -0.0368
  599POPI    C1 9553   8.393  14.586   9.905  0.0634 -0.1536  0.1182
  599POPI    C2 9554   8.465  14.879  10.168 -0.1256 -0.1959  0.2190
  599POPI    C3 9555   8.599  14.508  10.239  0.0370 -0.1542  0.1344
  599POPI   PO4 9556   8.454  14.649   9.709  0.0439 -0.0699  0.5120
  599POPI   GL1 9557   8.370  14.517   9.327  0.1684 -0.2508  0.1373
  599POPI   GL2 9558   8.328  14.648   9.071 -0.2434  0.0424  0.2015
  599POPI   C1A 9559   8.716  14.305   9.032  0.0899 -0.3145  0.2454
  599POPI   D2A 9560   9.082  14.033   8.912  0.0159 -0.2397 -0.2116
  599POPI   C3A 9561   9.263  13.928   8.505  0.2443  0.0969  0.3094
  599POPI   C4A 9562   9.144  13.615   8.191 -0.1342 -0.2607  0.1147
  599POPI   C1B 9563   8.192  14.579   8.620 -0.0009 -0.0559  0.2776
  599POPI   C2B 9564   8.031  14.533   8.139 -0.4238 -0.0765 -0.1018
  599POPI   C3B 9565   8.097  14.605   7.739 -0.2635 -0.2978 -0.1898
  599POPI   C4B 9566   8.077  14.925   7.477  0.1084  0.1033  0.0853
  600POPI    C1 9567   3.771  14.626   9.784  0.0224  0.0177  0.0642
  600POPI    C2 9568   3.702  14.237   9.724 -0.2282  0.0768 -0.0448
  600POPI    C3 9569   4.056  14.395   9.626 -0.1837 -0.0897 -0.1565
  600POPI   PO4 9570   3.514  14.703   9.607 -0.2522 -0.2553  0.1856
  600POPI   GL1 9571   3.260  14.752   9.209  0.1766 -0.2982  0.0124
  600POPI   GL2 9572   3.399  14.489   9.064  0.0142 -0.1560 -0.1613
  600POPI   C1A 9573   3.088  15.011   8.873 -0.0919 -0.3638  0.1639
  600POPI   D2A 9574   2.802  15.264   8.623  0.2901 -0.4782  0.0861
  600POPI   C3A 9575   2.635  15.650   8.471  0.0008  0.2335  0.1511
  600POPI   C4A 9576   2.537  15.674   8.079  0.0466 -0.0353 -0.3537
  600POPI   C1B 9577   3.206  14.368   8.632 -0.0893  0.2413  0.1434
  600POPI   C2B 9578   3.008  14.505   8.201 -0.0480  0.0628 -0.0571
  600POPI   C3B 9579   3.030  14.317   7.819 -0.2227  0.0647  0.0149
  600POPI   C4B 9580   3.203  14.524   7.482  0.1843 -0.1880 -0.0525
  601POPI    C1 9581  14.881  14.448   9.484 -0.0878 -0.3844  0.1756
  601POPI    C2 9582  14.852  14.066   9.597 -0.3671 -0.3674  0.1685
  601POPI    C3 9583  14.543  14.314   9.652 -0.1831 -0.1391  0.1840
  601POPI   PO4 9584  14.951  14.369   9.190  0.1520  0.2015 -0.0007
  601POPI   GL1 9585  15.040  14.206   8.816 -0.3745 -0.0523 -0.0927
  601POPI   GL2 9586  15.325  14.337   8.685 -0.1764  0.2295 -0.0734
  601POPI   C1A 9587  14.838  14.088   8.433 -0.0595 -0.3350  0.3871
  601POPI   D2A 9588  14.942  14.022   8.071  0.0417 -0.2966 -0.0462
  601POPI   C3A 9589  15.244  14.207   7.701  0.1148  0.0498 -0.0047
  601POPI   C4A 9590  15.489  13.960   7.354  0.0213  0.0147 -0.2589
  601POPI   C1B 9591  15.238  14.515   8.308  0.0347 -0.0226  0.1184
  601POPI   C2B 9592  15.239  14.741   7.898  0.0499  0.0959 -0.4065
  601POPI   C3B 9593  15.379  14.683   7.555  0.0961 -0.0425  0.0236
  601POPI   C4B 9594  15.309  14.467   7.154 -0.3894  0.1669  0.0821
  602POPI    C1 9595  10.239  18.554   9.363  0.4590 -0.0454  0.0980
  602POPI    C2 9596  10.225  18.154   9.352  0.0765 -0.0405  0.2638
  602POPI    C3 9597  10.066  18.351   9.661  0.1346  0.2469  0.1144
  602POPI   PO4 9598  10.153  18.729   9.211 -0.1096  0.1989 -0.1635
  602POPI   GL1 9599  10.171  18.890   8.812  0.2172 -0.3150 -0.2983
  602POPI   GL2 9600   9.986  19.197   8.831 -0.2005 -0.2070 -0.3527
  602POPI   C1A 9601  10.024  18.974   8.324  0.3095 -0.1149  0.0747
  602POPI   D2A 9602   9.825  19.014   7.938 -0.1589  0.2902  0.1086
  602POPI   C3A 9603   9.875  18.824   7.575 -0.1390  0.1198  0.1964
  602POPI   C4A 9604   9.638  18.781   7.275 -0.0593  0.0854  0.1793
  602POPI   C1B 9605  10.414  19.225   8.541 -0.1378  0.0288  0.2619
  602POPI   C2B 9606  10.623  19.097   8.201 -0.3327 -0.0280 -0.1426
  602POPI   C3B 9607  10.773  19.038   7.779  0.0271  0.2941 -0.0649
  602POPI   C4B 9608  10.993  18.881   7.367 -0.2448  0.2783 -0.0664
  603POPI    C1 9609  15.858  10.396   9.310  0.0249  0.1803 -0.1523
  603POPI    C2 9610  16.025  10.034   9.279  0.2884  0.2817  0.0361
  603POPI    C3 9611  15.812  10.129   9.604 -0.2555  0.1105 -0.2561
  603POPI   PO4 9612  15.766  10.452   9.096 -0.4194 -0.0179 -0.0396
  603POPI   GL1 9613  15.950  10.635   8.764 -0.0558  0.0938 -0.0643
  603POPI   GL2 9614  15.813  10.883   8.805  0.0508  0.0799  0.2215
  603POPI   C1A 9615  16.257  10.561   8.490 -0.3007  0.1059  0.0452
  603POPI   D2A 9616  16.391  10.635   8.010 -0.3012 -0.1317  0.0212
  603POPI   C3A 9617  16.179  10.675   7.652  0.4258  0.1719 -0.3505
  603POPI   C4A 9618  15.865  10.953   7.475  0.0417 -0.2119 -0.0989
  603POPI   C1B 9619  15.895  11.199   8.556 -0.0335  0.3214  0.2841
  603POPI   C2B 9620  15.915  11.484   8.287  0.0342  0.0593  0.1975
  603POPI   C3B 9621  15.764  11.597   7.926  0.4082  0.2020  0.0370
  603POPI   C4B 9622  15.669  11.445   7.543 -0.1144 -0.1627 -0.0426
  604POPI    C1 9623   8.973   9.287  10.108  0.0272 -0.1173  0.0426
  604POPI    C2 9624   9.248   9.129  10.353  0.0966 -0.0125  0.0329
  604POPI    C3 9625   8.901   9.264  10.501  0.1983  0.1854  0.0948
  604POPI   PO4 9626   9.015   9.153   9.888 -0.1402  0.3884 -0.0904
  604POPI   GL1 9627   8.894   9.420   9.492  0.0717  0.0503 -0.1067
  604POPI   GL2 9628   9.179   9.579   9.562  0.0699  0.2067  0.1905
  604POPI   C1A 9629   8.852   9.150   9.111  0.0933 -0.1807 -0.0107
  604POPI   D2A 9630   8.647   9.139   8.777  0.0274 -0.5360  0.3815
  604POPI   C3A 9631   8.536   9.230   8.330 -0.0089 -0.1802  0.1761
  604POPI   C4A 9632   8.614   9.430   7.925  0.1680  0.1563  0.1166
  604POPI   C1B 9633   9.147   9.905   9.124  0.2825  0.3852  0.1266
  604POPI   C2B 9634   8.961  10.154   8.775 -0.4818 -0.1856  0.0473
  604POPI   C3B 9635   8.934  10.150   8.373 -0.0971 -0.2900 -0.0837
  604POPI   C4B 9636   8.824  10.234   7.931 -0.1063 -0.0692  0.0089
  605POPI    C1 9637  17.205   9.218   9.973  0.0684  0.0731 -0.0816
  605POPI    C2 9638  17.126   9.074  10.338  0.1539  0.1329 -0.0393
  605POPI    C3 9639  17.007   8.872  10.014 -0.1062  0.1836  0.0224
  605POPI   PO4 9640  17.070   9.425   9.878  0.0808 -0.1806  0.1434
  605POPI   GL1 9641  16.875   9.553   9.616 -0.1196  0.2659  0.2207
  605POPI   GL2 9642  16.696   9.441   9.349 -0.0424 -0.1141 -0.0054
  605POPI   C1A 9643  17.065   9.688   9.205 -0.0563 -0.1529 -0.0653
  605POPI   D2A 9644  16.930   9.604   8.716  0.0551  0.2213  0.1000
  605POPI   C3A 9645  17.160   9.839   8.472  0.0293  0.1495  0.4177
  605POPI   C4A 9646  17.185  10.139   8.162 -0.0706  0.0812  0.0563
  605POPI   C1B 9647  16.790   9.171   9.035 -0.2207 -0.3858  0.3740
  605POPI   C2B 9648  17.023   8.860   8.907 -0.0306 -0.2381 -0.0470
  605POPI   C3B 9649  17.458   8.748   9.015 -0.1732  0.0834 -0.0252
  605POPI   C4B 9650  17.875   8.613   9.095  0.0158 -0.0013 -0.0278
  606POPI    C1 9651   6.896  18.132   9.380 -0.0272  0.1956  0.0858
  606POPI    C2 9652   7.260  18.212   9.526  0.0549  0.1059 -0.0658
  606POPI    C3 9653   6.949  18.167   9.774  0.1882 -0.0284  0.0791
  606POPI   PO4 9654   6.938  17.895   9.196  0.0735 -0.3298 -0.1812
  606POPI   GL1 9655   6.662  17.727   9.004  0.0187 -0.4449  0.1534
  606POPI   GL2 9656   6.712  17.374   8.906  0.1473 -0.2911 -0.1315
  606POPI   C1A 9657   6.410  17.656   8.546 -0.2284  0.0687  0.1314
  606POPI   D2A 9658   6.338  18.041   8.401  0.0562 -0.1684 -0.1880
  606POPI   C3A 9659   6.151  18.128   7.997  0.0782  0.0873 -0.3852
  606POPI   C4A 9660   6.196  18.389   7.620  0.0003  0.1955 -0.6238
  606POPI   C1B 9661   6.835  17.278   8.608 -0.1871 -0.1219  0.2034
  606POPI   C2B 9662   7.255  17.458   8.385  0.0542 -0.0655  0.0551
  606POPI   C3B 9663   7.616  17.459   8.191  0.0478 -0.1651 -0.2420
  606POPI   C4B 9664   7.781  17.534   7.804  0.2788 -0.0064 -0.1543
  607DPPI    C1 9665  18.921  13.599  10.111  0.5217 -0.0183  0.0066
  607DPPI    C2 9666  18.734  13.728  10.440  0.1946 -0.0066 -0.1794
  607DPPI    C3 9667  18.969  13.404  10.457 -0.0468 -0.1750  0.0066
  607DPPI   PO4 9668  18.655  13.752   9.846 -0.0342 -0.1501  0.0393
  607DPPI   GL1 9669  18.625  13.833   9.484  0.0221 -0.0578 -0.3646
  607DPPI   GL2 9670  18.445  14.109   9.425  0.0922  0.1926  0.0650
  607DPPI   C1A 9671  18.775  13.641   9.022 -0.0047  0.0597  0.0537
  607DPPI   C2A 9672  18.831  13.841   8.651  0.0827 -0.3485 -0.0815
  607DPPI   C3A 9673  18.614  13.930   8.250 -0.0116 -0.2676  0.0538
  607DPPI   C4A 9674  18.312  14.082   7.987 -0.3195 -0.0854 -0.2120
  607DPPI   C1B 9675  18.497  14.163   8.996 -0.0275 -0.3005 -0.1724
  607DPPI   C2B 9676  18.614  14.342   8.560  0.2388  0.0008 -0.1069
  607DPPI   C3B 9677  18.579  14.437   8.170 -0.1306  0.0186  0.0711
  607DPPI   C4B 9678  18.767  14.613   7.726 -0.1538 -0.2563 -0.3251
  608DPPI    C1 9679  15.012  12.500   9.438 -0.2749  0.1840  0.1292
  608DPPI    C2 9680  15.347  12.626   9.617  0.0995 -0.1816 -0.2893
  608DPPI    C3 9681  15.108  12.364   9.801  0.2065 -0.1574 -0.1139
  608DPPI   PO4 9682  15.059  12.413   9.178  0.2530  0.1499 -0.1496
  608DPPI   GL1 9683  15.367  12.520   8.830  0.0838 -0.2688  0.0239
  608DPPI   GL2 9684  15.646  12.235   8.860  0.1368  0.0935 -0.0480
  608DPPI   C1A 9685  15.581  12.638   8.457  0.0783 -0.0157  0.0989
  608DPPI   C2A 9686  15.710  12.633   8.119  0.2361 -0.0590 -0.0676
  608DPPI   C3A 9687  15.675  12.754   7.707  0.0501 -0.0022 -0.1996
  608DPPI   C4A 9688  15.531  12.882   7.288  0.3652 -0.1843 -0.2392
  608DPPI   C1B 9689  15.933  11.997   8.489  0.1584  0.1190 -0.0454
  608DPPI   C2B 9690  16.180  11.952   8.116 -0.0588 -0.1275 -0.1744
  608DPPI   C3B 9691  16.128  11.850   7.680  0.2043  0.1556  0.0824
  608DPPI   C4B 9692  16.026  11.675   7.245  0.0483 -0.1208 -0.1157
  609DPPI    C1 9693  11.138  17.997   9.614  0.2193  0.0216 -0.0143
  609DPPI    C2 9694  11.156  18.387   9.526  0.1090  0.0430  0.0570
  609DPPI    C3 9695  11.028  18.268   9.886 -0.0741 -0.0660 -0.0426
  609DPPI   PO4 9696  11.419  17.900   9.520  0.0704 -0.1462  0.2072
  609DPPI   GL1 9697  11.523  17.641   9.179  0.0949  0.0844 -0.1880
  609DPPI   GL2 9698  11.434  17.348   9.090  0.2547  0.2381 -0.2197
  609DPPI   C1A 9699  11.634  17.755   8.732  0.3291  0.0595 -0.0550
  609DPPI   C2A 9700  11.500  17.775   8.383  0.2789 -0.0890  0.2595
  609DPPI   C3A 9701  11.357  17.548   7.975  0.1684  0.0055 -0.1094
  609DPPI   C4A 9702  11.390  17.590   7.499 -0.2289 -0.1758 -0.0161
  609DPPI   C1B 9703  11.265  17.319   8.632  0.0844  0.2093 -0.2321
  609DPPI   C2B 9704  11.159  17.131   8.227  0.0172  0.3349 -0.0622
  609DPPI   C3B 9705  11.200  17.111   7.760  0.1467 -0.0907  0.1076
  609DPPI   C4B 9706  11.024  17.002   7.326 -0.1124  0.0897  0.2329
  610DPPI    C1 9707  15.574  17.688   9.274  0.0104  0.0198  0.1442
  610DPPI    C2 9708  15.802  18.004   9.365  0.2783 -0.1518  0.0779
  610DPPI    C3 9709  15.625  17.795   9.656  0.2302 -0.0365  0.1320
  610DPPI   PO4 9710  15.756  17.543   9.032 -0.1011  0.1303  0.1697
  610DPPI   GL1 9711  15.978  17.633   8.680  0.1954  0.2549  0.1298
  610DPPI   GL2 9712  16.097  17.306   8.800  0.0441  0.1586 -0.1987
  610DPPI   C1A 9713  16.202  17.653   8.264 -0.4854 -0.0980  0.2264
  610DPPI   C2A 9714  16.285  17.781   7.808 -0.2754  0.1410  0.2458
  610DPPI   C3A 9715  16.542  17.996   7.697 -0.1354 -0.0152 -0.3020
  610DPPI   C4A 9716  16.982  18.107   7.523  0.1023  0.1218  0.3374
  610DPPI   C1B 9717  15.911  17.202   8.305 -0.2754 -0.0876  0.3130
  610DPPI   C2B 9718  15.971  17.198   7.781 -0.0232  0.1224  0.2204
  610DPPI   C3B 9719  16.031  17.210   7.277 -0.2662 -0.3543  0.1461
  610DPPI   C4B 9720  16.020  17.219   6.805 -0.1110  0.0187  0.1796
  611DPPI    C1 9721  16.874   1.196   9.317 -0.0902 -0.1364  0.0036
  611DPPI    C2 9722  17.186   0.958   9.238 -0.1032 -0.1630  0.0324
  611DPPI    C3 9723  16.860   0.808   9.415 -0.0839 -0.1092  0.1138
  611DPPI   PO4 9724  16.794   1.317   9.081 -0.1323 -0.3117  0.2249
  611DPPI   GL1 9725  16.854   1.440   8.729 -0.0224 -0.2006  0.2721
  611DPPI   GL2 9726  17.110   1.435   8.662 -0.2573  0.0655 -0.0742
  611DPPI   C1A 9727  16.824   1.306   8.304  0.3152  0.0140  0.0988
  611DPPI   C2A 9728  16.634   1.190   7.902  0.0445 -0.2725 -0.2110
  611DPPI   C3A 9729  16.712   1.240   7.469  0.0897  0.1141 -0.1002
  611DPPI   C4A 9730  16.958   1.237   7.079  0.0154  0.0804 -0.0116
  611DPPI   C1B 9731  17.308   1.433   8.317  0.1051 -0.1656  0.0526
  611DPPI   C2B 9732  17.576   1.311   8.020 -0.0531  0.0872 -0.2329
  611DPPI   C3B 9733  17.735   1.044   7.584 -0.0271 -0.1079  0.4024
  611DPPI   C4B 9734  17.749   0.709   7.276 -0.2381 -0.2011  0.1546
  612DPPI    C1 9735  18.120  15.742   9.681 -0.2123  0.1383 -0.0254
  612DPPI    C2 9736  18.106  15.991   9.994  0.1564  0.3692 -0.1854
  612DPPI    C3 9737  18.459  15.856   9.861 -0.0333 -0.2006 -0.1384
  612DPPI   PO4 9738  17.990  15.968   9.408 -0.1181 -0.0140 -0.1986
  612DPPI   GL1 9739  18.015  16.086   8.927 -0.0673  0.0914  0.5680
  612DPPI   GL2 9740  18.366  15.987   9.053 -0.1324  0.1329  0.0874
  612DPPI   C1A 9741  17.792  15.996   8.597  0.0218 -0.2106 -0.3139
  612DPPI   C2A 9742  17.833  15.866   8.216 -0.1089 -0.0820  0.1866
  612DPPI   C3A 9743  17.711  15.851   7.851 -0.3581  0.2408 -0.2794
  612DPPI   C4A 9744  17.914  15.775   7.505 -0.2965 -0.1320  0.2019
  612DPPI   C1B 9745  18.382  15.719   8.732 -0.0269  0.0259  0.1698
  612DPPI   C2B 9746  18.321  15.833   8.384  0.0024 -0.1083 -0.4733
  612DPPI   C3B 9747  18.257  15.687   8.031  0.2255  0.1261 -0.0932
  612DPPI   C4B 9748  18.360  15.487   7.594 -0.0269  0.1591 -0.1528
  613DPPI    C1 9749   2.437   3.798  10.457  0.1745  0.1038 -0.1215
  613DPPI    C2 9750   2.188   4.100  10.541  0.0909  0.0014  0.0023
  613DPPI    C3 9751   2.562   4.177  10.421 -0.0245  0.1571 -0.2655
  613DPPI   PO4 9752   2.197   3.669  10.328 -0.1649  0.1781  0.2300
  613DPPI   GL1 9753   2.162   3.653   9.919 -0.0673 -0.1291  0.2322
  613DPPI   GL2 9754   1.940   3.759   9.739  0.0340 -0.1089 -0.3058
  613DPPI   C1A 9755   2.011   3.309   9.534 -0.3350  0.3778 -0.0540
  613DPPI   C2A 9756   2.255   3.214   9.182  0.1714  0.0279 -0.0405
  613DPPI   C3A 9757   2.566   3.062   8.912 -0.3218  0.1738  0.0833
  613DPPI   C4A 9758   2.505   2.903   8.431  0.3674  0.3343  0.0209
  613DPPI   C1B 9759   2.354   3.662   9.457  0.5081 -0.0884  0.1055
  613DPPI   C2B 9760   2.537   3.597   9.088  0.3204 -0.2924  0.1626
  613DPPI   C3B 9761   2.510   3.492   8.702  0.0657 -0.0438 -0.2198
  613DPPI   C4B 9762   2.796   3.398   8.378  0.2538  0.1070  0.3693
  614DPPI    C1 9763  10.666  10.518   9.166 -0.1005 -0.2241 -0.0999
  614DPPI    C2 9764  10.290  10.629   9.242  0.0380  0.0855  0.1579
  614DPPI    C3 9765  10.560  10.623   9.537  0.3084  0.1625 -0.0839
  614DPPI   PO4 9766  10.839  10.551   8.930  0.1692 -0.0194 -0.1533
  614DPPI   GL1 9767  10.891  10.603   8.488  0.1343 -0.4688 -0.1530
  614DPPI   GL2 9768  11.041  10.365   8.479  0.1417  0.3519 -0.0237
  614DPPI   C1A 9769  10.871  10.657   8.023  0.1410  0.0923 -0.1582
  614DPPI   C2A 9770  10.836  10.802   7.630 -0.1173 -0.1202  0.1763
  614DPPI   C3A 9771  10.507  11.033   7.444 -0.3448  0.2181  0.0570
  614DPPI   C4A 9772  10.479  11.097   7.096  0.1465  0.0574  0.2292
  614DPPI   C1B 9773  11.137  10.231   8.084  0.1360 -0.1810 -0.1251
  614DPPI   C2B 9774  11.049  10.297   7.665 -0.1466 -0.1296  0.0331
  614DPPI   C3B 9775  10.829  10.400   7.252 -0.3950 -0.0698  0.1211
  614DPPI   C4B 9776  10.547  10.110   7.091  0.0929  0.2785 -0.2871
  615DPPI    C1 9777   8.650  18.303   9.556  0.0572  0.1121  0.0265
  615DPPI    C2 9778   8.390  18.451   9.290  0.2069  0.0969 -0.1299
  615DPPI    C3 9779   8.750  18.620   9.334  0.1593  0.1392  0.1109
  615DPPI   PO4 9780   8.639  17.987   9.496  0.1418  0.3370 -0.0398
  615DPPI   GL1 9781   8.448  17.909   9.241 -0.2134 -0.3720 -0.0608
  615DPPI   GL2 9782   8.362  17.636   9.077 -0.2580 -0.1391  0.2578
  615DPPI   C1A 9783   8.427  18.208   8.881  0.0073 -0.2641  0.0596
  615DPPI   C2A 9784   8.184  18.185   8.517  0.1144 -0.0740 -0.0356
  615DPPI   C3A 9785   8.259  18.358   8.018 -0.0152 -0.1978 -0.4204
  615DPPI   C4A 9786   8.323  18.548   7.592 -0.3440 -0.4066 -0.2180
  615DPPI   C1B 9787   8.426  17.675   8.580 -0.2204 -0.1096 -0.0996
  615DPPI   C2B 9788   8.339  17.788   8.231 -0.2788  0.0230 -0.0784
  615DPPI   C3B 9789   8.336  17.824   7.826 -0.3014  0.1854  0.2756
  615DPPI   C4B 9790   8.058  17.647   7.442  0.0224 -0.0161 -0.0280
  616PYPI    C1 9791  16.533   1.552   9.596  0.1162  0.1078 -0.1074
  616PYPI    C2 9792  16.250   1.325   9.766  0.1131  0.1925  0.0018
  616PYPI    C3 9793  16.635   1.217   9.790  0.1303  0.2960  0.2174
  616PYPI   PO4 9794  16.419   1.588   9.365  0.1065 -0.3606 -0.3261
  616PYPI   GL1 9795  16.234   1.460   9.012 -0.3012  0.2160 -0.0230
  616PYPI   GL2 9796  16.452   1.677   8.872 -0.0192  0.3819  0.1295
  616PYPI   C1A 9797  15.959   1.585   8.688  0.0619 -0.5276  0.1479
  616PYPI   C2A 9798  15.754   1.609   8.274 -0.0185 -0.1454  0.1684
  616PYPI   D3A 9799  15.751   1.513   7.798 -0.2071 -0.0672 -0.2388
  616PYPI   C4A 9800  15.896   1.776   7.417 -0.1154  0.2272 -0.0134
  616PYPI   C1B 9801  16.419   1.443   8.518 -0.2161  0.0677 -0.1349
  616PYPI   C2B 9802  16.221   1.362   8.138  0.2091  0.1281  0.0399
  616PYPI   C3B 9803  16.144   1.190   7.715  0.3131 -0.2201  0.2117
  616PYPI   C4B 9804  16.221   0.985   7.280 -0.3996 -0.3021 -0.0100
  617PYPI    C1 9805   6.211  10.288  10.558 -0.0793 -0.0887  0.0373
  617PYPI    C2 9806   6.197   9.920  10.715  0.3529 -0.1114  0.0343
  617PYPI    C3 9807   6.275  10.235  10.949  0.0334 -0.0236  0.0279
  617PYPI   PO4 9808   6.035  10.250  10.325 -0.1518 -0.0143 -0.1903
  617PYPI   GL1 9809   6.046  10.072   9.942  0.2047 -0.1475 -0.0151
  617PYPI   GL2 9810   6.038  10.403   9.873 -0.0116  0.1655 -0.2376
  617PYPI   C1A 9811   6.142   9.900   9.546 -0.4304  0.0423  0.1902
  617PYPI   C2A 9812   6.149   9.964   9.120  0.1830 -0.0378  0.0366
  617PYPI   D3A 9813   6.103  10.284   8.841 -0.1645 -0.2325  0.1248
  617PYPI   C4A 9814   6.000  10.145   8.535 -0.1950 -0.2055 -0.0091
  617PYPI   C1B 9815   5.994  10.565   9.409 -0.0015  0.3516  0.1090
  617PYPI   C2B 9816   5.743  10.671   9.065 -0.1090  0.0990 -0.4766
  617PYPI   C3B 9817   5.727  10.739   8.694  0.1674  0.0365  0.0475
  617PYPI   C4B 9818   5.841  10.687   8.275 -0.0099  0.2871 -0.4193
  618PYPI    C1 9819   2.841  16.258   9.946 -0.2611 -0.1330  0.1378
  618PYPI    C2 9820   2.610  16.453  10.207  0.0573  0.3577  0.0664
  618PYPI    C3 9821   3.008  16.470  10.241  0.0945 -0.1006 -0.0803
  618PYPI   PO4 9822   2.721  16.298   9.639  0.2378  0.0971 -0.2279
  618PYPI   GL1 9823   2.604  16.137   9.150  0.0298  0.2526 -0.0140
  618PYPI   GL2 9824   2.935  16.058   9.224  0.0746 -0.0150  0.1530
  618PYPI   C1A 9825   2.565  16.201   8.614 -0.0656  0.1951 -0.0378
  618PYPI   C2A 9826   2.611  16.276   8.174 -0.0661  0.0805  0.0095
  618PYPI   D3A 9827   2.530  16.166   7.811  0.2675 -0.3363 -0.3021
  618PYPI   C4A 9828   2.251  16.142   7.400 -0.1156  0.1572  0.0253
  618PYPI   C1B 9829   2.985  16.391   8.876  0.1380 -0.0449 -0.0440
  618PYPI   C2B 9830   2.824  16.733   8.619 -0.3054  0.1839  0.2328
  618PYPI   C3B 9831   2.773  16.706   8.121  0.0114 -0.2181 -0.1127
  618PYPI   C4B 9832   2.822  16.581   7.554 -0.1735  0.0392  0.0904
  619PYPI    C1 9833   8.383   9.284  10.328  0.2577 -0.0729  0.1941
  619PYPI    C2 9834   8.389   9.005  10.614 -0.0689 -0.1069  0.1714
  619PYPI    C3 9835   8.107   9.289  10.618 -0.0534 -0.0858 -0.0952
  619PYPI   PO4 9836   8.480   9.051  10.068 -0.2368 -0.3654 -0.0005
  619PYPI   GL1 9837   8.643   9.039   9.556  0.0258  0.0985 -0.2492
  619PYPI   GL2 9838   8.376   8.855   9.602 -0.0651 -0.0333  0.3323
  619PYPI   C1A 9839   8.443   9.340   9.302 -0.2149  0.1860  0.0534
  619PYPI   C2A 9840   8.137   9.340   8.965 -0.1219 -0.3211  0.0046
  619PYPI   D3A 9841   7.701   9.188   8.990 -0.0356 -0.0798 -0.2634
  619PYPI   C4A 9842   7.364   9.283   9.205 -0.1008 -0.3019  0.0678
  619PYPI   C1B 9843   8.387   8.793   9.198 -0.1973  0.1743  0.1077
  619PYPI   C2B 9844   8.191   8.825   8.807 -0.2460  0.0469  0.2531
  619PYPI   C3B 9845   8.175   8.910   8.292 -0.0201  0.0515  0.1193
  619PYPI   C4B 9846   8.126   9.346   8.065 -0.2119  0.0409 -0.1275
  620PYPI    C1 9847  17.223  15.816   9.590 -0.0407 -0.1396 -0.0891
  620PYPI    C2 9848  17.249  15.417   9.592 -0.2185 -0.1515  0.0809
  620PYPI    C3 9849  17.165  15.614   9.930  0.1878  0.0535  0.0681
  620PYPI   PO4 9850  17.165  15.939   9.327 -0.1903  0.3030  0.0601
  620PYPI   GL1 9851  17.131  15.982   8.976  0.0423 -0.1875 -0.0347
  620PYPI   GL2 9852  17.488  16.135   9.015  0.0551  0.0436 -0.0856
  620PYPI   C1A 9853  16.960  16.098   8.563  0.1592  0.1404  0.3139
  620PYPI   C2A 9854  16.606  16.050   8.319 -0.2537  0.0881 -0.1303
  620PYPI   D3A 9855  16.354  16.194   7.893  0.0329  0.0120 -0.1699
  620PYPI   C4A 9856  16.328  16.228   7.496 -0.2918 -0.1390 -0.3293
  620PYPI   C1B 9857  17.401  16.270   8.611  0.2407  0.0177  0.1496
  620PYPI   C2B 9858  17.325  16.131   8.219 -0.2553 -0.1032  0.1446
  620PYPI   C3B 9859  17.008  16.051   7.920 -0.0250  0.0596 -0.2499
  620PYPI   C4B 9860  16.740  15.997   7.617 -0.0891  0.0517  0.2274
  621PYPI    C1 9861   3.672   6.610  10.608  0.0125 -0.1743 -0.0480
  621PYPI    C2 9862   3.565   6.351  10.894  0.1438 -0.2272 -0.0460
  621PYPI    C3 9863   3.779   6.676  10.987 -0.0355 -0.1073 -0.0459
  621PYPI   PO4 9864   3.415   6.641  10.390  0.1867  0.0677  0.1629
  621PYPI   GL1 9865   3.304   6.547   9.905 -0.0500  0.2083  0.1416
  621PYPI   GL2 9866   3.060   6.888  10.029  0.1069  0.1635 -0.1519
  621PYPI   C1A 9867   3.214   6.734   9.549 -0.0168 -0.1034 -0.3654
  621PYPI   C2A 9868   3.070   6.701   9.102  0.0002 -0.0129 -0.1813
  621PYPI   D3A 9869   2.849   6.558   8.809  0.0695 -0.3373  0.0537
  621PYPI   C4A 9870   3.050   6.705   8.368  0.0405 -0.0117  0.0902
  621PYPI   C1B 9871   2.992   7.135   9.713  0.0839  0.3331  0.2617
  621PYPI   C2B 9872   2.771   7.019   9.335 -0.2613 -0.5716 -0.1342
  621PYPI   C3B 9873   2.478   6.845   9.016 -0.4353  0.3288  0.2838
  621PYPI   C4B 9874   2.335   6.426   8.900 -0.1556 -0.0822  0.1351
  622ERGO   ROH 9875  10.584  18.052   5.939 -0.1262 -0.0865  0.0199
  622ERGO    R1 9876  10.614  17.877   6.160 -0.1432 -0.1158 -0.0012
  622ERGO    R2 9877  10.788  17.929   6.368  0.0352 -0.2721 -0.1098
  622ERGO    R3 9878  10.565  17.896   6.520  0.0990 -0.0750  0.0314
  622ERGO    R4 9879  10.786  17.796   6.687  0.1065 -0.4141 -0.1675
  622ERGO    R5 9880  10.603  17.689   6.635 -0.0625 -0.1757 -0.0902
  622ERGO    C1 9881  10.575  17.687   7.016  0.2078 -0.3119 -0.0684
  622ERGO    C2 9882  10.469  17.595   7.312 -0.2184 -0.4436  0.1062
  623ERGO   ROH 9883   6.426   4.864   9.788 -0.4650 -0.0892  0.0217
  623ERGO    R1 9884   6.334   4.958   9.537 -0.3891 -0.1247 -0.0199
  623ERGO    R2 9885   6.505   5.013   9.327 -0.2886  0.1519  0.1251
  623ERGO    R3 9886   6.342   4.842   9.192  0.0218 -0.0137 -0.0519
  623ERGO    R4 9887   6.399   5.058   9.001 -0.3554  0.2793  0.1638
  623ERGO    R5 9888   6.202   4.986   9.061 -0.2323 -0.1355  0.0844
  623ERGO    C1 9889   6.184   4.924   8.685 -0.1029  0.1979  0.0201
  623ERGO    C2 9890   6.210   5.196   8.452 -0.2481  0.0949 -0.2111
  624ERGO   ROH 9891   5.577  18.826   8.850  0.0841 -0.0184 -0.1192
  624ERGO    R1 9892   5.519  18.683   8.613  0.0427  0.0156 -0.1289
  624ERGO    R2 9893   5.282  18.712   8.476  0.0312  0.0529 -0.0940
  624ERGO    R3 9894   5.447  18.764   8.266  0.0074  0.0616 -0.1119
  624ERGO    R4 9895   5.178  18.766   8.150 -0.0169  0.1088 -0.0702
  624ERGO    R5 9896   5.348  18.648   8.082 -0.0380  0.0953 -0.1127
  624ERGO    C1 9897   5.272  18.845   7.764 -0.0673  0.1497 -0.0732
  624ERGO    C2 9898   5.376  18.871   7.342 -0.1560 -0.1175 -0.1362
  625ERGO   ROH 9899  11.970   2.770   5.732  0.3136 -0.0999 -0.0749
  625ERGO    R1 9900  12.004   2.807   6.010  0.4215 -0.0321 -0.0974
  625ERGO    R2 9901  11.846   2.680   6.198  0.2283  0.3253 -0.0152
  625ERGO    R3 9902  12.085   2.597   6.296  0.1058 -0.0468 -0.0144
  625ERGO    R4 9903  11.894   2.540   6.510  0.0109  0.2687 -0.0045
  625ERGO    R5 9904  12.078   2.654   6.528  0.1984 -0.0155 -0.0169
  625ERGO    C1 9905  12.147   2.380   6.784 -0.2306 -0.1137  0.0025
  625ERGO    C2 9906  12.115   2.179   7.008 -0.2649  0.1708  0.0085
  626ERGO   ROH 9907   8.532  10.716   8.972 -0.1421  0.0983  0.2982
  626ERGO    R1 9908   8.325  10.787   8.792 -0.1559  0.0443  0.2934
  626ERGO    R2 9909   8.374  10.854   8.529 -0.1592  0.1213  0.3148
  626ERGO    R3 9910   8.191  10.659   8.480 -0.0697  0.0516  0.2522
  626ERGO    R4 9911   8.246  10.776   8.217 -0.1435  0.1873  0.2913
  626ERGO    R5 9912   8.050  10.750   8.309 -0.1270  0.0560  0.2985
  626ERGO    C1 9913   8.000  10.547   7.990 -0.0504  0.1602  0.2187
  626ERGO    C2 9914   7.741  10.596   7.703 -0.0937 -0.0668  0.0974
  627ERGO   ROH 9915   9.055   0.899   9.076  0.0468  0.1739 -0.1652
  627ERGO    R1 9916   9.041   0.722   8.856  0.0203  0.1778 -0.1674
  627ERGO    R2 9917   8.801   0.646   8.740  0.0006  0.1189 -0.0924
  627ERGO    R3 9918   8.920   0.735   8.513 -0.0969  0.1594 -0.1269
  627ERGO    R4 9919   8.682   0.591   8.421  0.1712 -0.3283 -0.0867
  627ERGO    R5 9920   8.887   0.559   8.355  0.2502 -0.0206 -0.0073
  627ERGO    C1 9921   8.723   0.644   8.021  0.1790 -0.5506 -0.1156
  627ERGO    C2 9922   8.901   0.722   7.744  0.1979 -0.0563 -0.1105
  628ERGO   ROH 9923   3.653   6.959   9.758  0.3132  0.0305 -0.1069
  628ERGO    R1 9924   3.518   7.122   9.570  0.2132 -0.0141 -0.0746
  628ERGO    R2 9925   3.589   7.132   9.303  0.0690 -0.0805 -0.1173
  628ERGO    R3 9926   3.328   7.071   9.264  0.0462 -0.0875  0.0401
  628ERGO    R4 9927   3.426   7.147   8.999 -0.1045 -0.1232 -0.0276
  628ERGO    R5 9928   3.253   7.230   9.101 -0.0470 -0.1102  0.0601
  628ERGO    C1 9929   3.085   7.099   8.785 -0.2268 -0.1547  0.1723
  628ERGO    C2 9930   2.751   7.029   8.633  0.1226  0.1610 -0.0954
  629ERGO   ROH 9931  12.657  17.421   9.117 -0.0449 -0.0421  0.0378
  629ERGO    R1 9932  12.803  17.521   8.896 -0.1983  0.0644 -0.0161
  629ERGO    R2 9933  12.969  17.362   8.743 -0.0595  0.2080 -0.0087
  629ERGO    R3 9934  12.818  17.457   8.538 -0.2022 -0.0027 -0.0059
  629ERGO    R4 9935  13.029  17.300   8.408  0.0190  0.2707 -0.0073
  629ERGO    R5 9936  12.976  17.507   8.366 -0.2676  0.2074 -0.0134
  629ERGO    C1 9937  12.922  17.353   8.021 -0.0691  0.1097 -0.0038
  629ERGO    C2 9938  12.876  17.419   7.642 -0.2806 -0.1333  0.3918
  630ERGO   ROH 9939   2.476   9.984   9.795 -0.1673 -0.3260 -0.1460
  630ERGO    R1 9940   2.365  10.017   9.537  0.0019  0.2070 -0.1631
  630ERGO    R2 9941   2.444  10.220   9.365  0.7343  0.0756 -0.0158
  630ERGO    R3 9942   2.489  10.013   9.194  0.0997  0.0096 -0.1268
  630ERGO    R4 9943   2.493  10.251   9.025  0.6148  0.0764 -0.0336
  630ERGO    R5 9944   2.371  10.073   8.995  0.1289  0.3926 -0.0350
  630ERGO    C1 9945   2.563  10.076   8.666 -0.0505  0.0149 -0.1481
  630ERGO    C2 9946   2.885  10.014   8.397 -0.0776 -0.1384 -0.1780
  631ERGO   ROH 9947   4.517  15.646   9.221  0.0514  0.0531  0.1065
  631ERGO    R1 9948   4.537  15.590   8.945  0.0282  0.0939  0.0959
  631ERGO    R2 9949   4.729  15.421   8.840 -0.0755 -0.0130  0.0710
  631ERGO    R3 9950   4.514  15.297   8.731 -0.1540  0.1494  0.0382
  631ERGO    R4 9951   4.720  15.285   8.523 -0.0520 -0.2088  0.1534
  631ERGO    R5 9952   4.517  15.362   8.501  0.0415 -0.0019 -0.0042
  631ERGO    C1 9953   4.512  15.089   8.236 -0.1120 -0.1703  0.1705
  631ERGO    C2 9954   4.407  14.734   8.093 -0.1135  0.2056 -0.1913
  632ERGO   ROH 9955  15.244  18.201   8.429  0.1629 -0.2801  0.1208
  632ERGO    R1 9956  15.395  18.116   8.205 -0.0064 -0.3664  0.0375
  632ERGO    R2 9957  15.305  17.921   8.030 -0.2622 -0.2386  0.0203
  632ERGO    R3 9958  15.353  18.113   7.843 -0.1559 -0.2329  0.0530
  632ERGO    R4 9959  15.405  17.859   7.705  0.0872 -0.2184  0.1204
  632ERGO    R5 9960  15.541  18.030   7.720  0.0021 -0.1624  0.2433
  632ERGO    C1 9961  15.509  18.003   7.341  0.3905 -0.2016  0.2093
  632ERGO    C2 9962  15.612  18.082   7.119 -0.2474 -0.0989  0.0099
  633ERGO   ROH 9963   5.493   6.818   9.553 -0.0026 -0.2600 -0.0576
  633ERGO    R1 9964   5.310   6.981   9.412  0.0917 -0.0885  0.0144
  633ERGO    R2 9965   5.350   7.055   9.149  0.0442 -0.1524 -0.0121
  633ERGO    R3 9966   5.102   6.949   9.114 -0.0819  0.0901  0.1141
  633ERGO    R4 9967   5.147   7.113   8.875  0.1193 -0.2534 -0.0900
  633ERGO    R5 9968   4.976   7.124   9.011  0.1244  0.1126 -0.1055
  633ERGO    C1 9969   4.796   7.047   8.683  0.0445 -0.0846 -0.0169
  633ERGO    C2 9970   4.723   7.069   8.239 -0.0540 -0.1952  0.0579
  634ERGO   ROH 9971  15.271   7.687   9.136  0.2991  0.0633  0.0374
  634ERGO    R1 9972  15.267   7.818   8.885  0.1114 -0.0155 -0.0010
  634ERGO    R2 9973  15.493   7.930   8.773 -0.0115  0.0920 -0.1298
  634ERGO    R3 9974  15.426   7.773   8.561  0.0016 -0.0084 -0.0568
  634ERGO    R4 9975  15.524   8.021   8.441  0.2820 -0.1693 -0.1802
  634ERGO    R5 9976  15.333   7.925   8.401  0.2276 -0.0447 -0.2311
  634ERGO    C1 9977  15.480   7.927   8.049  0.4651 -0.4155 -0.1412
  634ERGO    C2 9978  15.399   8.051   7.721  0.0916 -0.0867  0.1697
  635ERGO   ROH 9979   5.941   2.188   9.591  0.1775 -0.0222 -0.0327
  635ERGO    R1 9980   5.959   2.314   9.338 -0.0805 -0.0596 -0.0695
  635ERGO    R2 9981   6.114   2.214   9.133 -0.0960  0.0534 -0.1257
  635ERGO    R3 9982   5.881   2.227   8.993 -0.1774 -0.2028 -0.0116
  635ERGO    R4 9983   6.091   2.278   8.794 -0.3337 -0.0632 -0.1367
  635ERGO    R5 9984   5.918   2.404   8.835 -0.4256 -0.2153 -0.0846
  635ERGO    C1 9985   5.859   2.329   8.466 -0.5484 -0.3716 -0.0359
  635ERGO    C2 9986   5.963   2.324   8.134 -0.1601  0.1629  0.3178
  636ERGO   ROH 9987  18.761   9.148   9.812 -0.2771  0.1611  0.1172
  636ERGO    R1 9988  18.703   9.220   9.544 -0.2641  0.0205  0.0758
  636ERGO    R2 9989  18.889   9.201   9.342 -0.1519  0.2146  0.1560
  636ERGO    R3 9990  18.695   9.052   9.221  0.0874 -0.0723  0.1121
  636ERGO    R4 9991  18.803   9.222   9.007 -0.4267  0.4407  0.2373
  636ERGO    R5 9992  18.593   9.203   9.065 -0.3570 -0.0944  0.3653
  636ERGO    C1 9993  18.571   9.095   8.700 -0.3621  0.3028  0.2435
  636ERGO    C2 9994  18.567   9.052   8.345  0.1177  0.0462 -0.0696
  637ERGO   ROH 9995  17.217   2.450   8.723  0.1328 -0.2913 -0.0565
  637ERGO    R1 9996  17.098   2.481   8.468  0.0882  0.0538 -0.0001
  637ERGO    R2 9997  17.199   2.652   8.276  0.3273 -0.0181  0.0501
  637ERGO    R3 9998  17.198   2.429   8.121 -0.1262  0.0528 -0.0609
  637ERGO    R4 9999  17.288   2.644   7.942  0.5932 -0.0908  0.1198
  637ERGO    R510000  17.122   2.506   7.907  0.2554  0.3570 -0.0903
  637ERGO    C110001  17.338   2.430   7.602  0.3223 -0.0667  0.0563
  637ERGO    C210002  17.424   2.565   7.265 -0.0325  0.0287 -0.2225
  638ERGO   ROH10003   6.426   0.794   9.019 -0.2613 -0.0230 -0.2345
  638ERGO    R110004   6.432   0.960   8.790 -0.1928 -0.0294 -0.2378
  638ERGO    R210005   6.664   1.013   8.650 -0.1607 -0.0746 -0.2001
  638ERGO    R310006   6.519   0.923   8.438 -0.1403 -0.0522 -0.2232
  638ERGO    R410007   6.788   0.967   8.330 -0.0694 -0.2393 -0.1419
  638ERGO    R510008   6.602   1.049   8.252  0.0019 -0.1520 -0.2315
  638ERGO    C110009   6.723   0.856   7.946  0.0029 -0.3141 -0.1298
  638ERGO    C210010   6.995   0.800   7.701 -0.0598  0.3149 -0.2380
  639ERGO   ROH10011   7.725   3.157   9.221 -0.0361  0.0927  0.0467
  639ERGO    R110012   7.710   3.253   8.955  0.0397  0.0291  0.0178
  639ERGO    R210013   7.853   3.140   8.748  0.0298 -0.0823  0.0634
  639ERGO    R310014   7.608   3.121   8.632  0.0370 -0.0205  0.0409
  639ERGO    R410015   7.792   3.171   8.409  0.0351  0.0979  0.0789
  639ERGO    R510016   7.613   3.285   8.457  0.0381  0.0682  0.1297
  639ERGO    C110017   7.526   3.172   8.103  0.0450  0.2608  0.0667
  639ERGO    C210018   7.524   3.234   7.781 -0.0995  0.1065  0.0085
  640ERGO   ROH10019  12.890  19.204   8.856  0.0866 -0.3807 -0.0569
  640ERGO    R110020  12.818  19.319   8.607  0.0792 -0.1742  0.0385
  640ERGO    R210021  13.004  19.385   8.414  0.0702 -0.0533  0.0689
  640ERGO    R310022  12.847  19.229   8.256  0.0280  0.0943 -0.0362
  640ERGO    R410023  13.018  19.377   8.069  0.0542  0.1855  0.0613
  640ERGO    R510024  12.800  19.366   8.065  0.0525  0.2392  0.0614
  640ERGO    C110025  12.879  19.226   7.719  0.0051  0.4632 -0.0418
  640ERGO    C210026  12.812  19.128   7.387  0.3493 -0.0070 -0.0222
  641ERGO   ROH10027  17.831  12.154   9.285  0.0306  0.3640 -0.0380
  641ERGO    R110028  17.781  12.164   9.007 -0.0768  0.2519 -0.0246
  641ERGO    R210029  17.804  12.397   8.860 -0.1258  0.1947 -0.1316
  641ERGO    R310030  17.971  12.246   8.707 -0.1881  0.1253 -0.1295
  641ERGO    R410031  17.911  12.480   8.542  0.0231  0.2111 -0.0770
  641ERGO    R510032  17.887  12.271   8.484 -0.1049  0.2474 -0.1444
  641ERGO    C110033  18.130  12.386   8.213  0.0515  0.1556 -0.0432
  641ERGO    C210034  18.374  12.420   8.014 -0.1244 -0.3044 -0.1731
  642ERGO   ROH10035  14.294  14.939   8.900  0.4309 -0.2909 -0.0063
  642ERGO    R110036  14.395  14.983   8.639  0.3348 -0.4488 -0.0709
  642ERGO    R210037  14.387  14.789   8.442 -0.1225 -0.4313 -0.0776
  642ERGO    R310038  14.261  14.984   8.301  0.1098 -0.2078  0.0151
  642ERGO    R410039  14.364  14.800   8.097 -0.1294 -0.2531 -0.0729
  642ERGO    R510040  14.398  15.015   8.107  0.1404 -0.2938  0.0208
  642ERGO    C110041  14.233  14.989   7.764  0.0846  0.0603  0.0170
  642ERGO    C210042  14.269  14.864   7.359 -0.4386  0.2066 -0.0506
  643ERGO   ROH10043  11.818   2.310   8.512  0.0655  0.0459  0.1843
  643ERGO    R110044  11.874   2.273   8.237 -0.0618 -0.1428  0.1827
  643ERGO    R210045  11.714   2.121   8.071 -0.2951 -0.0225  0.3020
  643ERGO    R310046  11.710   2.347   7.921 -0.0683 -0.0826  0.1984
  643ERGO    R410047  11.712   2.128   7.726 -0.4478 -0.1932  0.2970
  643ERGO    R510048  11.850   2.297   7.734 -0.2162 -0.3631  0.1525
  643ERGO    C110049  11.707   2.345   7.383 -0.3237 -0.3490  0.1968
  643ERGO    C210050  11.552   2.209   7.161  0.1300 -0.0635 -0.0408
  644ERGO   ROH10051   7.128  10.203   9.563  0.0178 -0.2075 -0.1533
  644ERGO    R110052   7.199  10.320   9.315  0.0977 -0.2500 -0.1510
  644ERGO    R210053   7.172  10.187   9.074 -0.2066 -0.1491 -0.1774
  644ERGO    R310054   7.029  10.408   9.006  0.1006  0.0939 -0.0590
  644ERGO    R410055   7.099  10.283   8.750 -0.5147 -0.1708 -0.1173
  644ERGO    R510056   7.136  10.490   8.808 -0.0345 -0.2038 -0.2631
  644ERGO    C110057   6.922  10.546   8.497 -0.4057  0.0448  0.0288
  644ERGO    C210058   6.781  10.720   8.307  0.3049  0.1083  0.0222
  645ERGO   ROH10059   3.811   8.593   9.873 -0.0483 -0.2873  0.0944
  645ERGO    R110060   3.823   8.671   9.601  0.0015 -0.1342  0.1401
  645ERGO    R210061   3.975   8.537   9.414  0.0506 -0.0180  0.0955
  645ERGO    R310062   3.740   8.524   9.279  0.0790  0.0386  0.0393
  645ERGO    R410063   3.942   8.561   9.071  0.1214  0.1323  0.0985
  645ERGO    R510064   3.763   8.682   9.102  0.1142  0.1167  0.1137
  645ERGO    C110065   3.701   8.564   8.745  0.1893  0.2728  0.0474
  645ERGO    C210066   3.533   8.601   8.339  0.2430  0.0756 -0.1031
  646ERGO   ROH10067   3.767  18.586   8.873  0.0047  0.0083  0.1407
  646ERGO    R110068   3.686  18.681   8.619  0.0760  0.0132  0.1205
  646ERGO    R210069   3.803  18.900   8.498  0.1647 -0.0367  0.1233
  646ERGO    R310070   3.840  18.727   8.292  0.1413 -0.0626  0.1396
  646ERGO    R410071   3.783  18.984   8.163  0.4026 -0.0117  0.1127
  646ERGO    R510072   3.680  18.795   8.127  0.2759  0.0639  0.0561
  646ERGO    C110073   3.806  18.869   7.775  0.5192 -0.0214  0.1219
  646ERGO    C210074   3.962  18.954   7.496  0.0234  0.0969 -0.0503
  647ERGO   ROH10075  11.201   1.846   8.739 -0.1791  0.1703 -0.0196
  647ERGO    R110076  11.239   1.972   8.489 -0.3629  0.0834 -0.0938
  647ERGO    R210077  11.409   1.872   8.296 -0.1246  0.2741  0.0087
  647ERGO    R310078  11.188   1.887   8.139 -0.1277 -0.2468 -0.0516
  647ERGO    R410079  11.411   1.851   7.951  0.0351  0.4095  0.0003
  647ERGO    R510080  11.260   2.009   7.946 -0.3867  0.0244  0.0184
  647ERGO    C110081  11.204   1.853   7.603  0.1253 -0.0008 -0.0611
  647ERGO    C210082  11.243   1.624   7.350  0.0331 -0.3124  0.0864
  648ERGO   ROH10083  18.458   4.165   9.483 -0.0099 -0.3425 -0.0494
  648ERGO    R110084  18.511   3.974   9.280  0.2892 -0.1367 -0.1719
  648ERGO    R210085  18.331   3.918   9.078  0.2474 -0.4872 -0.0402
  648ERGO    R310086  18.543   3.976   8.918 -0.0131  0.0976 -0.2028
  648ERGO    R410087  18.360   3.827   8.746  0.3665 -0.7089  0.0292
  648ERGO    R510088  18.570   3.782   8.781  0.5695  0.0328 -0.0317
  648ERGO    C110089  18.575   3.827   8.402  0.1912 -0.2889 -0.0832
  648ERGO    C210090  18.592   3.948   8.120  0.2934 -0.0240  0.4428
  649ERGO   ROH10091  14.749  13.570   8.808  0.1395 -0.0913  0.0102
  649ERGO    R110092  14.619  13.531   8.559 -0.1257  0.2166  0.0925
  649ERGO    R210093  14.505  13.738   8.416  0.4224  0.5422  0.0877
  649ERGO    R310094  14.664  13.646   8.217  0.0528 -0.0265  0.0338
  649ERGO    R410095  14.459  13.803   8.080  0.3834  0.4385  0.0730
  649ERGO    R510096  14.514  13.597   8.038 -0.1987  0.2541  0.1665
  649ERGO    C110097  14.581  13.753   7.697  0.0139 -0.1557  0.0137
  649ERGO    C210098  14.560  13.592   7.326  0.0475  0.0890 -0.0678
  650ERGO   ROH10099  10.824  11.470   9.002  0.0320  0.3015  0.1127
  650ERGO    R110100  10.867  11.620   8.766  0.2261 -0.0021 -0.0500
  650ERGO    R210101  10.990  11.513   8.543 -0.1716 -0.4969 -0.0494
  650ERGO    R310102  10.765  11.599   8.417 -0.0678 -0.0734  0.0375
  650ERGO    R410103  10.971  11.605   8.210 -0.1154 -0.3908 -0.0241
  650ERGO    R510104  10.841  11.769   8.267  0.1858 -0.1694  0.0521
  650ERGO    C110105  10.749  11.739   7.898  0.0147  0.0685  0.0722
  650ERGO    C210106  10.741  11.820   7.545  0.0726  0.0547 -0.0064
  651ERGO   ROH10107   9.345   4.154   9.098  0.1085 -0.0494  0.0977
  651ERGO    R110108   9.426   4.322   8.885  0.1161 -0.1074  0.0556
  651ERGO    R210109   9.525   4.224   8.647  0.0488 -0.1742  0.0580
  651ERGO    R310110   9.328   4.376   8.539  0.0716 -0.1397  0.0622
  651ERGO    R410111   9.533   4.361   8.330  0.1856  0.0490  0.1548
  651ERGO    R510112   9.444   4.542   8.412  0.1050 -0.0245  0.2373
  651ERGO    C110113   9.353   4.584   8.044  0.2867  0.2113  0.2152
  651ERGO    C210114   9.442   4.766   7.727 -0.0124 -0.1121 -0.1487
  652ERGO   ROH10115  14.303  11.637   8.677 -0.0016 -0.0174  0.1427
  652ERGO    R110116  14.350  11.556   8.410  0.1880 -0.1070  0.2025
  652ERGO    R210117  14.441  11.303   8.345 -0.1008 -0.2462  0.3343
  652ERGO    R310118  14.221  11.300   8.185  0.0727  0.0570  0.0784
  652ERGO    R410119  14.435  11.185   8.020  0.1040 -0.2859  0.3428
  652ERGO    R510120  14.306  11.353   7.967  0.4079 -0.0969  0.1634
  652ERGO    C110121  14.225  11.114   7.680  0.3861 -0.0243  0.1076
  652ERGO    C210122  14.104  10.890   7.416  0.3908 -0.1522 -0.1126
  653ERGO   ROH10123   3.558  14.027   6.184 -0.3164 -0.0092  0.0689
  653ERGO    R110124   3.660  13.904   6.418 -0.1561 -0.0270 -0.0081
  653ERGO    R210125   3.561  13.959   6.670  0.0469 -0.0096  0.0731
  653ERGO    R310126   3.530  13.689   6.681  0.0080 -0.0035  0.0918
  653ERGO    R410127   3.459  13.784   6.950  0.1264  0.0077  0.1125
  653ERGO    R510128   3.606  13.630   6.900  0.0802 -0.0140  0.0610
  653ERGO    C110129   3.371  13.428   7.123  0.1361  0.0236  0.1529
  653ERGO    C210130   3.403  13.322   7.525 -0.0222  0.1336  0.0800
  654PSPI    C110131  16.639   4.088   4.454  0.1073  0.1220 -0.4770
  654PSPI    C210132  16.994   4.199   4.601  0.0553 -0.1251 -0.1532
  654PSPI    C310133  16.973   3.910   4.325  0.0984 -0.1814 -0.0980
  654PSPI   PO410134  16.449   4.304   4.553 -0.1917 -0.1586 -0.4636
  654PSPI   GL110135  16.156   4.481   4.894 -0.0532  0.1007  0.2551
  654PSPI   GL210136  16.073   4.131   5.021 -0.0924  0.0431 -0.0094
  654PSPI   C1A10137  16.273   4.703   5.318 -0.1624 -0.1244 -0.0788
  654PSPI   C2A10138  16.503   4.908   5.473  0.0244 -0.0421 -0.1587
  654PSPI   C3A10139  16.839   5.057   5.654 -0.1314  0.0611 -0.3357
  654PSPI   C4A10140  17.155   5.197   5.945 -0.4531  0.1066 -0.1720
  654PSPI   C1B10141  16.178   4.227   5.460 -0.3070  0.3149  0.1704
  654PSPI   C2B10142  16.123   4.101   5.916  0.3726 -0.0828 -0.0726
  654PSPI   C3B10143  16.374   3.968   6.242 -0.3536  0.0096 -0.2812
  654PSPI   C4B10144  16.344   3.665   6.674 -0.0495  0.0017 -0.4802
  655PSPI    C110145  18.003  18.719   5.206  0.1338 -0.1103 -0.2233
  655PSPI    C210146  17.658  18.784   5.014  0.1575  0.2103 -0.1637
  655PSPI    C310147  17.943  18.560   4.844  0.0596  0.2391 -0.3684
  655PSPI   PO410148  18.037  18.534   5.500  0.1811 -0.2829 -0.0796
  655PSPI   GL110149  17.827  18.685   5.867  0.0568  0.0381 -0.1279
  655PSPI   GL210150  18.123  18.527   5.951 -0.2001 -0.0127 -0.0429
  655PSPI   C1A10151  17.486  18.940   5.985  0.1293 -0.0009  0.0253
  655PSPI   C2A10152  17.306  18.606   6.215 -0.0144  0.2213  0.1079
  655PSPI   C3A10153  17.270  18.362   6.603  0.1054  0.2122 -0.2655
  655PSPI   C4A10154  17.426  18.059   6.798  0.2043  0.2901  0.3796
  655PSPI   C1B10155  18.155  18.187   6.094  0.0070 -0.0332  0.1286
  655PSPI   C2B10156  18.079  18.013   6.436  0.1179  0.1040  0.0401
  655PSPI   C3B10157  18.201  17.845   6.781  0.0781 -0.0036  0.3726
  655PSPI   C4B10158  18.209  17.997   7.168 -0.0812 -0.0081 -0.2738
  656PSPI    C110159  12.835   4.840   4.966  0.0159 -0.2996  0.1528
  656PSPI    C210160  12.910   4.881   4.575 -0.2625 -0.0202  0.1245
  656PSPI    C310161  13.045   4.560   4.772  0.1070 -0.0338 -0.1408
  656PSPI   PO410162  12.628   5.024   4.978  0.1481  0.2393  0.0848
  656PSPI   GL110163  12.742   5.398   5.249 -0.0372  0.2710  0.0160
  656PSPI   GL210164  13.025   5.468   5.333  0.0375  0.0864 -0.0088
  656PSPI   C1A10165  12.661   5.365   5.715  0.2351  0.3066 -0.1757
  656PSPI   C2A10166  12.786   5.290   6.053  0.1568 -0.1464 -0.0153
  656PSPI   C3A10167  12.677   5.211   6.426  0.3133 -0.1966 -0.0104
  656PSPI   C4A10168  12.821   5.544   6.603  0.0693 -0.0859  0.1598
  656PSPI   C1B10169  13.119   5.543   5.787 -0.0949  0.0410  0.1991
  656PSPI   C2B10170  13.296   5.490   6.248 -0.1073  0.0501 -0.1560
  656PSPI   C3B10171  13.719   5.299   6.319 -0.0048 -0.0732 -0.0290
  656PSPI   C4B10172  13.693   4.943   6.621  0.1040  0.0985  0.2414
  657PSPI    C110173  16.163  11.144   5.494 -0.2054 -0.1739 -0.0209
  657PSPI    C210174  16.182  11.010   5.118 -0.0889 -0.1046 -0.0400
  657PSPI    C310175  16.317  10.783   5.419 -0.3917 -0.2556 -0.0149
  657PSPI   PO410176  15.935  11.240   5.479  0.0301 -0.2153  0.0548
  657PSPI   GL110177  15.872  11.345   5.862 -0.0295 -0.0886 -0.3254
  657PSPI   GL210178  16.050  11.098   5.993 -0.1320  0.0918 -0.0416
  657PSPI   C1A10179  15.489  11.450   6.059 -0.0381 -0.2630 -0.1212
  657PSPI   C2A10180  15.042  11.372   6.309 -0.0506 -0.3067 -0.0144
  657PSPI   C3A10181  14.624  11.537   6.545  0.0639 -0.2174 -0.4533
  657PSPI   C4A10182  14.333  11.387   6.820  0.1128  0.2285  0.1408
  657PSPI   C1B10183  16.050  10.779   6.219 -0.0605 -0.1394 -0.0214
  657PSPI   C2B10184  15.924  10.561   6.553 -0.1425 -0.0090  0.0073
  657PSPI   C3B10185  15.806  10.380   6.882 -0.4853 -0.0038 -0.1324
  657PSPI   C4B10186  15.499  10.499   7.194  0.2279 -0.0632 -0.2503
  658PSPI    C110187   6.082  12.931   5.175 -0.2543 -0.0570 -0.1445
  658PSPI    C210188   5.926  12.600   5.337 -0.1510 -0.1528 -0.2387
  658PSPI    C310189   5.793  12.731   4.983 -0.1823 -0.1004 -0.2079
  658PSPI   PO410190   6.240  12.969   5.434  0.1206  0.1239  0.0971
  658PSPI   GL110191   6.086  12.831   5.817 -0.0857 -0.0094  0.1105
  658PSPI   GL210192   5.915  12.722   6.119 -0.1761 -0.1494  0.0011
  658PSPI   C1A10193   6.219  13.074   6.206 -0.0030  0.1893 -0.0778
  658PSPI   C2A10194   6.473  13.297   6.496 -0.0274 -0.0245  0.0672
  658PSPI   C3A10195   6.694  13.431   6.915  0.0296  0.2750  0.0806
  658PSPI   C4A10196   6.838  13.756   7.148  0.0962  0.1033  0.1110
  658PSPI   C1B10197   5.758  12.810   6.588  0.2682  0.1409 -0.1288
  658PSPI   C2B10198   5.933  12.796   6.968 -0.2600  0.0886  0.1382
  658PSPI   C3B10199   5.883  12.450   7.358 -0.1586 -0.1229  0.2456
  658PSPI   C4B10200   6.088  12.060   7.486 -0.1381  0.0671  0.1338
  659PSPI    C110201  11.543   1.138   4.925 -0.1467  0.1405  0.0527
  659PSPI    C210202  11.667   1.518   4.942 -0.1139  0.1348 -0.0507
  659PSPI    C310203  11.907   1.224   5.068 -0.1740  0.1550  0.1144
  659PSPI   PO410204  11.272   1.193   4.937  0.1244 -0.1492 -0.1819
  659PSPI   GL110205  11.045   1.128   5.327 -0.0858  0.0029 -0.1532
  659PSPI   GL210206  11.350   0.974   5.438 -0.2590 -0.0665 -0.2362
  659PSPI   C1A10207  10.900   1.466   5.600 -0.0580 -0.0226 -0.1105
  659PSPI   C2A10208  10.705   1.401   5.960  0.2935  0.1258 -0.4625
  659PSPI   C3A10209  10.857   1.229   6.332  0.0445 -0.1453  0.1198
  659PSPI   C4A10210  11.010   0.850   6.400 -0.2472  0.0525  0.3452
  659PSPI   C1B10211  11.671   1.036   5.598 -0.1092 -0.1404 -0.3404
  659PSPI   C2B10212  11.559   0.970   6.020  0.2233 -0.2698  0.2241
  659PSPI   C3B10213  11.363   1.169   6.311  0.0680  0.0995  0.0698
  659PSPI   C4B10214  11.246   1.340   6.690  0.2406  0.1493  0.2550
  660PSPI    C110215   1.952  16.387   5.200 -0.0828  0.1476 -0.0888
  660PSPI    C210216   1.773  16.557   4.885 -0.1535  0.0102 -0.1238
  660PSPI    C310217   1.836  16.162   4.890  0.0013  0.0353 -0.0395
  660PSPI   PO410218   1.729  16.520   5.451  0.2080  0.2125  0.0329
  660PSPI   GL110219   1.789  16.888   5.833 -0.0635  0.0572  0.1460
  660PSPI   GL210220   1.509  16.824   5.846  0.0017 -0.0855  0.1438
  660PSPI   C1A10221   1.906  17.343   5.972  0.2249 -0.0087 -0.0638
  660PSPI   C2A10222   1.826  17.613   6.306  0.2728 -0.1211 -0.2596
  660PSPI   C3A10223   1.567  17.715   6.592 -0.1239 -0.0550  0.6064
  660PSPI   C4A10224   1.034  17.671   6.494  0.2801 -0.1882  0.0743
  660PSPI   C1B10225   1.590  16.664   6.233 -0.0538 -0.2405 -0.0444
  660PSPI   C2B10226   1.573  16.686   6.587  0.1130  0.0127  0.1146
  660PSPI   C3B10227   1.786  16.755   6.920 -0.1612  0.2811  0.0373
  660PSPI   C4B10228   1.881  16.805   7.345  0.2718  0.0599 -0.1586
  661PSPI    C110229   2.404   5.195   5.933  0.3030  0.0490 -0.0483
  661PSPI    C210230   2.570   5.522   5.772  0.1684  0.0777 -0.1305
  661PSPI    C310231   2.182   5.445   5.714  0.1321  0.0542  0.1288
  661PSPI   PO410232   2.483   5.250   6.214 -0.2048  0.0374  0.1861
  661PSPI   GL110233   2.738   5.260   6.494  0.0890 -0.2663  0.1759
  661PSPI   GL210234   3.000   5.304   6.590  0.1861 -0.0400 -0.3647
  661PSPI   C1A10235   3.020   4.864   6.809 -0.1685  0.0844  0.3909
  661PSPI   C2A10236   2.972   4.648   7.148 -0.4150 -0.0832 -0.0958
  661PSPI   C3A10237   3.088   4.730   7.459  0.1009  0.1340  0.1486
  661PSPI   C4A10238   3.432   4.624   7.580 -0.0841  0.0019 -0.0492
  661PSPI   C1B10239   3.104   5.460   6.994 -0.1900  0.1571  0.3044
  661PSPI   C2B10240   3.068   5.641   7.437  0.2469  0.0548 -0.0238
  661PSPI   C3B10241   3.011   5.803   7.891 -0.0002  0.0778  0.1143
  661PSPI   C4B10242   2.880   5.863   8.255  0.0771  0.0229 -0.4333
  662PSPI    C110243   1.433  19.158   4.790 -0.0111  0.0002  0.0363
  662PSPI    C210244   1.508  19.551   4.802  0.2726 -0.0524  0.0442
  662PSPI    C310245   1.717  19.314   4.556 -0.1176 -0.1532 -0.1992
  662PSPI   PO410246   1.380  19.073   5.055 -0.1024 -0.0764  0.0318
  662PSPI   GL110247   1.258  19.043   5.406  0.0130 -0.3738 -0.1994
  662PSPI   GL210248   1.045  19.115   5.529  0.4527  0.2316  0.1037
  662PSPI   C1A10249   1.380  18.933   5.823  0.3697 -0.1760  0.0137
  662PSPI   C2A10250   1.299  18.789   6.252 -0.5703  0.0900  0.0414
  662PSPI   C3A10251   1.466  18.805   6.685  0.2147 -0.2330  0.0305
  662PSPI   C4A10252   1.727  18.807   7.114  0.0154 -0.2545  0.3604
  662PSPI   C1B10253   0.762  18.881   5.915  0.1676 -0.0130 -0.1352
  662PSPI   C2B10254   0.759  18.794   6.416  0.1006 -0.2216 -0.2427
  662PSPI   C3B10255   0.733  18.921   6.824  0.3544 -0.2279 -0.6114
  662PSPI   C4B10256   0.532  19.048   7.236  0.2339 -0.1458 -0.1762
  663PSPI    C110257  14.044   8.593   4.979 -0.0028 -0.1915  0.0066
  663PSPI    C210258  14.058   8.211   4.863 -0.0865 -0.1552 -0.1256
  663PSPI    C310259  14.231   8.494   4.640 -0.4033 -0.0625 -0.2603
  663PSPI   PO410260  13.994   8.608   5.245 -0.1712  0.1220  0.1554
  663PSPI   GL110261  13.804   8.916   5.502 -0.2088  0.1383 -0.0019
  663PSPI   GL210262  14.178   8.864   5.665 -0.1341 -0.1120  0.0929
  663PSPI   C1A10263  13.866   9.241   5.800 -0.2086  0.1622  0.0035
  663PSPI   C2A10264  13.749   9.215   6.276 -0.2581  0.0307 -0.2595
  663PSPI   C3A10265  13.535   9.426   6.517  0.4058  0.0869  0.1487
  663PSPI   C4A10266  13.314   9.710   6.821 -0.0794 -0.1074  0.1375
  663PSPI   C1B10267  14.087   8.741   6.106 -0.0570 -0.0185 -0.2967
  663PSPI   C2B10268  14.060   8.667   6.636 -0.1005  0.2692  0.1110
  663PSPI   C3B10269  14.188   8.662   7.179 -0.0508 -0.1818 -0.0663
  663PSPI   C4B10270  14.446   8.677   7.401 -0.1186  0.0664 -0.0979
  664PSPI    C110271   7.646  16.043   4.820 -0.0302 -0.0951  0.2563
  664PSPI    C210272   7.791  15.813   4.526 -0.0255  0.0829  0.1181
  664PSPI    C310273   7.998  16.131   4.653 -0.1438  0.1514  0.1415
  664PSPI   PO410274   7.610  15.891   5.073 -0.0896  0.1386 -0.1133
  664PSPI   GL110275   7.825  15.768   5.514  0.3865  0.0274  0.2869
  664PSPI   GL210276   8.087  15.957   5.484  0.1013 -0.0115  0.4182
  664PSPI   C1A10277   7.698  15.539   5.907 -0.2121 -0.1195  0.0533
  664PSPI   C2A10278   7.920  15.320   6.241  0.0857  0.1194  0.1011
  664PSPI   C3A10279   8.181  15.214   6.597 -0.2586  0.1613  0.0004
  664PSPI   C4A10280   8.357  15.143   7.085  0.3258  0.1552 -0.2298
  664PSPI   C1B10281   7.776  16.225   5.711  0.0308 -0.0323  0.1213
  664PSPI   C2B10282   7.723  16.384   6.091 -0.0354 -0.2932 -0.4923
  664PSPI   C3B10283   8.014  16.587   6.524 -0.2716 -0.2616 -0.1656
  664PSPI   C4B10284   8.152  16.891   6.713  0.0679  0.1048  0.0567
  665PSPI    C110285  13.102  12.398   4.476  0.0472 -0.0415 -0.2033
  665PSPI    C210286  13.326  12.076   4.398 -0.2087 -0.2494 -0.0943
  665PSPI    C310287  13.060  12.205   4.129  0.1421  0.0883 -0.2877
  665PSPI   PO410288  13.242  12.437   4.756 -0.0623  0.2915  0.1184
  665PSPI   GL110289  13.263  12.109   5.140 -0.2383 -0.0172 -0.1548
  665PSPI   GL210290  12.998  12.337   5.283  0.2475 -0.1489  0.0658
  665PSPI   C1A10291  13.198  11.824   5.551  0.1158 -0.3526  0.4043
  665PSPI   C2A10292  13.475  11.910   6.011 -0.1496 -0.0995 -0.1733
  665PSPI   C3A10293  13.497  11.900   6.499  0.0339  0.0029 -0.0726
  665PSPI   C4A10294  13.422  11.687   6.863 -0.0435 -0.0670  0.1028
  665PSPI   C1B10295  12.833  12.217   5.604  0.0730  0.2362  0.0236
  665PSPI   C2B10296  12.910  11.907   5.989 -0.3084  0.2351  0.4433
  665PSPI   C3B10297  12.996  11.746   6.402  0.0988  0.1236  0.1651
  665PSPI   C4B10298  12.861  11.615   6.818  0.0343 -0.0904 -0.0020
  666PSPI    C110299  10.973  15.984   5.040 -0.0556  0.2963  0.0309
  666PSPI    C210300  10.839  15.792   4.716  0.0587 -0.0709  0.1965
  666PSPI    C310301  10.770  16.183   4.759 -0.1746 -0.0698 -0.1488
  666PSPI   PO410302  10.907  15.877   5.287 -0.1053  0.1474  0.0046
  666PSPI   GL110303  10.796  16.016   5.722  0.1962 -0.1843 -0.0831
  666PSPI   GL210304  10.590  15.763   5.673  0.3182 -0.1832 -0.4653
  666PSPI   C1A10305  11.025  15.845   6.024  0.1164  0.0324 -0.0690
  666PSPI   C2A10306  10.896  15.839   6.495 -0.1460 -0.2366 -0.1887
  666PSPI   C3A10307  10.805  15.905   6.888 -0.0266  0.1014  0.1977
  666PSPI   C4A10308  10.475  15.810   7.245  0.0481 -0.2194 -0.3316
  666PSPI   C1B10309  10.433  16.046   6.012  0.1900  0.4727  0.0829
  666PSPI   C2B10310  10.417  16.012   6.396  0.2532 -0.0298  0.1560
  666PSPI   C3B10311  10.271  15.979   6.836  0.0308  0.3327  0.1816
  666PSPI   C4B10312  10.075  15.633   7.022 -0.0901 -0.3956 -0.2579
  667PSPI    C110313   0.048   5.585   5.581  0.1063  0.2552  0.0831
  667PSPI    C210314   0.374   5.692   5.375  0.0966 -0.1305 -0.1420
  667PSPI    C310315   0.015   5.833   5.269  0.1333 -0.0655 -0.1803
  667PSPI   PO410316   0.162   5.675   5.825  0.2970 -0.0155  0.2692
  667PSPI   GL110317   0.260   5.895   6.050 -0.1174 -0.0737 -0.2650
  667PSPI   GL210318   0.029   6.151   6.130 -0.2743 -0.1759  0.1363
  667PSPI   C1A10319   0.105   5.683   6.449 -0.0648  0.3904 -0.1904
  667PSPI   C2A10320  -0.330   5.696   6.598 -0.0518  0.1205 -0.0685
  667PSPI   C3A10321  -0.467   5.676   6.991  0.0957 -0.2508 -0.0674
  667PSPI   C4A10322  -0.481   5.403   7.331  0.1485  0.1059 -0.1826
  667PSPI   C1B10323   0.022   6.247   6.482  0.4020  0.1230 -0.0690
  667PSPI   C2B10324  -0.093   6.096   6.899 -0.1315  0.0979 -0.1277
  667PSPI   C3B10325  -0.120   5.995   7.314  0.2660  0.2703 -0.1382
  667PSPI   C4B10326   0.167   6.016   7.622  0.2363 -0.0400  0.3597
  668PSPI    C110327  11.081  12.276   4.836 -0.4284 -0.0890 -0.0283
  668PSPI    C210328  10.917  12.189   4.482 -0.0389  0.3770 -0.3368
  668PSPI    C310329  11.308  12.270   4.506  0.0634 -0.2118  0.3003
  668PSPI   PO410330  11.018  12.184   5.054 -0.0174  0.0810  0.3277
  668PSPI   GL110331  10.846  11.973   5.510  0.1443 -0.1494 -0.1346
  668PSPI   GL210332  10.788  12.263   5.503  0.0107 -0.0927  0.1277
  668PSPI   C1A10333  10.604  11.870   5.856  0.2393 -0.3581  0.0564
  668PSPI   C2A10334  10.478  11.619   6.222 -0.0544  0.3008  0.2553
  668PSPI   C3A10335  10.125  11.509   6.319  0.0702 -0.1937  0.1743
  668PSPI   C4A10336   9.740  11.532   6.625 -0.1299  0.2955 -0.1594
  668PSPI   C1B10337  10.520  12.330   5.857 -0.4575 -0.1308 -0.2218
  668PSPI   C2B10338  10.492  12.174   6.230 -0.3907 -0.2230  0.2779
  668PSPI   C3B10339  10.677  12.049   6.598  0.1878  0.0688  0.0492
  668PSPI   C4B10340  10.570  11.552   6.737  0.2218 -0.4652 -0.2431
  669PSPI    C110341   4.642   6.915   5.732 -0.1035 -0.0392 -0.0922
  669PSPI    C210342   5.036   6.984   5.740 -0.1042 -0.0451 -0.0003
  669PSPI    C310343   4.897   6.626   5.625 -0.0973  0.0726 -0.3889
  669PSPI   PO410344   4.507   7.036   5.986  0.0861  0.0889 -0.0763
  669PSPI   GL110345   4.479   7.078   6.507 -0.3163  0.0917  0.0564
  669PSPI   GL210346   4.112   7.192   6.478  0.1172  0.2023  0.0395
  669PSPI   C1A10347   4.339   6.673   6.795  0.2277 -0.2558  0.0408
  669PSPI   C2A10348   4.419   6.622   7.229 -0.2021 -0.0781  0.2535
  669PSPI   C3A10349   4.625   6.652   7.544  0.2424 -0.2450  0.0139
  669PSPI   C4A10350   5.047   6.483   7.541  0.1043 -0.0319 -0.3835
  669PSPI   C1B10351   3.869   6.922   6.736  0.0600 -0.0871 -0.3626
  669PSPI   C2B10352   3.910   6.802   7.090 -0.1439  0.0163 -0.2328
  669PSPI   C3B10353   4.140   6.899   7.607  0.0011 -0.5583  0.1256
  669PSPI   C4B10354   4.314   6.804   7.962  0.1953 -0.0339  0.2596
  670PSPI    C110355   5.372   2.731   5.131 -0.0730 -0.0674  0.0603
  670PSPI    C210356   5.232   2.680   4.759  0.0474 -0.2296  0.0365
  670PSPI    C310357   5.228   3.043   4.926 -0.2686 -0.2061 -0.0166
  670PSPI   PO410358   5.587   2.663   5.173  0.1489 -0.1282 -0.0290
  670PSPI   GL110359   5.648   2.501   5.609 -0.2895 -0.2481  0.0880
  670PSPI   GL210360   5.786   2.755   5.841 -0.2740 -0.0897  0.0668
  670PSPI   C1A10361   5.773   2.114   5.812  0.1566 -0.0250 -0.0840
  670PSPI   C2A10362   5.562   1.774   6.050  0.1473  0.0831  0.2509
  670PSPI   C3A10363   5.273   1.718   6.448 -0.2389 -0.3212 -0.1197
  670PSPI   C4A10364   5.071   1.608   6.795 -0.1209 -0.0498  0.1307
  670PSPI   C1B10365   5.748   2.678   6.278 -0.1258 -0.1616 -0.0016
  670PSPI   C2B10366   5.854   2.505   6.657  0.2066 -0.1044 -0.1802
  670PSPI   C3B10367   6.094   2.198   6.872 -0.2980 -0.1050  0.2323
  670PSPI   C4B10368   5.986   1.782   6.975 -0.0589 -0.1115  0.2834
  671PSPI    C110369  13.083  13.710   4.811  0.0323  0.1308 -0.1969
  671PSPI    C210370  12.737  13.553   4.937  0.1920  0.0250  0.1193
  671PSPI    C310371  12.779  13.663   4.555 -0.1959  0.0575  0.0822
  671PSPI   PO410372  13.117  13.881   5.000  0.0414 -0.3444 -0.2279
  671PSPI   GL110373  13.181  13.976   5.370  0.0764 -0.0333  0.3138
  671PSPI   GL210374  13.059  13.756   5.479  0.2306 -0.2052 -0.0116
  671PSPI   C1A10375  13.213  14.101   5.807  0.3111  0.0899 -0.4618
  671PSPI   C2A10376  13.404  13.849   6.117 -0.0357 -0.2386 -0.2244
  671PSPI   C3A10377  13.173  13.636   6.466  0.3457 -0.0629 -0.1535
  671PSPI   C4A10378  12.944  13.680   6.866  0.0907 -0.1570  0.0067
  671PSPI   C1B10379  13.249  13.486   5.790 -0.1966  0.3563 -0.0364
  671PSPI   C2B10380  13.505  13.383   6.249  0.1229  0.2871 -0.2824
  671PSPI   C3B10381  13.777  13.619   6.462  0.0891 -0.0154 -0.3328
  671PSPI   C4B10382  13.761  13.813   6.864  0.2461 -0.2038 -0.2189
  672PSPI    C110383   4.442  10.370   5.598  0.0858 -0.0459  0.0224
  672PSPI    C210384   4.642  10.407   5.943  0.0052 -0.0705  0.0719
  672PSPI    C310385   4.692  10.081   5.717 -0.0393 -0.1133  0.1236
  672PSPI   PO410386   4.169  10.423   5.652  0.1041 -0.2403 -0.0184
  672PSPI   GL110387   4.174  10.515   6.088  0.0723  0.2026 -0.0394
  672PSPI   GL210388   4.283  10.137   6.060  0.1654  0.1516 -0.0112
  672PSPI   C1A10389   4.489  10.428   6.417  0.2999 -0.1975 -0.2744
  672PSPI   C2A10390   4.757  10.229   6.730  0.3369  0.1322  0.0269
  672PSPI   C3A10391   5.058  10.190   7.013 -0.0168 -0.0961  0.0463
  672PSPI   C4A10392   5.197   9.849   6.975 -0.2445  0.2304 -0.0798
  672PSPI   C1B10393   4.103  10.002   6.398  0.1047  0.0164 -0.1035
  672PSPI   C2B10394   4.032   9.636   6.794 -0.0440  0.1053  0.0333
  672PSPI   C3B10395   4.154   9.271   6.983  0.1890 -0.0965  0.1661
  672PSPI   C4B10396   4.459   9.196   7.241 -0.1919 -0.1152 -0.0774
  673PSPI    C110397  11.382  13.442   4.811 -0.0365  0.1716 -0.2064
  673PSPI    C210398  11.474  13.807   4.675 -0.1128  0.2808  0.0310
  673PSPI    C310399  11.097  13.719   4.776 -0.0747  0.1714  0.0802
  673PSPI   PO410400  11.605  13.194   4.873  0.0347  0.2939 -0.2092
  673PSPI   GL110401  11.634  13.127   5.356 -0.1514 -0.2200  0.0359
  673PSPI   GL210402  11.820  13.251   5.542  0.0036  0.1334  0.0895
  673PSPI   C1A10403  11.449  12.924   5.648 -0.3437  0.0005 -0.0480
  673PSPI   C2A10404  11.449  12.688   6.044 -0.1523  0.1222 -0.1125
  673PSPI   C3A10405  11.673  12.368   6.196  0.2156 -0.1547  0.3845
  673PSPI   C4A10406  11.817  12.008   6.506 -0.0486  0.0411 -0.1014
  673PSPI   C1B10407  12.244  13.093   5.497  0.0362 -0.1819  0.1834
  673PSPI   C2B10408  12.318  12.800   5.657  0.1657 -0.2209 -0.0744
  673PSPI   C3B10409  11.878  12.689   5.807  0.0643 -0.2908 -0.0818
  673PSPI   C4B10410  11.691  12.395   5.656 -0.0333  0.2091 -0.1605
  674POPI    C110411   8.599   1.837   4.767  0.2071  0.1221  0.1555
  674POPI    C210412   8.283   1.818   4.523  0.1781  0.4642  0.1620
  674POPI    C310413   8.556   1.526   4.519 -0.0131  0.2843 -0.0133
  674POPI   PO410414   8.561   1.901   5.011 -0.4700 -0.2884  0.0849
  674POPI   GL110415   8.587   1.826   5.384  0.3267 -0.1201 -0.1096
  674POPI   GL210416   8.338   1.675   5.401 -0.1316  0.2674  0.1054
  674POPI   C1A10417   8.568   2.060   5.651 -0.1499 -0.0986  0.0731
  674POPI   D2A10418   8.094   2.243   5.834 -0.1223 -0.0893  0.2695
  674POPI   C3A10419   7.884   2.079   6.122  0.2023  0.0641 -0.0788
  674POPI   C4A10420   7.911   2.062   6.605  0.0442  0.0507 -0.0624
  674POPI   C1B10421   8.267   1.717   5.837 -0.2228 -0.4099 -0.3383
  674POPI   C2B10422   8.147   1.515   6.177  0.2307  0.0359  0.1672
  674POPI   C3B10423   8.008   1.479   6.564 -0.2424  0.1829 -0.1534
  674POPI   C4B10424   7.652   1.460   6.842 -0.1343 -0.1383  0.2331
  675POPI    C110425   5.451  16.090   5.041 -0.2301 -0.1044 -0.2821
  675POPI    C210426   5.406  16.115   4.644  0.1880  0.0405 -0.3247
  675POPI    C310427   5.771  16.138   4.806  0.0099  0.1053  0.0790
  675POPI   PO410428   5.201  16.174   5.156  0.0793 -0.0323 -0.0658
  675POPI   GL110429   5.208  16.159   5.532  0.2660 -0.1345  0.0730
  675POPI   GL210430   5.592  16.157   5.490  0.0028  0.0917 -0.3538
  675POPI   C1A10431   5.390  16.088   5.976 -0.2978  0.0828 -0.2029
  675POPI   D2A10432   5.633  16.035   6.298  0.1838 -0.1605  0.0863
  675POPI   C3A10433   5.877  15.725   6.301  0.1028 -0.0768  0.1999
  675POPI   C4A10434   6.258  15.454   6.176  0.2063 -0.3771 -0.0320
  675POPI   C1B10435   5.884  16.048   5.865 -0.0080 -0.1417 -0.2978
  675POPI   C2B10436   6.325  15.923   6.073  0.2887 -0.2377  0.2235
  675POPI   C3B10437   6.497  15.970   6.502  0.0759 -0.2778  0.3088
  675POPI   C4B10438   6.709  15.897   6.927 -0.4411  0.0233  0.1386
  676POPI    C110439  17.572   9.685   5.070 -0.0015  0.0675  0.2009
  676POPI    C210440  17.945   9.707   4.926 -0.0086 -0.1305  0.1484
  676POPI    C310441  17.646   9.893   4.736  0.0495 -0.0407  0.1439
  676POPI   PO410442  17.699   9.711   5.325  0.2957 -0.3519 -0.0434
  676POPI   GL110443  17.834   9.858   5.735 -0.0514 -0.2544  0.0670
  676POPI   GL210444  17.506   9.922   5.950  0.0993  0.1514 -0.1863
  676POPI   C1A10445  17.939   9.983   6.198  0.1660  0.1704 -0.0768
  676POPI   D2A10446  17.623   9.852   6.486 -0.3015 -0.1241 -0.0087
  676POPI   C3A10447  17.426  10.240   6.491 -0.1800 -0.5353  0.2671
  676POPI   C4A10448  17.065  10.538   6.540  0.1342  0.0967 -0.2337
  676POPI   C1B10449  17.135   9.909   6.253  0.1729  0.2645 -0.4097
  676POPI   C2B10450  16.923   9.965   6.674  0.1629  0.0177 -0.0038
  676POPI   C3B10451  16.867  10.182   6.984  0.0106  0.0266 -0.1316
  676POPI   C4B10452  16.620  10.479   7.229 -0.1232 -0.0246 -0.0133
  677POPI    C110453  19.347  19.215   4.881 -0.2078  0.0826  0.1962
  677POPI    C210454  19.671  19.393   4.728 -0.2510  0.2518  0.2991
  677POPI    C310455  19.666  18.996   4.779 -0.1162  0.2316  0.1605
  677POPI   PO410456  19.353  19.409   5.134  0.3156 -0.0153  0.0447
  677POPI   GL110457  19.265  19.352   5.515 -0.3004  0.2527 -0.2937
  677POPI   GL210458  19.272  19.205   5.756 -0.0372  0.3451 -0.0826
  677POPI   C1A10459  19.548  19.620   5.774 -0.2879  0.0954  0.2718
  677POPI   D2A10460  19.888  19.860   5.846  0.1432 -0.1306  0.2126
  677POPI   C3A10461  20.133  19.802   6.237 -0.1320 -0.2245  0.1840
  677POPI   C4A10462  20.367  19.707   6.636  0.3904 -0.0272  0.3578
  677POPI   C1B10463  19.282  19.422   6.109 -0.3756  0.0353 -0.2762
  677POPI   C2B10464  19.638  19.597   6.319  0.0560 -0.0009 -0.0179
  677POPI   C3B10465  19.856  19.772   6.703  0.0198  0.0998  0.1762
  677POPI   C4B10466  20.149  19.423   6.959 -0.3719  0.0177  0.2777
  678POPI    C110467  15.215  18.639   4.552  0.3366  0.2400 -0.0905
  678POPI    C210468  15.454  18.326   4.481 -0.2812 -0.2623 -0.0520
  678POPI    C310469  15.184  18.437   4.208 -0.1506  0.1695 -0.0135
  678POPI   PO410470  15.051  18.673   4.863 -0.0320 -0.2636 -0.1556
  678POPI   GL110471  14.931  18.713   5.331 -0.1038  0.4942  0.0518
  678POPI   GL210472  14.852  19.001   5.261 -0.0558 -0.0751 -0.1168
  678POPI   C1A10473  15.301  18.903   5.469  0.0986 -0.0650 -0.0528
  678POPI   D2A10474  15.524  19.071   5.853  0.2962  0.3328 -0.2285
  678POPI   C3A10475  15.347  19.248   6.180 -0.2694 -0.1656  0.1771
  678POPI   C4A10476  15.172  19.426   6.550  0.0208 -0.2386 -0.3526
  678POPI   C1B10477  14.817  19.189   5.654 -0.8000 -0.0669 -0.0383
  678POPI   C2B10478  14.812  19.177   6.090 -0.1856 -0.4018 -0.0117
  678POPI   C3B10479  14.687  19.319   6.462 -0.0746 -0.1085 -0.1939
  678POPI   C4B10480  14.747  19.568   6.778 -0.0405  0.1387  0.4298
  679POPI    C110481  18.476  12.780   5.241 -0.1729  0.3107  0.1156
  679POPI    C210482  18.831  12.961   5.272 -0.0612  0.0994  0.0946
  679POPI    C310483  18.573  13.072   4.986  0.0751  0.1086 -0.0261
  679POPI   PO410484  18.332  12.751   5.517 -0.2967  0.1549  0.1108
  679POPI   GL110485  18.280  12.641   5.994  0.1575 -0.0664  0.0446
  679POPI   GL210486  18.060  12.490   5.957  0.1299 -0.1235  0.2470
  679POPI   C1A10487  18.373  12.398   6.384  0.2535 -0.0473  0.2355
  679POPI   D2A10488  18.355  12.285   6.751  0.0071 -0.1014  0.2065
  679POPI   C3A10489  18.528  12.546   6.973  0.0448 -0.1338 -0.0418
  679POPI   C4A10490  18.900  12.650   7.316  0.1960  0.0841 -0.2448
  679POPI   C1B10491  17.860  12.587   6.313 -0.1931 -0.1301  0.1659
  679POPI   C2B10492  17.835  12.553   6.773  0.0913  0.2299  0.3799
  679POPI   C3B10493  18.059  12.418   7.117  0.1647  0.0975  0.1764
  679POPI   C4B10494  18.355  12.485   7.462 -0.0155 -0.0911  0.0915
  680POPI    C110495   0.442   0.649   5.143 -0.0019 -0.1868 -0.0356
  680POPI    C210496   0.299   0.311   5.301  0.1520 -0.1596  0.1662
  680POPI    C310497   0.689   0.394   5.327  0.1542 -0.0789 -0.0934
  680POPI   PO410498   0.260   0.896   5.221  0.2233 -0.3234 -0.0384
  680POPI   GL110499   0.188   0.808   5.688 -0.2788  0.3531  0.2460
  680POPI   GL210500   0.293   0.941   5.815 -0.0699 -0.3882 -0.1680
  680POPI   C1A10501  -0.050   0.598   5.972  0.0842  0.1738 -0.5591
  680POPI   D2A10502  -0.491   0.506   6.093  0.0471 -0.0791 -0.0561
  680POPI   C3A10503  -0.598   0.155   6.204  0.1560 -0.3810 -0.0561
  680POPI   C4A10504  -0.899  -0.117   6.399  0.3154  0.1786  0.0332
  680POPI   C1B10505   0.319   0.767   6.327  0.0989  0.2093  0.2251
  680POPI   C2B10506   0.135   0.813   6.819 -0.0307 -0.1610  0.5107
  680POPI   C3B10507   0.500   1.008   7.077  0.2319 -0.3104  0.2394
  680POPI   C4B10508   0.929   0.958   7.243 -0.0854 -0.3494 -0.0669
  681POPI    C110509   6.160   5.323   5.657 -0.2780 -0.1499  0.1782
  681POPI    C210510   6.254   5.687   5.521 -0.1005 -0.1904  0.1910
  681POPI    C310511   5.884   5.545   5.470 -0.1810  0.0060  0.2182
  681POPI   PO410512   6.401   5.257   5.791 -0.1131  0.2242  0.1843
  681POPI   GL110513   6.244   5.259   6.222 -0.1477  0.0127  0.0948
  681POPI   GL210514   6.308   5.577   6.364 -0.4971 -0.5096 -0.2291
  681POPI   C1A10515   5.884   5.378   6.638 -0.1256  0.1788  0.2295
  681POPI   D2A10516   5.459   5.446   6.771 -0.4261  0.0852  0.1252
  681POPI   C3A10517   5.309   4.983   6.959 -0.0624  0.3396  0.0116
  681POPI   C4A10518   5.205   4.599   7.214 -0.2716 -0.2521 -0.0957
  681POPI   C1B10519   6.087   5.836   6.567  0.0812 -0.3227  0.1166
  681POPI   C2B10520   5.998   5.691   6.991 -0.0736 -0.2311 -0.3963
  681POPI   C3B10521   5.838   5.419   7.196  0.3432 -0.0168 -0.0965
  681POPI   C4B10522   5.430   5.313   7.334  0.1538  0.1319 -0.0464
  682POPI    C110523   1.987   5.781   6.209  0.0121  0.2913 -0.0966
  682POPI    C210524   1.901   6.112   6.001 -0.0664  0.1497 -0.2929
  682POPI    C310525   2.229   5.900   5.913  0.0250  0.2159 -0.1165
  682POPI   PO410526   1.972   5.878   6.464 -0.1421 -0.2445 -0.1825
  682POPI   GL110527   2.051   6.224   6.742  0.0352 -0.3063  0.0323
  682POPI   GL210528   2.367   6.053   6.745 -0.0839  0.0404  0.1311
  682POPI   C1A10529   1.986   6.692   6.764  0.0445  0.0360 -0.2480
  682POPI   D2A10530   2.236   6.951   6.882 -0.0590 -0.0562  0.0076
  682POPI   C3A10531   2.305   7.157   7.218 -0.1242 -0.2262 -0.0029
  682POPI   C4A10532   2.241   7.494   7.482  0.1238 -0.0334 -0.0257
  682POPI   C1B10533   2.237   5.937   7.091  0.1612  0.4154  0.1773
  682POPI   C2B10534   2.037   5.515   7.277 -0.0734  0.2822 -0.0135
  682POPI   C3B10535   2.182   5.092   7.490  0.0607 -0.0269  0.1396
  682POPI   C4B10536   1.968   4.593   7.522 -0.2082 -0.2064  0.2239
  683POPI    C110537   1.009   1.208   5.131  0.1035 -0.2347 -0.0723
  683POPI    C210538   1.199   1.517   4.961  0.1165 -0.2459 -0.0782
  683POPI    C310539   1.191   1.161   4.778 -0.1938 -0.1595 -0.2387
  683POPI   PO410540   0.939   1.393   5.363 -0.1324  0.0615 -0.1298
  683POPI   GL110541   0.861   1.518   5.711 -0.0891  0.1257 -0.2580
  683POPI   GL210542   0.741   1.183   5.869  0.2395 -0.1657  0.1111
  683POPI   C1A10543   0.675   1.539   6.225 -0.2748  0.1101 -0.0409
  683POPI   D2A10544   0.506   1.307   6.552  0.0908 -0.1090 -0.2065
  683POPI   C3A10545   0.118   1.390   6.798  0.2455 -0.0731 -0.1174
  683POPI   C4A10546   0.156   1.579   7.253 -0.0084 -0.0181  0.0455
  683POPI   C1B10547   0.798   0.976   6.238  0.0816 -0.2384 -0.1601
  683POPI   C2B10548   0.751   0.787   6.687 -0.1286 -0.1751  0.0266
  683POPI   C3B10549   1.185   0.684   6.884  0.2341 -0.1821  0.0901
  683POPI   C4B10550   1.401   0.729   7.219  0.0006  0.0552 -0.0385
  684POPI    C110551   4.160  17.240   5.090  0.0200 -0.2432 -0.2016
  684POPI    C210552   3.917  17.337   5.393  0.0270 -0.1997 -0.2097
  684POPI    C310553   3.775  17.322   5.019  0.0433 -0.1460 -0.2182
  684POPI   PO410554   4.326  17.046   5.221 -0.0082 -0.0149  0.1911
  684POPI   GL110555   4.415  17.188   5.571 -0.1096  0.0615  0.1926
  684POPI   GL210556   4.188  16.918   5.789  0.0621 -0.0539 -0.1149
  684POPI   C1A10557   4.316  17.493   5.955  0.0070 -0.1524 -0.2565
  684POPI   D2A10558   4.275  17.524   6.384 -0.1426 -0.0828  0.0174
  684POPI   C3A10559   3.858  17.369   6.635 -0.1276  0.0178 -0.0111
  684POPI   C4A10560   3.600  17.276   6.871  0.3235  0.0026 -0.0295
  684POPI   C1B10561   4.540  16.672   6.058  0.4283 -0.1696 -0.1106
  684POPI   C2B10562   4.894  16.453   6.282  0.2440 -0.1130  0.0010
  684POPI   C3B10563   5.328  16.427   6.492  0.0281 -0.0189  0.2308
  684POPI   C4B10564   5.751  16.540   6.607 -0.1042  0.0010 -0.2075
  685POPI    C110565  13.019  12.884   4.927 -0.2619  0.1020  0.0528
  685POPI    C210566  13.111  12.862   4.539 -0.3346  0.0260  0.0394
  685POPI    C310567  12.934  13.189   4.684 -0.1194  0.1400  0.0499
  685POPI   PO410568  13.322  12.823   5.072 -0.0790 -0.2166 -0.0964
  685POPI   GL110569  13.454  12.826   5.543  0.1907  0.0302 -0.0623
  685POPI   GL210570  13.146  13.001   5.512 -0.1633  0.0499 -0.0374
  685POPI   C1A10571  13.609  12.994   5.970  0.2042 -0.1834  0.4113
  685POPI   D2A10572  13.530  12.835   6.325 -0.2831  0.3910 -0.2703
  685POPI   C3A10573  13.566  13.046   6.663  0.0389 -0.1792 -0.3656
  685POPI   C4A10574  13.447  13.381   6.901 -0.1567 -0.0104 -0.5597
  685POPI   C1B10575  13.164  12.894   5.949 -0.0516  0.3092 -0.1773
  685POPI   C2B10576  13.028  12.721   6.345  0.0365  0.0736 -0.1008
  685POPI   C3B10577  12.840  12.623   6.730 -0.2148  0.0082 -0.0352
  685POPI   C4B10578  12.891  12.663   7.215 -0.1313 -0.1446  0.2363
  686POPI    C110579   0.533   8.818   5.249 -0.0027 -0.1151 -0.0490
  686POPI    C210580   0.227   8.877   4.999 -0.1908  0.2872  0.2637
  686POPI    C310581   0.595   8.995   4.896 -0.1569 -0.0754 -0.0566
  686POPI   PO410582   0.280   8.971   5.579  0.0081 -0.3036  0.0276
  686POPI   GL110583   0.410   8.733   5.963  0.0715  0.0342  0.2050
  686POPI   GL210584   0.391   8.479   6.075 -0.0024 -0.2071 -0.0225
  686POPI   C1A10585   0.154   8.863   6.251 -0.0417 -0.2233  0.1488
  686POPI   D2A10586  -0.083   8.617   6.517 -0.0994  0.3871  0.0910
  686POPI   C3A10587  -0.064   8.269   6.750  0.0352 -0.4127 -0.4541
  686POPI   C4A10588  -0.108   8.275   7.177  0.1671  0.3584 -0.6051
  686POPI   C1B10589   0.361   8.507   6.505 -0.3038  0.1915 -0.4545
  686POPI   C2B10590   0.091   8.646   6.985 -0.0310  0.0715 -0.1449
  686POPI   C3B10591   0.073   8.752   7.457  0.2772  0.2412  0.2918
  686POPI   C4B10592  -0.012   8.875   7.899 -0.0410 -0.0840  0.0518
  687POPI    C110593  16.005   1.975   4.629 -0.2157 -0.0950  0.2619
  687POPI    C210594  15.613   1.940   4.701 -0.3193  0.1171 -0.1608
  687POPI    C310595  15.762   1.825   4.349  0.0046  0.0236  0.0025
  687POPI   PO410596  16.081   1.969   4.846 -0.0812 -0.0938 -0.0500
  687POPI   GL110597  16.221   1.909   5.280 -0.2543  0.2597 -0.1769
  687POPI   GL210598  15.936   1.789   5.332 -0.0551 -0.0442  0.1669
  687POPI   C1A10599  16.388   2.126   5.613  0.1335 -0.0878 -0.0203
  687POPI   D2A10600  16.283   2.153   5.978  0.1018  0.0403  0.1050
  687POPI   C3A10601  16.321   2.418   6.212 -0.1116 -0.1525  0.3958
  687POPI   C4A10602  16.200   2.820   6.302 -0.1533 -0.0138 -0.1929
  687POPI   C1B10603  15.734   2.020   5.691 -0.1172  0.0735 -0.0845
  687POPI   C2B10604  15.819   2.247   6.152  0.1077 -0.0268  0.0345
  687POPI   C3B10605  15.773   2.498   6.529  0.1110  0.2588 -0.2439
  687POPI   C4B10606  15.674   2.945   6.605 -0.0003 -0.3844  0.1040
  688POPI    C110607  14.581   8.870   4.699  0.1492  0.0243 -0.1319
  688POPI    C210608  14.679   8.557   4.928 -0.0470 -0.0170 -0.1021
  688POPI    C310609  14.743   8.544   4.533 -0.1143 -0.1206 -0.1098
  688POPI   PO410610  14.721   9.111   4.844  0.0794 -0.2953  0.1084
  688POPI   GL110611  14.860   9.325   5.331  0.0140  0.2227  0.2612
  688POPI   GL210612  15.124   9.018   5.607  0.0156 -0.3469  0.2168
  688POPI   C1A10613  14.947   9.643   5.713  0.3493  0.4439 -0.1389
  688POPI   D2A10614  14.586   9.765   5.896 -0.1977  0.1899 -0.0623
  688POPI   C3A10615  14.523   9.786   6.334  0.0661  0.0662  0.1570
  688POPI   C4A10616  14.100   9.583   6.593 -0.2631  0.0428 -0.0506
  688POPI   C1B10617  14.820   9.053   5.829  0.1066  0.0315  0.0932
  688POPI   C2B10618  14.764   9.006   6.226  0.0786  0.2530 -0.2736
  688POPI   C3B10619  14.903   8.981   6.630  0.3316 -0.0671  0.2075
  688POPI   C4B10620  15.007   9.025   7.136 -0.3807  0.0120 -0.0245
  689POPI    C110621   9.823   9.019   5.267 -0.2691 -0.0181  0.4105
  689POPI    C210622   9.584   9.311   5.136 -0.0255 -0.0969 -0.2498
  689POPI    C310623   9.455   8.932   5.137 -0.0054 -0.1040 -0.3272
  689POPI   PO410624   9.871   9.110   5.519 -0.0953  0.5684  0.3798
  689POPI   GL110625   9.998   8.895   5.890 -0.1792  0.0804 -0.1817
  689POPI   GL210626  10.350   8.713   5.862  0.0345 -0.1648  0.2977
  689POPI   C1A10627  10.139   9.056   6.318  0.0284 -0.2987  0.1608
  689POPI   D2A10628  10.148   9.189   6.741  0.3713  0.0593  0.0636
  689POPI   C3A10629   9.786   9.386   6.903 -0.0246  0.1380  0.4184
  689POPI   C4A10630   9.446   9.682   6.743 -0.0055 -0.1089  0.0497
  689POPI   C1B10631  10.372   8.592   6.269 -0.2387 -0.0366  0.1482
  689POPI   C2B10632  10.562   8.372   6.595 -0.2143  0.1008 -0.0236
  689POPI   C3B10633  10.688   8.243   7.022  0.1455  0.0511 -0.0902
  689POPI   C4B10634  10.662   8.251   7.475 -0.3324  0.0453 -0.3380
  690POPI    C110635  11.923  11.017   4.761 -0.1494 -0.1312  0.0911
  690POPI    C210636  12.218  10.751   4.804 -0.0572 -0.0486 -0.0229
  690POPI    C310637  12.296  11.114   4.657 -0.2066 -0.0070 -0.0015
  690POPI   PO410638  11.853  11.147   4.996  0.0554  0.1556 -0.0434
  690POPI   GL110639  11.707  11.205   5.379 -0.2079  0.1351 -0.1213
  690POPI   GL210640  11.947  11.063   5.639 -0.0368 -0.3998 -0.0649
  690POPI   C1A10641  11.692  11.630   5.666  0.0956 -0.0498  0.0817
  690POPI   D2A10642  11.663  11.888   5.947  0.0245 -0.0947  0.1921
  690POPI   C3A10643  11.390  11.927   6.236 -0.0140 -0.0112 -0.3117
  690POPI   C4A10644  10.931  11.862   6.185 -0.0200 -0.0050  0.0159
  690POPI   C1B10645  11.978  11.060   6.068  0.2050 -0.4398  0.0944
  690POPI   C2B10646  11.837  11.058   6.563  0.0692 -0.1318 -0.0178
  690POPI   C3B10647  11.903  10.812   6.915 -0.1530  0.1605 -0.3029
  690POPI   C4B10648  11.702  10.642   7.285 -0.0858 -0.3487  0.0323
  691POPI    C110649   6.088  14.692   5.348  0.0031  0.2062 -0.0304
  691POPI    C210650   6.322  14.693   5.024 -0.0656 -0.4353 -0.0965
  691POPI    C310651   5.950  14.840   5.003  0.0391 -0.1808 -0.2163
  691POPI   PO410652   6.282  14.490   5.486 -0.2202  0.2630 -0.2650
  691POPI   GL110653   6.463  14.520   5.885  0.0697 -0.1972 -0.1723
  691POPI   GL210654   6.335  14.796   5.944  0.2048 -0.2373 -0.1985
  691POPI   C1A10655   6.785  14.620   6.232 -0.1803  0.1909 -0.4120
  691POPI   D2A10656   7.081  14.837   6.495 -0.2225  0.1072  0.2036
  691POPI   C3A10657   7.042  15.229   6.540 -0.0736 -0.0400 -0.1419
  691POPI   C4A10658   7.154  15.573   6.819 -0.1139  0.5413 -0.1034
  691POPI   C1B10659   6.333  14.900   6.379  0.1422 -0.0968 -0.0210
  691POPI   C2B10660   6.565  15.132   6.829  0.0635  0.0167 -0.1313
  691POPI   C3B10661   6.640  15.450   7.183 -0.0920 -0.1318  0.2898
  691POPI   C4B10662   6.871  15.629   7.452  0.1853  0.1665  0.0616
  692POPI    C110663  16.572  11.888   5.283  0.0230 -0.2302 -0.0855
  692POPI    C210664  16.722  11.749   4.939  0.2575 -0.0759 -0.0485
  692POPI    C310665  16.345  11.882   4.954  0.2578 -0.0484 -0.2552
  692POPI   PO410666  16.653  11.858   5.433 -0.1714  0.0743 -0.2452
  692POPI   GL110667  16.942  12.036   5.792  0.1056  0.1035  0.1811
  692POPI   GL210668  16.612  12.038   5.899 -0.0002 -0.2601  0.4002
  692POPI   C1A10669  17.049  11.885   6.194  0.2805 -0.0332  0.2339
  692POPI   D2A10670  16.577  11.840   6.406  0.2713 -0.0393  0.2724
  692POPI   C3A10671  16.394  12.166   6.404 -0.3185 -0.0952  0.0049
  692POPI   C4A10672  16.051  12.256   6.205 -0.1192 -0.3511 -0.1110
  692POPI   C1B10673  16.130  11.837   5.941 -0.2807  0.2458  0.2815
  692POPI   C2B10674  16.013  11.797   6.405  0.3255  0.0797  0.4117
  692POPI   C3B10675  16.178  11.787   6.752 -0.5170  0.2283  0.3760
  692POPI   C4B10676  16.510  12.106   6.927  0.0471  0.1165  0.1001
  693POPI    C110677   8.508   6.286   5.389  0.1486 -0.1291 -0.3443
  693POPI    C210678   8.370   6.144   5.042 -0.3117 -0.2921 -0.1028
  693POPI    C310679   8.208   6.473   5.202  0.0000 -0.1307 -0.1114
  693POPI   PO410680   8.825   6.361   5.298  0.0996  0.1570  0.1760
  693POPI   GL110681   9.162   6.423   5.656  0.3131  0.2937 -0.0694
  693POPI   GL210682   9.294   6.091   5.867 -0.0851  0.3113 -0.0233
  693POPI   C1A10683   9.183   6.583   6.057 -0.0422 -0.0409 -0.1621
  693POPI   D2A10684   8.818   6.659   6.264  0.0156  0.0476  0.0005
  693POPI   C3A10685   8.891   6.592   6.685  0.2876 -0.2336 -0.0563
  693POPI   C4A10686   9.251   6.594   6.873 -0.2199 -0.0141 -0.2872
  693POPI   C1B10687   9.085   5.841   6.043  0.2639 -0.0614 -0.1154
  693POPI   C2B10688   8.700   5.768   6.126  0.1566  0.3170 -0.0912
  693POPI   C3B10689   8.470   6.005   6.395  0.0992 -0.1668 -0.2968
  693POPI   C4B10690   8.002   6.118   6.393 -0.1813  0.1715 -0.3843
  694POPI    C110691   7.183   3.388   5.034 -0.1798 -0.1894 -0.0723
  694POPI    C210692   6.814   3.535   4.987 -0.1558 -0.1657 -0.1898
  694POPI    C310693   7.025   3.419   4.668 -0.1334 -0.3551 -0.1073
  694POPI   PO410694   7.322   3.470   5.176  0.2922  0.1768  0.1013
  694POPI   GL110695   7.631   3.805   5.357  0.0038 -0.2860 -0.4108
  694POPI   GL210696   7.424   3.549   5.657  0.1090  0.0836  0.2061
  694POPI   C1A10697   7.967   3.947   5.692  0.0293 -0.0811 -0.0760
  694POPI   D2A10698   8.375   3.953   5.806  0.1352  0.2535 -0.1319
  694POPI   C3A10699   8.606   3.648   6.197 -0.2012 -0.2293  0.3125
  694POPI   C4A10700   8.820   3.347   6.204 -0.1257 -0.3069  0.2929
  694POPI   C1B10701   7.552   3.703   5.957  0.0910 -0.1746 -0.1886
  694POPI   C2B10702   7.774   4.027   6.219 -0.0918 -0.0568  0.0521
  694POPI   C3B10703   7.871   4.348   6.565 -0.1048 -0.2512  0.1939
  694POPI   C4B10704   7.736   4.617   7.019  0.0005  0.0527 -0.0404
  695POPI    C110705   6.157  11.288   5.713 -0.1587  0.1318 -0.1931
  695POPI    C210706   5.918  11.494   5.959 -0.1214 -0.2294  0.1550
  695POPI    C310707   5.904  11.560   5.565 -0.1985  0.3429  0.2451
  695POPI   PO410708   6.440  11.343   5.801  0.0250  0.0609  0.0082
  695POPI   GL110709   6.649  11.647   6.071 -0.0183  0.1501 -0.0957
  695POPI   GL210710   6.365  11.703   6.120 -0.1717  0.1373  0.1896
  695POPI   C1A10711   6.603  11.502   6.560  0.2753 -0.3039  0.0213
  695POPI   D2A10712   6.364  11.674   6.930 -0.1136  0.3336 -0.2202
  695POPI   C3A10713   6.645  11.755   7.298  0.0946 -0.0732 -0.1492
  695POPI   C4A10714   6.483  11.596   7.797 -0.0343 -0.2447  0.2719
  695POPI   C1B10715   6.094  11.697   6.479  0.1955 -0.3071 -0.1784
  695POPI   C2B10716   5.813  11.592   6.832 -0.0958 -0.3957 -0.0534
  695POPI   C3B10717   5.715  11.461   7.247  0.1793  0.0324 -0.2637
  695POPI   C4B10718   5.257  11.465   7.372  0.1410 -0.1839 -0.0307
  696POPI    C110719  17.773   1.498   5.012 -0.1244  0.0763  0.1183
  696POPI    C210720  17.872   1.495   4.624 -0.1743  0.3085  0.1018
  696POPI    C310721  18.114   1.326   4.894 -0.3640 -0.2766 -0.0781
  696POPI   PO410722  17.633   1.751   5.026 -0.0411  0.0391 -0.1006
  696POPI   GL110723  17.496   1.838   5.517 -0.1166  0.2436  0.2601
  696POPI   GL210724  17.584   1.503   5.502  0.2577  0.3011  0.5565
  696POPI   C1A10725  17.360   2.214   5.642 -0.2172 -0.1666  0.0304
  696POPI   D2A10726  17.431   2.702   5.823  0.3061  0.2386  0.0125
  696POPI   C3A10727  17.242   2.939   6.254 -0.1560 -0.2947  0.2715
  696POPI   C4A10728  17.436   2.684   6.674 -0.1565  0.2753  0.1069
  696POPI   C1B10729  17.727   1.274   5.771 -0.0639  0.0416 -0.4619
  696POPI   C2B10730  17.718   1.289   6.169 -0.0272 -0.1928 -0.0907
  696POPI   C3B10731  17.515   1.656   6.457 -0.0704 -0.2126  0.2143
  696POPI   C4B10732  17.606   1.914   6.742  0.0617 -0.1457  0.1927
  697POPI    C110733  10.292   3.811   4.924 -0.0535 -0.1315 -0.1456
  697POPI    C210734  10.609   3.943   4.718  0.0891 -0.1150  0.0799
  697POPI    C310735  10.325   4.200   4.836 -0.0085 -0.1293 -0.1196
  697POPI   PO410736  10.350   3.588   5.173  0.2633  0.0475 -0.2165
  697POPI   GL110737  10.412   3.343   5.617  0.0461 -0.0503 -0.0514
  697POPI   GL210738  10.675   3.529   5.743  0.0411 -0.0287 -0.1160
  697POPI   C1A10739  10.352   3.432   6.110 -0.0934  0.3043 -0.0398
  697POPI   D2A10740  10.426   3.775   6.366  0.1005  0.1943  0.1256
  697POPI   C3A10741  10.766   4.052   6.548  0.0252  0.1612  0.0426
  697POPI   C4A10742  10.891   4.403   6.395 -0.1079 -0.5396 -0.6608
  697POPI   C1B10743  10.279   3.784   5.744  0.1155 -0.0087  0.1389
  697POPI   C2B10744  10.146   4.013   6.009  0.2502 -0.1081  0.2009
  697POPI   C3B10745   9.975   4.016   6.436  0.0786  0.2644  0.1227
  697POPI   C4B10746   9.720   3.835   6.913 -0.0034 -0.0064  0.2403
  698POPI    C110747   7.092   9.285   5.224 -0.0401 -0.0024 -0.1702
  698POPI    C210748   7.260   8.938   5.328 -0.0079  0.0938  0.1071
  698POPI    C310749   6.946   8.942   5.081 -0.0156 -0.1331  0.1113
  698POPI   PO410750   7.131   9.460   5.415 -0.2360  0.0787  0.0909
  698POPI   GL110751   7.313   9.364   5.747 -0.1799 -0.2076 -0.4281
  698POPI   GL210752   7.386   9.025   5.829 -0.1863  0.3442 -0.0961
  698POPI   C1A10753   7.361   9.586   6.249  0.3137 -0.4968  0.1254
  698POPI   D2A10754   7.398   9.698   6.738 -0.2497  0.0587 -0.1978
  698POPI   C3A10755   7.433   9.803   7.247  0.2432 -0.0753  0.0649
  698POPI   C4A10756   7.109   9.790   7.599 -0.2480  0.0856 -0.2310
  698POPI   C1B10757   7.129   9.076   6.219 -0.1461  0.2888  0.0570
  698POPI   C2B10758   7.011   9.364   6.527  0.0645  0.3057 -0.1246
  698POPI   C3B10759   6.893   9.627   6.839 -0.1051 -0.1003  0.0813
  698POPI   C4B10760   6.435   9.444   6.900 -0.2417 -0.0160 -0.0578
  699POPI    C110761  17.219   8.556   5.543 -0.2616  0.0843 -0.2007
  699POPI    C210762  17.301   8.947   5.513  0.0844  0.0218 -0.1088
  699POPI    C310763  17.538   8.678   5.334 -0.0327 -0.1566  0.0005
  699POPI   PO410764  16.937   8.563   5.514 -0.0839  0.2153 -0.1565
  699POPI   GL110765  16.731   8.701   5.952  0.1605 -0.1890 -0.0005
  699POPI   GL210766  16.721   9.014   6.186 -0.0176  0.1212 -0.0490
  699POPI   C1A10767  16.933   8.567   6.379  0.1881 -0.1132  0.0475
  699POPI   D2A10768  17.025   8.507   6.833  0.1925  0.2632  0.0392
  699POPI   C3A10769  16.980   8.761   7.225  0.1622 -0.3046 -0.2759
  699POPI   C4A10770  16.563   8.852   7.470  0.0639  0.3504 -0.0649
  699POPI   C1B10771  16.826   8.938   6.644 -0.0898  0.0259  0.2808
  699POPI   C2B10772  16.781   9.191   7.032  0.0524 -0.1696 -0.1220
  699POPI   C3B10773  16.807   9.290   7.384 -0.0097 -0.1203  0.0782
  699POPI   C4B10774  16.782   9.403   7.790 -0.1309  0.1037  0.2984
  700POPI    C110775  15.878  18.103   4.516  0.0983  0.1241 -0.2753
  700POPI    C210776  15.981  18.453   4.680  0.0309  0.0637 -0.1026
  700POPI    C310777  16.088  18.369   4.304 -0.0512  0.3170 -0.1839
  700POPI   PO410778  15.903  17.907   4.798  0.1025 -0.1645  0.4165
  700POPI   GL110779  15.939  17.923   5.168 -0.1062  0.0954 -0.0018
  700POPI   GL210780  15.714  17.989   5.392  0.2110 -0.0724  0.1020
  700POPI   C1A10781  16.159  17.706   5.423  0.3568 -0.0786 -0.2572
  700POPI   D2A10782  16.055  17.592   5.853  0.3045  0.0840 -0.0842
  700POPI   C3A10783  15.866  17.879   6.159 -0.4459 -0.0266 -0.1290
  700POPI   C4A10784  15.777  18.014   6.623 -0.3090 -0.2248  0.1722
  700POPI   C1B10785  15.422  18.059   5.794  0.1506  0.1026 -0.2604
  700POPI   C2B10786  15.467  18.259   6.264 -0.1393 -0.0763  0.0668
  700POPI   C3B10787  15.312  18.529   6.507 -0.0577 -0.3427 -0.1831
  700POPI   C4B10788  15.279  18.957   6.705  0.1680  0.0861 -0.0554
  701POPI    C110789  16.035   3.462   4.513  0.0646  0.0707 -0.1172
  701POPI    C210790  16.146   3.841   4.578 -0.0102  0.1156 -0.2469
  701POPI    C310791  15.835   3.761   4.339 -0.2980 -0.0066  0.1572
  701POPI   PO410792  16.189   3.391   4.763  0.0774  0.2755 -0.2274
  701POPI   GL110793  16.449   3.593   5.114 -0.2086 -0.0486 -0.0082
  701POPI   GL210794  16.178   3.694   5.195  0.0231 -0.0962 -0.1014
  701POPI   C1A10795  16.814   3.350   5.361 -0.0567 -0.2034 -0.3483
  701POPI   D2A10796  17.255   3.266   5.376 -0.1159  0.1536 -0.0548
  701POPI   C3A10797  17.352   3.162   5.715  0.1526  0.0643  0.0615
  701POPI   C4A10798  17.501   3.448   6.142 -0.1137 -0.1592 -0.3480
  701POPI   C1B10799  16.140   3.688   5.551 -0.6644  0.0178  0.0395
  701POPI   C2B10800  15.810   3.665   5.862 -0.0435  0.0757  0.2109
  701POPI   C3B10801  15.831   3.842   6.245  0.0390  0.1800 -0.1165
  701POPI   C4B10802  15.901   4.255   6.418 -0.0803  0.1432  0.0635
  702POPI    C110803   0.259   3.483   5.393  0.0891  0.0225  0.0907
  702POPI    C210804   0.524   3.774   5.324 -0.0045  0.0744 -0.0519
  702POPI    C310805   0.260   3.672   5.041 -0.0920 -0.0240  0.0644
  702POPI   PO410806   0.193   3.447   5.699  0.1131 -0.1040  0.1257
  702POPI   GL110807   0.534   3.284   6.035  0.0991  0.0032  0.3020
  702POPI   GL210808   0.927   3.192   6.220 -0.1997  0.1321 -0.2077
  702POPI   C1A10809   0.206   3.282   6.368 -0.0539 -0.2481  0.3195
  702POPI   D2A10810   0.334   3.173   6.744  0.2213 -0.0688  0.0536
  702POPI   C3A10811   0.246   3.279   7.135  0.0932  0.1661  0.0052
  702POPI   C4A10812   0.046   3.386   7.489  0.1405  0.1579  0.2092
  702POPI   C1B10813   0.826   3.059   6.652 -0.1406  0.1867  0.0615
  702POPI   C2B10814   0.750   3.241   7.127  0.1819  0.0459 -0.0084
  702POPI   C3B10815   0.782   3.286   7.616 -0.0614  0.0691 -0.2390
  702POPI   C4B10816   0.982   3.552   7.904 -0.1140  0.1597  0.0782
  703POPI    C110817   0.721  13.135   5.606 -0.0857  0.0607  0.0636
  703POPI    C210818   1.090  12.983   5.619 -0.1190 -0.0289 -0.0240
  703POPI    C310819   0.876  12.958   5.282 -0.1077  0.2547 -0.0551
  703POPI   PO410820   0.619  13.156   5.865  0.1406 -0.1870  0.1521
  703POPI   GL110821   0.779  13.214   6.215 -0.1638  0.0650 -0.0156
  703POPI   GL210822   0.433  13.127   6.343 -0.2806  0.0361  0.1415
  703POPI   C1A10823   1.105  13.213   6.431 -0.2953 -0.1002 -0.0841
  703POPI   D2A10824   1.517  13.153   6.576  0.0719  0.0359 -0.1838
  703POPI   C3A10825   1.514  12.722   6.841  0.1975  0.2223  0.3257
  703POPI   C4A10826   1.853  12.356   6.855 -0.2217 -0.1582  0.1789
  703POPI   C1B10827   0.654  13.346   6.700 -0.2793 -0.2441  0.1245
  703POPI   C2B10828   0.516  13.301   7.087 -0.1210 -0.3128 -0.1556
  703POPI   C3B10829   0.272  13.575   7.246  0.1876  0.2065 -0.0656
  703POPI   C4B10830  -0.044  13.849   7.236 -0.0262  0.1689  0.0226
  704POPI    C110831  10.735  14.499   4.996  0.0489  0.4805 -0.1983
  704POPI    C210832  10.498  14.182   4.935  0.2108  0.3089  0.0443
  704POPI    C310833  10.583  14.430   4.632  0.0780  0.1251 -0.1466
  704POPI   PO410834  10.626  14.553   5.200  0.0271  0.1529 -0.3268
  704POPI   GL110835  10.253  14.518   5.395 -0.1085  0.0792  0.1601
  704POPI   GL210836   9.978  14.670   5.346  0.2129  0.0616 -0.2408
  704POPI   C1A10837  10.436  14.428   5.834  0.1249  0.1298 -0.1154
  704POPI   D2A10838  10.191  14.342   6.215  0.0210 -0.0349 -0.0726
  704POPI   C3A10839  10.283  14.507   6.617  0.5099 -0.1558  0.3014
  704POPI   C4A10840  10.456  14.911   6.702  0.1345  0.0539  0.2133
  704POPI   C1B10841  10.001  14.724   5.794  0.0351  0.3177  0.1405
  704POPI   C2B10842  10.160  14.856   6.176 -0.0607 -0.0697  0.0653
  704POPI   C3B10843  10.445  15.168   6.251 -0.1454 -0.2978 -0.0491
  704POPI   C4B10844  10.879  15.138   6.407 -0.1919  0.1342  0.0240
  705POPI    C110845  15.164   6.966   4.717  0.1210 -0.1075 -0.0606
  705POPI    C210846  14.771   7.035   4.703  0.1504  0.0788  0.0114
  705POPI    C310847  15.025   7.292   4.533  0.2314 -0.1433 -0.2094
  705POPI   PO410848  15.165   6.840   4.995 -0.1107 -0.2155  0.1869
  705POPI   GL110849  14.943   7.140   5.345  0.5378 -0.4131 -0.1321
  705POPI   GL210850  15.163   6.820   5.469 -0.0130 -0.2285 -0.0456
  705POPI   C1A10851  14.904   7.442   5.702  0.0982 -0.1233  0.0200
  705POPI   D2A10852  14.671   7.685   5.875 -0.0704  0.5082 -0.1495
  705POPI   C3A10853  14.862   8.010   6.195 -0.3622  0.3831 -0.0076
  705POPI   C4A10854  15.361   8.146   6.256  0.0037 -0.2217 -0.1563
  705POPI   C1B10855  15.074   6.932   5.886  0.0385  0.0372  0.1717
  705POPI   C2B10856  15.034   7.193   6.191 -0.0386  0.2543 -0.0441
  705POPI   C3B10857  14.978   7.244   6.635  0.2082  0.1155  0.0880
  705POPI   C4B10858  14.838   7.297   7.108  0.2507  0.1177  0.2267
  706POPI    C110859   7.083   1.330   4.926 -0.1313  0.0294 -0.2198
  706POPI    C210860   7.443   1.173   4.852 -0.0737  0.0957 -0.0847
  706POPI    C310861   7.151   1.143   4.580  0.0604  0.1208 -0.2327
  706POPI   PO410862   6.944   1.187   5.151 -0.1574 -0.1633 -0.1210
  706POPI   GL110863   7.013   1.132   5.624  0.1320 -0.4422 -0.0258
  706POPI   GL210864   7.318   1.334   5.769  0.0236 -0.0456 -0.0994
  706POPI   C1A10865   6.696   1.031   5.976 -0.1155  0.0208  0.4314
  706POPI   D2A10866   6.733   1.087   6.353 -0.2731  0.0926  0.0388
  706POPI   C3A10867   6.565   0.764   6.611 -0.0059 -0.0806 -0.1002
  706POPI   C4A10868   6.464   0.717   7.005 -0.1889 -0.0203 -0.2981
  706POPI   C1B10869   7.487   1.614   5.951  0.1916 -0.0587 -0.1293
  706POPI   C2B10870   7.565   1.684   6.340 -0.0279  0.0052  0.0292
  706POPI   C3B10871   7.436   1.944   6.697 -0.1477 -0.1332 -0.0860
  706POPI   C4B10872   7.214   2.155   6.953 -0.1499 -0.2766 -0.0634
  707POPI    C110873  10.987   5.104   5.292  0.1611 -0.0493 -0.1680
  707POPI    C210874  11.357   5.159   5.434  0.0858  0.0633 -0.0119
  707POPI    C310875  11.219   5.393   5.140  0.1375  0.0218 -0.0696
  707POPI   PO410876  10.810   5.074   5.550 -0.1709 -0.2161  0.0343
  707POPI   GL110877  11.074   5.196   5.844  0.3208 -0.1869 -0.1241
  707POPI   GL210878  11.042   5.536   5.669 -0.0683 -0.2717 -0.0871
  707POPI   C1A10879  10.905   5.311   6.246 -0.1404  0.1841  0.1798
  707POPI   D2A10880  10.689   5.371   6.640 -0.0640 -0.0593  0.0164
  707POPI   C3A10881  10.285   5.582   6.765  0.0566 -0.2050  0.1845
  707POPI   C4A10882  10.294   5.800   7.102  0.0663  0.1508 -0.0417
  707POPI   C1B10883  11.254   5.729   5.871 -0.0644 -0.1863 -0.1149
  707POPI   C2B10884  11.581   5.741   6.192  0.5313  0.1751  0.1467
  707POPI   C3B10885  11.757   5.534   6.431  0.1596  0.0249 -0.1136
  707POPI   C4B10886  12.181   5.420   6.460  0.0137 -0.2172  0.1086
  708POPI    C110887   9.268  11.119   5.387 -0.0576 -0.0155 -0.0826
  708POPI    C210888   9.135  11.066   5.014  0.1545  0.1430 -0.1829
  708POPI    C310889   8.910  10.951   5.325 -0.2214  0.4167 -0.3454
  708POPI   PO410890   9.484  11.110   5.416 -0.1949  0.4324  0.3721
  708POPI   GL110891   9.606  10.858   5.691 -0.2006  0.0623 -0.0133
  708POPI   GL210892   9.723  10.621   5.505  0.1512 -0.1283 -0.0688
  708POPI   C1A10893   9.882  10.914   6.127  0.1026 -0.1109 -0.1763
  708POPI   D2A10894   9.856  11.073   6.524 -0.1011 -0.0935 -0.1302
  708POPI   C3A10895   9.540  11.070   6.762 -0.1213  0.1366 -0.0211
  708POPI   C4A10896   9.259  10.893   7.008  0.0682  0.1429  0.1053
  708POPI   C1B10897   9.770  10.447   5.948 -0.0220 -0.0362  0.1768
  708POPI   C2B10898   9.928  10.439   6.232 -0.0585  0.1304  0.1148
  708POPI   C3B10899  10.235  10.703   6.390 -0.3634 -0.3080  0.1346
  708POPI   C4B10900  10.399  11.035   6.615 -0.0667  0.1562  0.2886
  709POPI    C110901  17.814  12.150   5.420 -0.1218 -0.1518  0.0614
  709POPI    C210902  17.462  11.959   5.424 -0.2122  0.0151  0.2492
  709POPI    C310903  17.535  12.241   5.149 -0.2210 -0.0259  0.2046
  709POPI   PO410904  17.806  12.260   5.603  0.3426  0.0020 -0.4123
  709POPI   GL110905  17.582  12.319   5.974 -0.2689 -0.1288  0.0955
  709POPI   GL210906  17.423  12.074   5.882 -0.0218 -0.1409  0.2963
  709POPI   C1A10907  17.435  12.281   6.382 -0.1282 -0.1748 -0.1817
  709POPI   D2A10908  17.351  12.394   6.707 -0.0746 -0.1833 -0.0528
  709POPI   C3A10909  17.116  12.446   7.006 -0.1464  0.0838  0.1252
  709POPI   C4A10910  16.893  12.316   7.295  0.0318  0.1336  0.1893
  709POPI   C1B10911  17.527  11.777   6.159  0.1898 -0.3388 -0.2130
  709POPI   C2B10912  17.359  11.853   6.535  0.0868  0.0672  0.2468
  709POPI   C3B10913  17.349  11.949   6.918  0.0573  0.0454  0.2470
  709POPI   C4B10914  17.526  12.259   7.135  0.1432 -0.1851  0.3196
  710POPI    C110915   9.242  19.095   4.852  0.2135 -0.2065  0.1111
  710POPI    C210916   9.467  19.413   4.945  0.0329 -0.0458  0.0061
  710POPI    C310917   9.471  19.268   4.572 -0.1125  0.0199 -0.0218
  710POPI   PO410918   9.073  19.102   5.112 -0.1762  0.2657 -0.1908
  710POPI   GL110919   8.993  19.224   5.535  0.3272  0.1980 -0.0542
  710POPI   GL210920   9.315  19.325   5.478 -0.2662  0.2478  0.0489
  710POPI   C1A10921   8.826  18.963   5.814  0.1347  0.0917  0.0189
  710POPI   D2A10922   8.990  18.811   6.188 -0.3730  0.1645 -0.1123
  710POPI   C3A10923   9.384  18.618   6.290 -0.1260 -0.0144  0.3267
  710POPI   C4A10924   9.739  18.370   6.174  0.1186  0.0051 -0.1102
  710POPI   C1B10925   9.162  19.547   5.864  0.1656  0.0856  0.4011
  710POPI   C2B10926   8.971  19.350   6.152  0.1010  0.1507  0.2934
  710POPI   C3B10927   8.922  19.204   6.525 -0.4393 -0.1076  0.1102
  710POPI   C4B10928   8.833  19.494   6.904  0.3962 -0.2345  0.4094
  711POPI    C110929   7.133  11.529   5.664  0.0202  0.0103 -0.2230
  711POPI    C210930   7.049  11.898   5.793 -0.2911 -0.2467  0.3483
  711POPI    C310931   6.775  11.691   5.587 -0.0711 -0.1224 -0.0826
  711POPI   PO410932   7.264  11.348   5.841 -0.1007 -0.1981 -0.2381
  711POPI   GL110933   7.162  11.587   6.247 -0.0340  0.0361  0.1494
  711POPI   GL210934   7.074  11.426   6.522 -0.0888  0.0405 -0.0116
  711POPI   C1A10935   6.987  12.038   6.359  0.0749  0.1347  0.2271
  711POPI   D2A10936   6.845  12.434   6.248  0.3431  0.2439 -0.1662
  711POPI   C3A10937   6.790  12.867   6.460 -0.4221  0.0055 -0.1965
  711POPI   C4A10938   6.912  12.887   6.895  0.2689 -0.1250 -0.2562
  711POPI   C1B10939   7.483  11.413   6.759 -0.0516 -0.4953  0.0837
  711POPI   C2B10940   7.613  11.678   7.141 -0.1241  0.0614 -0.1181
  711POPI   C3B10941   7.434  11.989   7.380 -0.2338  0.0891  0.4053
  711POPI   C4B10942   7.107  12.012   7.532  0.2379  0.0862 -0.1226
  712POPI    C110943  15.135   3.323   5.033  0.0833 -0.1862  0.0055
  712POPI    C210944  15.282   2.954   4.987  0.4482 -0.0270 -0.1441
  712POPI    C310945  15.127   3.148   4.674 -0.0976 -0.1927  0.0115
  712POPI   PO410946  15.403   3.434   5.077  0.1872  0.2577 -0.1287
  712POPI   GL110947  15.512   3.688   5.466  0.0786 -0.0412  0.0835
  712POPI   GL210948  15.720   3.883   5.408  0.1545  0.1374  0.1559
  712POPI   C1A10949  15.311   3.814   5.837 -0.1671  0.0170 -0.0087
  712POPI   D2A10950  15.261   3.863   6.357 -0.0438 -0.2058  0.0650
  712POPI   C3A10951  15.529   3.983   6.669 -0.1851  0.0721 -0.1128
  712POPI   C4A10952  15.853   3.802   6.807  0.1037 -0.0001 -0.4075
  712POPI   C1B10953  15.669   4.155   5.827 -0.3447 -0.3225 -0.1148
  712POPI   C2B10954  15.946   4.574   5.766 -0.1188 -0.0475 -0.0308
  712POPI   C3B10955  16.207   4.961   5.856 -0.0558 -0.3008 -0.0662
  712POPI   C4B10956  16.519   4.901   5.957  0.0267  0.0559 -0.2104
  713POPI    C110957  16.111   0.224   4.890  0.0259  0.1178  0.0082
  713POPI    C210958  16.244   0.601   4.894  0.1447  0.0798 -0.1946
  713POPI    C310959  16.025   0.469   4.586  0.1241 -0.0240 -0.1361
  713POPI   PO410960  16.035   0.206   5.115 -0.3604 -0.2431  0.0761
  713POPI   GL110961  16.075   0.094   5.475  0.1999  0.1602 -0.1615
  713POPI   GL210962  16.209   0.177   5.692  0.1288 -0.0183 -0.1304
  713POPI   C1A10963  16.022  -0.335   5.678 -0.0759 -0.2007 -0.3149
  713POPI   D2A10964  16.199  -0.502   5.975 -0.0673 -0.0313 -0.0220
  713POPI   C3A10965  16.340  -0.808   5.812  0.0122  0.3894  0.1780
  713POPI   C4A10966  16.084  -1.227   5.627 -0.0591  0.0665 -0.0954
  713POPI   C1B10967  16.506   0.124   5.975 -0.1435 -0.0089 -0.2134
  713POPI   C2B10968  16.900   0.010   6.130  0.1967 -0.1022  0.5243
  713POPI   C3B10969  17.173  -0.238   6.306 -0.2821  0.2898 -0.1304
  713POPI   C4B10970  17.457  -0.414   6.553 -0.1245  0.0631  0.0335
  714POPI    C110971   0.162  16.652   5.343  0.0673 -0.0124 -0.1540
  714POPI    C210972   0.185  17.037   5.239 -0.0344  0.0724  0.1277
  714POPI    C310973  -0.038  16.785   5.023 -0.1085  0.2082  0.0437
  714POPI   PO410974   0.364  16.553   5.386  0.0746  0.3126  0.1908
  714POPI   GL110975   0.393  16.446   5.773  0.3026 -0.1480  0.1571
  714POPI   GL210976   0.715  16.298   5.815  0.1401  0.2809 -0.1300
  714POPI   C1A10977   0.539  16.707   6.022 -0.3011  0.0624 -0.1531
  714POPI   D2A10978   0.579  16.890   6.348  0.2209  0.1006 -0.2187
  714POPI   C3A10979   0.286  16.892   6.707  0.1385 -0.0055  0.1231
  714POPI   C4A10980  -0.056  16.777   6.915 -0.1167 -0.0121  0.0973
  714POPI   C1B10981   1.027  16.258   6.105 -0.1504 -0.0321 -0.0101
  714POPI   C2B10982   1.377  16.147   6.446 -0.3239  0.0131 -0.2898
  714POPI   C3B10983   1.717  16.107   6.750 -0.1323  0.1844  0.1027
  714POPI   C4B10984   2.061  16.274   6.936  0.2979 -0.0705  0.2872
  715POPI    C110985  18.796  18.759   5.067  0.0083  0.0207  0.2558
  715POPI    C210986  18.899  18.422   4.877  0.0006  0.0497  0.2000
  715POPI    C310987  19.099  18.761   4.806 -0.1685  0.1192  0.0482
  715POPI   PO410988  18.885  18.728   5.277 -0.2428 -0.1707  0.3050
  715POPI   GL110989  18.884  18.814   5.727  0.2246 -0.2602 -0.0916
  715POPI   GL210990  19.217  18.605   5.588 -0.0249  0.1658 -0.0558
  715POPI   C1A10991  18.968  18.981   6.201 -0.2597 -0.1513  0.2666
  715POPI   D2A10992  18.887  18.999   6.635 -0.1660  0.1459 -0.0257
  715POPI   C3A10993  18.556  18.792   6.713  0.2757  0.0127  0.1354
  715POPI   C4A10994  18.261  18.512   6.529 -0.1079  0.3236  0.3280
  715POPI   C1B10995  19.263  18.561   6.064 -0.0899 -0.5022  0.0332
  715POPI   C2B10996  19.581  18.573   6.417 -0.0611  0.0525 -0.1674
  715POPI   C3B10997  19.948  18.451   6.629  0.1959  0.2128  0.0694
  715POPI   C4B10998  20.240  18.369   6.833  0.1585  0.2994 -0.2750
  716POPI    C110999  16.350  18.155   4.807 -0.2740  0.0349 -0.0234
  716POPI    C211000  16.413  17.761   4.835 -0.2200  0.0569  0.1830
  716POPI    C311001  16.359  17.930   4.477  0.0758 -0.0899  0.0662
  716POPI   PO411002  16.590  18.182   5.091 -0.2847 -0.2737 -0.0093
  716POPI   GL111003  16.623  18.125   5.541 -0.1241 -0.1244 -0.1725
  716POPI   GL211004  16.837  17.922   5.698 -0.0334  0.3589 -0.0678
  716POPI   C1A11005  16.365  18.023   5.981 -0.0196 -0.0114 -0.3628
  716POPI   D2A11006  16.020  18.364   6.227 -0.2017  0.3036  0.0388
  716POPI   C3A11007  16.179  18.751   6.437  0.1305  0.0710 -0.0840
  716POPI   C4A11008  16.286  18.823   6.906 -0.0426  0.0287  0.3550
  716POPI   C1B11009  17.029  17.934   6.048 -0.2735 -0.2613  0.1702
  716POPI   C2B11010  17.171  17.709   6.357 -0.2162 -0.0498  0.3201
  716POPI   C3B11011  17.074  17.472   6.626 -0.1775  0.0646 -0.3917
  716POPI   C4B11012  16.750  17.396   6.944 -0.1261 -0.1930  0.2112
  717POPI    C111013   5.737   4.734   5.617  0.1767  0.0366  0.3617
  717POPI    C211014   5.457   4.864   5.871  0.0094  0.0729  0.1617
  717POPI    C311015   5.440   4.491   5.728 -0.0340  0.1302  0.0162
  717POPI   PO411016   5.994   4.824   5.713 -0.0259  0.0527 -0.0516
  717POPI   GL111017   6.200   4.685   6.006 -0.1322  0.1119  0.0369
  717POPI   GL211018   5.891   4.526   6.107 -0.0113  0.0125 -0.0114
  717POPI   C1A11019   6.113   4.886   6.450 -0.1094  0.0251  0.3199
  717POPI   D2A11020   5.879   4.925   6.819 -0.0762 -0.0545  0.4107
  717POPI   C3A11021   5.728   4.906   7.197  0.2474  0.1084  0.1576
  717POPI   C4A11022   5.670   4.759   7.522 -0.0803  0.0827 -0.4206
  717POPI   C1B11023   6.021   4.408   6.459 -0.1224  0.2609  0.0934
  717POPI   C2B11024   6.269   4.359   6.863 -0.3120  0.1611  0.0323
  717POPI   C3B11025   6.569   4.437   7.161 -0.3017  0.0262 -0.1286
  717POPI   C4B11026   6.958   4.558   7.262  0.0939 -0.0821 -0.0770
  718POPI    C111027  12.344   4.584   5.239 -0.1419  0.1357 -0.0144
  718POPI    C211028  12.118   4.794   5.494 -0.0825  0.2012 -0.0152
  718POPI    C311029  12.513   4.856   5.479 -0.0801  0.1680 -0.0942
  718POPI   PO411030  12.319   4.344   5.255  0.0006  0.0032  0.2388
  718POPI   GL111031  12.291   4.137   5.712  0.0545  0.2594  0.3462
  718POPI   GL211032  12.406   4.396   5.790  0.2021  0.2935 -0.2292
  718POPI   C1A11033  12.042   4.020   6.058  0.0160  0.2741 -0.1110
  718POPI   D2A11034  11.757   4.171   6.393 -0.1362  0.0705  0.2117
  718POPI   C3A11035  11.303   4.048   6.534  0.1544 -0.2046 -0.1573
  718POPI   C4A11036  11.113   4.170   6.900 -0.0088 -0.2384  0.1085
  718POPI   C1B11037  12.361   4.362   6.240 -0.3073 -0.3662  0.0255
  718POPI   C2B11038  12.472   4.026   6.471 -0.1022 -0.1439  0.1806
  718POPI   C3B11039  12.792   3.715   6.555  0.0084 -0.1394  0.1479
  718POPI   C4B11040  13.232   3.613   6.432 -0.0570 -0.1677  0.1043
  719POPI    C111041   6.560   2.798   5.073 -0.0309 -0.0653  0.1465
  719POPI    C211042   6.944   2.802   5.188  0.0852 -0.1758 -0.2229
  719POPI    C311043   6.832   2.992   4.854 -0.2565  0.1906  0.0878
  719POPI   PO411044   6.449   2.632   5.208  0.3153  0.5394  0.1812
  719POPI   GL111045   6.658   2.326   5.568  0.2182  0.0948 -0.1339
  719POPI   GL211046   6.909   2.357   5.485 -0.2780 -0.2307 -0.3367
  719POPI   C1A11047   6.366   2.015   5.654 -0.3193  0.1709 -0.1552
  719POPI   D2A11048   6.188   1.753   5.945  0.2556  0.2544  0.1324
  719POPI   C3A11049   6.419   1.487   6.149  0.1255 -0.0181 -0.0883
  719POPI   C4A11050   6.311   1.526   6.632 -0.2286  0.4375  0.5172
  719POPI   C1B11051   6.863   2.419   6.024  0.2320  0.1153 -0.2286
  719POPI   C2B11052   6.944   2.263   6.425 -0.0544 -0.0304 -0.1581
  719POPI   C3B11053   7.065   1.827   6.373  0.0550 -0.6219 -0.0470
  719POPI   C4B11054   7.009   1.488   6.165  0.1374  0.2482 -0.3102
  720POPI    C111055   4.532  13.680   5.638  0.1562  0.1926 -0.0547
  720POPI    C211056   4.759  13.372   5.524 -0.1072  0.0639 -0.2416
  720POPI    C311057   4.369  13.318   5.592 -0.1191  0.3191 -0.0959
  720POPI   PO411058   4.667  13.822   5.829  0.0430  0.1351 -0.1170
  720POPI   GL111059   4.652  13.839   6.241 -0.2058  0.2572 -0.0393
  720POPI   GL211060   4.730  14.135   6.349  0.3804 -0.2088  0.0279
  720POPI   C1A11061   4.548  13.765   6.699  0.0868  0.0161  0.0012
  720POPI   D2A11062   4.599  13.613   7.168 -0.0123 -0.0515 -0.1825
  720POPI   C3A11063   4.378  13.616   7.563  0.0105 -0.3567 -0.0185
  720POPI   C4A11064   4.313  13.820   8.035  0.1100  0.1169  0.2551
  720POPI   C1B11065   4.610  14.582   6.486 -0.3634  0.0957 -0.5548
  720POPI   C2B11066   4.422  14.732   6.878  0.0573  0.0877 -0.0472
  720POPI   C3B11067   4.405  15.103   7.231  0.4248  0.1444  0.2037
  720POPI   C4B11068   4.372  15.564   7.254  0.0586 -0.1466  0.1074
  721POPS   CNO11069   1.342   0.618   4.832  0.2499 -0.0440 -0.2096
  721POPS   PO411070   1.165   0.497   5.201  0.1335  0.2860  0.0283
  721POPS   GL111071   1.108   0.534   5.610 -0.3892  0.1526 -0.2281
  721POPS   GL211072   1.034   0.658   5.836 -0.0802 -0.0935  0.3196
  721POPS   C1A11073   1.426   0.378   5.974 -0.2419  0.1233 -0.1535
  721POPS   D2A11074   1.455   0.164   6.263  0.2805 -0.0731  0.4055
  721POPS   C3A11075   1.631  -0.270   6.215 -0.2337  0.0252  0.2851
  721POPS   C4A11076   1.769  -0.657   6.305  0.0663 -0.0871  0.3610
  721POPS   C1B11077   1.171   0.685   6.327  0.2075 -0.2504 -0.1495
  721POPS   C2B11078   1.190   1.120   6.581 -0.1590 -0.1828 -0.1386
  721POPS   C3B11079   1.420   1.595   6.715  0.4772 -0.1022 -0.0664
  721POPS   C4B11080   1.705   1.752   7.056 -0.0564 -0.2375  0.1155
  722POPS   CNO11081  14.911   5.442   4.965  0.0916  0.3448 -0.3426
  722POPS   PO411082  14.920   5.897   4.929  0.2374  0.2265  0.1702
  722POPS   GL111083  14.788   6.152   5.241  0.0294  0.3164 -0.0301
  722POPS   GL211084  14.849   6.483   5.237  0.1321  0.0695 -0.0916
  722POPS   C1A11085  14.512   6.173   5.712 -0.0955 -0.0431  0.1513
  722POPS   D2A11086  14.411   6.275   6.138 -0.1155 -0.1180  0.0613
  722POPS   C3A11087  14.804   6.119   6.497  0.0747 -0.3440  0.1562
  722POPS   C4A11088  15.215   6.299   6.581  0.0018 -0.1905 -0.2631
  722POPS   C1B11089  14.745   6.585   5.656 -0.0446 -0.0607 -0.0453
  722POPS   C2B11090  14.838   6.462   5.977  0.0485  0.0935  0.2200
  722POPS   C3B11091  15.044   6.637   6.258 -0.0947  0.1226  0.0764
  722POPS   C4B11092  15.091   6.784   6.567  0.0390  0.1887 -0.2934
  723POPS   CNO11093   9.292   6.058   5.294  0.0743  0.0355 -0.1090
  723POPS   PO411094   9.612   6.177   5.479  0.2919  0.0842 -0.0211
  723POPS   GL111095   9.672   6.478   5.853  0.1049  0.0721  0.2675
  723POPS   GL211096   9.838   6.255   6.045 -0.2369 -0.2388  0.0026
  723POPS   C1A11097   9.756   6.886   6.064  0.3644  0.2283 -0.1319
  723POPS   D2A11098   9.774   6.925   6.375 -0.1146 -0.3766 -0.0537
  723POPS   C3A11099   9.650   7.041   6.760  0.1009  0.0975 -0.5311
  723POPS   C4A11100   9.473   7.332   7.010  0.0441 -0.0844  0.0118
  723POPS   C1B11101   9.590   6.401   6.363  0.3201 -0.1993  0.0442
  723POPS   C2B11102   9.746   6.530   6.714 -0.0337  0.0208  0.0857
  723POPS   C3B11103   9.683   6.442   7.133  0.2177  0.2756 -0.0731
  723POPS   C4B11104   9.708   6.198   7.429 -0.0340 -0.1141 -0.3294
  724POPS   CNO11105  17.970   0.864   4.966 -0.2932 -0.2500 -0.1652
  724POPS   PO411106  18.260   0.928   5.178 -0.2971 -0.0131 -0.2236
  724POPS   GL111107  18.135   1.024   5.623 -0.5064 -0.0594  0.2923
  724POPS   GL211108  18.263   1.177   5.676 -0.0446 -0.2297  0.1188
  724POPS   C1A11109  17.873   0.812   5.994  0.0553  0.0171  0.3254
  724POPS   D2A11110  17.829   0.635   6.410  0.1039  0.0716 -0.1012
  724POPS   C3A11111  17.628   0.570   6.695  0.1725 -0.0607  0.2231
  724POPS   C4A11112  17.421   0.245   7.065 -0.0024  0.1396 -0.0830
  724POPS   C1B11113  18.181   1.588   5.945  0.0200  0.1568 -0.1154
  724POPS   C2B11114  18.170   1.650   6.324  0.0885 -0.0522  0.1822
  724POPS   C3B11115  18.141   2.000   6.611  0.0730  0.0316 -0.2096
  724POPS   C4B11116  17.847   2.267   7.018  0.4488  0.2037 -0.2113
  725POPS   CNO11117  11.887   8.983   4.704  0.0041 -0.0279  0.1313
  725POPS   PO411118  12.136   8.981   5.137 -0.1743 -0.1649  0.1139
  725POPS   GL111119  12.576   8.911   5.324  0.0280  0.1499  0.2142
  725POPS   GL211120  12.830   8.716   5.528 -0.0744 -0.2559 -0.5617
  725POPS   C1A11121  12.525   9.109   5.726  0.0896  0.1638  0.0614
  725POPS   D2A11122  12.455   9.021   6.228 -0.0400 -0.0233  0.1352
  725POPS   C3A11123  12.371   8.606   6.330  0.2684 -0.0492  0.1949
  725POPS   C4A11124  12.198   8.290   6.196 -0.0761  0.0963  0.1697
  725POPS   C1B11125  12.882   8.819   6.010  0.0671  0.0422  0.1482
  725POPS   C2B11126  12.855   8.783   6.412 -0.2070 -0.0181 -0.2578
  725POPS   C3B11127  13.152   8.645   6.741  0.1943  0.2311 -0.0613
  725POPS   C4B11128  13.196   8.480   7.143  0.3001  0.2718 -0.2376
  726POPS   CNO11129   0.419   4.283   5.314 -0.1108 -0.4875  0.1109
  726POPS   PO411130   0.353   4.381   5.752 -0.2074  0.0874 -0.0996
  726POPS   GL111131   0.113   4.646   5.980 -0.2706  0.0498 -0.3958
  726POPS   GL211132  -0.136   4.766   5.891  0.2871  0.0938 -0.1530
  726POPS   C1A11133   0.231   4.812   6.275  0.1438  0.1197 -0.0694
  726POPS   D2A11134   0.284   5.184   6.431 -0.2334 -0.2461  0.1648
  726POPS   C3A11135   0.142   5.196   6.840 -0.2028 -0.0325 -0.0133
  726POPS   C4A11136  -0.072   4.822   7.008 -0.0059 -0.1759 -0.3742
  726POPS   C1B11137  -0.243   4.745   6.298  0.2653  0.0700 -0.0018
  726POPS   C2B11138  -0.485   4.555   6.671  0.3643  0.1064 -0.2371
  726POPS   C3B11139  -0.850   4.262   6.760 -0.3863 -0.2130  0.2610
  726POPS   C4B11140  -0.964   3.801   6.661  0.1903  0.1988  0.0423
  727POPS   CNO11141  13.128   4.168   5.757 -0.2294 -0.2453  0.2905
  727POPS   PO411142  12.799   4.062   5.434  0.0964  0.0045  0.0219
  727POPS   GL111143  12.579   3.719   5.779 -0.0717  0.2688  0.1178
  727POPS   GL211144  12.704   3.939   6.046 -0.1496 -0.0110 -0.0488
  727POPS   C1A11145  12.732   3.320   5.978 -0.1549 -0.1002  0.1527
  727POPS   D2A11146  13.013   3.193   6.254  0.3309  0.0020 -0.1004
  727POPS   C3A11147  12.930   3.222   6.607 -0.0880 -0.2101 -0.2181
  727POPS   C4A11148  12.990   3.116   6.971 -0.0169 -0.0904  0.1769
  727POPS   C1B11149  13.035   4.124   6.382 -0.3895 -0.2192 -0.1280
  727POPS   C2B11150  13.177   4.025   6.749 -0.0225 -0.0639 -0.0355
  727POPS   C3B11151  13.323   3.762   7.006 -0.0421  0.2443 -0.0304
  727POPS   C4B11152  13.535   3.453   6.769  0.1911  0.2142  0.3006
  728POPS   CNO11153  14.757   0.731   5.151 -0.1034  0.0817  0.2487
  728POPS   PO411154  14.420   0.393   5.071  0.2505 -0.4419  0.2268
  728POPS   GL111155  14.214   0.467   5.479  0.0626 -0.0366 -0.1812
  728POPS   GL211156  14.419   0.779   5.506  0.1429 -0.2135  0.2453
  728POPS   C1A11157  14.246   0.546   5.949 -0.1932 -0.0710 -0.0311
  728POPS   D2A11158  14.133   0.729   6.358 -0.1822  0.1805 -0.0219
  728POPS   C3A11159  14.402   0.510   6.575 -0.0819  0.0114 -0.2127
  728POPS   C4A11160  14.707   0.672   6.796  0.0286  0.1951  0.2186
  728POPS   C1B11161  14.518   0.977   5.923 -0.3003  0.1005 -0.1189
  728POPS   C2B11162  14.609   0.933   6.365 -0.0482  0.0219 -0.1711
  728POPS   C3B11163  14.901   1.167   6.603 -0.0926  0.1047  0.0974
  728POPS   C4B11164  15.088   1.377   6.813  0.0210 -0.1000 -0.2703
  729POPS   CNO11165   6.738   5.669   5.322 -0.3202  0.1299 -0.1866
  729POPS   PO411166   7.083   5.536   5.535  0.0197  0.3506  0.0708
  729POPS   GL111167   7.330   5.632   5.856 -0.0376 -0.0798  0.0039
  729POPS   GL211168   7.150   5.710   6.104 -0.4383 -0.0201  0.2093
  729POPS   C1A11169   7.583   5.557   6.078 -0.0310 -0.0840 -0.5691
  729POPS   D2A11170   7.730   5.628   6.457 -0.5331  0.1802 -0.3025
  729POPS   C3A11171   7.901   5.636   6.788  0.0848  0.1898  0.0177
  729POPS   C4A11172   8.188   5.762   6.727 -0.3229 -0.2110  0.1003
  729POPS   C1B11173   7.265   5.783   6.491 -0.0794 -0.2259  0.2445
  729POPS   C2B11174   7.181   6.051   6.791  0.0616 -0.0532 -0.2502
  729POPS   C3B11175   7.222   6.113   7.262  0.0081 -0.0256 -0.2040
  729POPS   C4B11176   7.238   6.268   7.790 -0.0887 -0.1938 -0.0796
  730POPS   CNO11177   3.209   4.954   6.245 -0.1531 -0.1121 -0.0590
  730POPS   PO411178   3.483   4.548   6.221  0.2155  0.0480 -0.2084
  730POPS   GL111179   3.592   4.821   6.527 -0.1362 -0.0027  0.0229
  730POPS   GL211180   3.911   5.038   6.475 -0.2250 -0.3768  0.0908
  730POPS   C1A11181   3.753   4.789   6.974  0.3174  0.0197  0.0265
  730POPS   D2A11182   3.925   4.733   7.296  0.2094  0.0680 -0.3395
  730POPS   C3A11183   4.215   5.100   7.554  0.4118  0.2470  0.2023
  730POPS   C4A11184   4.513   5.096   7.806  0.1260  0.1973 -0.2635
  730POPS   C1B11185   4.008   5.254   6.846 -0.0222  0.0520 -0.2665
  730POPS   C2B11186   4.027   5.411   7.224 -0.1480 -0.1828 -0.1347
  730POPS   C3B11187   4.071   5.828   7.484 -0.2523 -0.0743  0.1468
  730POPS   C4B11188   4.000   5.939   7.893  0.3569  0.2788 -0.3229
  731POPS   CNO11189   0.817   7.563   5.935  0.1821  0.2154 -0.0503
  731POPS   PO411190   1.086   7.162   5.736  0.1018  0.1203 -0.2118
  731POPS   GL111191   1.301   7.396   5.961  0.1919  0.2189 -0.1759
  731POPS   GL211192   1.340   7.666   6.033  0.2314  0.0233 -0.1778
  731POPS   C1A11193   1.424   7.327   6.370  0.0374 -0.0149 -0.1462
  731POPS   D2A11194   1.648   7.103   6.681 -0.0154  0.5268  0.3246
  731POPS   C3A11195   1.483   6.971   7.012  0.0124 -0.0235  0.2174
  731POPS   C4A11196   1.580   6.650   7.189  0.0723  0.1134  0.0465
  731POPS   C1B11197   1.014   7.552   6.446  0.0955  0.0666  0.0416
  731POPS   C2B11198   0.920   7.769   6.791 -0.2624 -0.0247 -0.1526
  731POPS   C3B11199   1.088   7.905   7.201  0.2919 -0.0558  0.1362
  731POPS   C4B11200   1.213   8.105   7.504 -0.2170 -0.0283  0.0437
  732POPS   CNO11201   3.038   2.795   5.471 -0.2200 -0.2838 -0.1537
  732POPS   PO411202   2.814   2.717   5.875 -0.3442  0.3232  0.0452
  732POPS   GL111203   2.773   2.667   6.263  0.0029  0.2263  0.0386
  732POPS   GL211204   3.049   2.794   6.494 -0.1069  0.0061  0.1874
  732POPS   C1A11205   2.683   2.298   6.550  0.1427  0.0076  0.2591
  732POPS   D2A11206   2.725   1.899   6.814  0.1288 -0.4013 -0.1334
  732POPS   C3A11207   2.547   2.067   7.133 -0.0835 -0.1750 -0.1195
  732POPS   C4A11208   2.404   2.103   7.534 -0.2254  0.2342 -0.3919
  732POPS   C1B11209   3.091   2.585   6.819 -0.0063 -0.0681 -0.3590
  732POPS   C2B11210   3.062   2.769   7.149 -0.0986 -0.0166  0.2456
  732POPS   C3B11211   2.885   2.957   7.469  0.0253  0.2510 -0.4013
  732POPS   C4B11212   2.650   2.726   7.732  0.4907 -0.3824  0.0300
  733POPS   CNO11213   6.622  18.378   5.414 -0.2350  0.1506  0.1718
  733POPS   PO411214   6.938  18.590   5.150  0.1017 -0.2245  0.1325
  733POPS   GL111215   7.301  18.463   5.325  0.1996 -0.0640  0.0348
  733POPS   GL211216   7.314  18.078   5.492 -0.2217 -0.2589  0.1263
  733POPS   C1A11217   7.639  18.534   5.486 -0.1993 -0.1885 -0.2223
  733POPS   D2A11218   7.966  18.694   5.759  0.2570  0.3672 -0.0098
  733POPS   C3A11219   7.847  18.931   6.085  0.2028  0.0093 -0.0102
  733POPS   C4A11220   7.956  19.194   6.355  0.1772  0.2614 -0.1824
  733POPS   C1B11221   7.027  18.343   5.738  0.0210  0.1549  0.1262
  733POPS   C2B11222   6.732  18.286   6.159 -0.1531 -0.1663 -0.0382
  733POPS   C3B11223   6.460  18.204   6.451 -0.2446  0.0219  0.3279
  733POPS   C4B11224   6.439  18.002   6.752  0.1370 -0.0639 -0.3143
  734POPS   CNO11225   6.530  10.401   5.638 -0.1729  0.0836 -0.2770
  734POPS   PO411226   6.827  10.789   5.697  0.0274  0.1423  0.0920
  734POPS   GL111227   6.848  10.661   6.074  0.0726  0.0197 -0.1726
  734POPS   GL211228   6.578  10.436   6.198  0.1394 -0.0212 -0.1298
  734POPS   C1A11229   7.035  10.693   6.531 -0.0119 -0.0662 -0.0060
  734POPS   D2A11230   7.188  11.024   6.781  0.0269  0.0251 -0.0371
  734POPS   C3A11231   7.130  11.032   7.162  0.1603  0.1147  0.0663
  734POPS   C4A11232   7.535  11.115   7.434  0.0026  0.0556  0.1466
  734POPS   C1B11233   6.712  10.369   6.633  0.0336 -0.2379 -0.1012
  734POPS   C2B11234   6.779  10.548   6.994 -0.1525 -0.0785  0.0525
  734POPS   C3B11235   6.900  10.560   7.462 -0.2761 -0.1045  0.1309
  734POPS   C4B11236   6.575  10.586   7.772  0.3137  0.2457 -0.1317
  735POPS   CNO11237   2.003   0.999   5.148  0.2881  0.1075  0.1287
  735POPS   PO411238   1.894   1.028   5.504  0.0883  0.0455 -0.2858
  735POPS   GL111239   1.757   1.166   5.870 -0.3197  0.0249 -0.0486
  735POPS   GL211240   1.762   1.511   5.867 -0.1566 -0.1974 -0.1495
  735POPS   C1A11241   1.787   1.225   6.384  0.0345 -0.2279 -0.2183
  735POPS   D2A11242   1.933   1.374   6.755  0.5896  0.1181 -0.0053
  735POPS   C3A11243   1.993   1.174   7.111 -0.1316  0.0088 -0.3398
  735POPS   C4A11244   1.720   1.193   7.400 -0.0269  0.3582 -0.1834
  735POPS   C1B11245   1.686   1.727   6.268  0.0224 -0.1188  0.3736
  735POPS   C2B11246   1.719   2.083   6.571  0.2851 -0.0548  0.2469
  735POPS   C3B11247   1.549   2.518   6.583 -0.0743 -0.1546  0.1831
  735POPS   C4B11248   1.152   2.692   6.765 -0.0387  0.1318 -0.0407
  736POPS   CNO11249   2.704  13.029   5.490 -0.0793  0.0934  0.0088
  736POPS   PO411250   2.425  13.369   5.536 -0.2207 -0.1435  0.0820
  736POPS   GL111251   2.197  13.377   5.985 -0.3014  0.1470 -0.1486
  736POPS   GL211252   2.120  13.733   5.865  0.1141  0.0535  0.0644
  736POPS   C1A11253   2.400  13.487   6.338  0.1604 -0.2687 -0.0148
  736POPS   D2A11254   2.592  13.652   6.746  0.1247  0.0054  0.2281
  736POPS   C3A11255   2.641  13.997   6.942 -0.0818 -0.4021 -0.4849
  736POPS   C4A11256   2.713  14.330   6.757  0.0326  0.5058  0.0500
  736POPS   C1B11257   1.959  14.070   6.171  0.2045 -0.0145 -0.1129
  736POPS   C2B11258   1.734  14.180   6.620  0.0800  0.0145  0.0635
  736POPS   C3B11259   1.787  14.180   7.104 -0.0692  0.0015  0.0369
  736POPS   C4B11260   1.766  14.176   7.589 -0.2788  0.0448 -0.3294
  737POPS   CNO11261   4.517  11.229   5.507 -0.3078  0.0228 -0.0856
  737POPS   PO411262   4.513  10.843   5.784  0.1515  0.2352 -0.2219
  737POPS   GL111263   4.779  10.822   6.143 -0.3997 -0.0828  0.1018
  737POPS   GL211264   4.992  11.021   6.190 -0.0506 -0.1507  0.0926
  737POPS   C1A11265   4.645  10.916   6.511  0.1534  0.1122 -0.3542
  737POPS   D2A11266   4.700  10.686   6.936  0.1671  0.0745  0.3335
  737POPS   C3A11267   4.542  10.969   7.152  0.0397  0.2672 -0.2071
  737POPS   C4A11268   4.801  11.174   7.482  0.2247  0.0072  0.2405
  737POPS   C1B11269   5.091  10.997   6.620 -0.1294  0.3339  0.0017
  737POPS   C2B11270   5.095  10.976   7.147  0.4445 -0.5481 -0.0579
  737POPS   C3B11271   5.328  10.965   7.444 -0.0184  0.1459  0.1397
  737POPS   C4B11272   5.587  11.157   7.623 -0.1445  0.0283  0.0329
  738POPS   CNO11273  13.003  14.169   4.519 -0.1858  0.0744  0.1174
  738POPS   PO411274  13.113  14.499   4.763 -0.2426 -0.0931  0.1689
  738POPS   GL111275  13.081  14.376   5.109 -0.3263 -0.0240  0.0164
  738POPS   GL211276  13.146  14.525   5.447 -0.0577 -0.1616  0.1324
  738POPS   C1A11277  12.740  14.259   5.614 -0.2910  0.1069  0.4949
  738POPS   D2A11278  12.583  14.320   6.006  0.5206  0.0152  0.1010
  738POPS   C3A11279  12.520  14.606   6.043 -0.0250 -0.1427 -0.0233
  738POPS   C4A11280  12.232  14.403   6.368 -0.2576 -0.2599 -0.2994
  738POPS   C1B11281  13.010  14.641   5.864  0.0933 -0.0296  0.2352
  738POPS   C2B11282  12.922  14.659   6.372  0.2067  0.1184 -0.3777
  738POPS   C3B11283  12.998  14.527   6.776 -0.0271 -0.0239 -0.0106
  738POPS   C4B11284  13.160  14.345   7.173  0.2863  0.2899  0.0232
  739POPS   CNO11285  15.507   0.596   4.531 -0.1128 -0.1675  0.1187
  739POPS   PO411286  15.209   0.643   4.867 -0.3219 -0.2695 -0.2544
  739POPS   GL111287  15.266   0.671   5.278  0.1008 -0.2207  0.0942
  739POPS   GL211288  15.057   0.724   5.539  0.0062 -0.0628  0.0497
  739POPS   C1A11289  15.643   0.613   5.647 -0.2218  0.0850  0.3282
  739POPS   D2A11290  15.852   0.454   5.875 -0.1971 -0.0193  0.0498
  739POPS   C3A11291  15.795   0.525   6.357  0.0114  0.1612  0.0662
  739POPS   C4A11292  15.764   0.870   6.590  0.1436 -0.0153 -0.0957
  739POPS   C1B11293  14.965   1.217   5.621 -0.0761  0.1410  0.5101
  739POPS   C2B11294  14.600   1.405   5.611 -0.0446  0.3384  0.0022
  739POPS   C3B11295  14.355   1.491   5.913  0.1496 -0.1220  0.4015
  739POPS   C4B11296  14.229   1.305   6.245  0.0090 -0.0492  0.1449
  740POPS   CNO11297   5.347  14.615   5.644  0.0185 -0.4115  0.2597
  740POPS   PO411298   4.932  14.822   5.543 -0.0144 -0.0510 -0.1355
  740POPS   GL111299   4.988  14.739   6.037  0.3385  0.0274 -0.0960
  740POPS   GL211300   5.325  14.583   6.154  0.0272 -0.3369 -0.0959
  740POPS   C1A11301   4.943  14.948   6.461 -0.0915  0.4185 -0.0239
  740POPS   D2A11302   5.090  14.741   6.866  0.2380 -0.0102 -0.1717
  740POPS   C3A11303   4.757  14.737   7.232  0.0674 -0.3289 -0.0426
  740POPS   C4A11304   4.760  14.513   7.586 -0.0202 -0.5403 -0.0184
  740POPS   C1B11305   5.448  14.714   6.449 -0.1546 -0.1700 -0.0354
  740POPS   C2B11306   5.552  14.914   6.858  0.4824 -0.2097  0.0722
  740POPS   C3B11307   5.628  14.968   7.209 -0.0442  0.0159 -0.2985
  740POPS   C4B11308   5.793  15.037   7.679  0.0215  0.1556  0.1292
  741POPS   CNO11309  17.045  17.120   4.796 -0.2956 -0.1262 -0.0910
  741POPS   PO411310  16.568  17.280   4.885 -0.0755 -0.1032 -0.1074
  741POPS   GL111311  16.431  17.270   5.327  0.3209  0.1681 -0.1977
  741POPS   GL211312  16.604  17.524   5.567  0.1544  0.0975  0.1120
  741POPS   C1A11313  16.715  17.051   5.818  0.2487 -0.0044  0.2168
  741POPS   D2A11314  16.551  16.792   6.231 -0.1239 -0.2492 -0.3609
  741POPS   C3A11315  16.175  16.835   6.511 -0.1910 -0.2291 -0.2634
  741POPS   C4A11316  16.070  16.633   6.787 -0.1086  0.1887 -0.1576
  741POPS   C1B11317  16.579  17.544   5.969 -0.1735  0.0104  0.0324
  741POPS   C2B11318  16.700  17.356   6.313  0.3315 -0.1212  0.0634
  741POPS   C3B11319  16.784  17.035   6.610  0.2002 -0.3652 -0.1039
  741POPS   C4B11320  16.976  16.964   6.957 -0.0147  0.1007  0.0998
  742POPS   CNO11321  18.392  17.361   5.458 -0.0636 -0.1444 -0.0680
  742POPS   PO411322  18.623  17.564   5.572 -0.1138  0.1052  0.0995
  742POPS   GL111323  18.462  17.553   5.932  0.0652  0.1050  0.1024
  742POPS   GL211324  18.072  17.730   5.830 -0.1908  0.2722  0.3093
  742POPS   C1A11325  18.313  17.417   6.378  0.2335 -0.0746 -0.2074
  742POPS   D2A11326  18.552  17.419   6.795 -0.1995 -0.0535  0.1769
  742POPS   C3A11327  18.877  17.055   6.715  0.0778  0.0030  0.1068
  742POPS   C4A11328  19.128  16.910   6.447  0.0402  0.0120  0.2073
  742POPS   C1B11329  17.890  17.634   6.226 -0.0411 -0.0290  0.0210
  742POPS   C2B11330  17.658  17.638   6.534 -0.2441 -0.1846 -0.3594
  742POPS   C3B11331  17.867  17.623   6.987 -0.3698  0.0988  0.0340
  742POPS   C4B11332  17.676  17.868   7.343 -0.3091 -0.4188 -0.0676
  743POPS   CNO11333  16.071  17.346   4.939  0.1986 -0.2543  0.0666
  743POPS   PO411334  15.727  17.111   5.165  0.2247 -0.1885  0.0560
  743POPS   GL111335  15.815  17.002   5.456  0.2003 -0.0429  0.1369
  743POPS   GL211336  15.770  16.708   5.711  0.1894  0.0681 -0.0313
  743POPS   C1A11337  16.149  17.122   5.700  0.1354 -0.0536  0.1748
  743POPS   D2A11338  16.259  17.243   6.122 -0.2592  0.2835  0.1290
  743POPS   C3A11339  16.227  17.603   6.444  0.3583  0.2157  0.1296
  743POPS   C4A11340  16.654  17.777   6.524  0.1552 -0.0725  0.4093
  743POPS   C1B11341  15.826  16.893   6.092 -0.2372  0.0357  0.2916
  743POPS   C2B11342  15.698  16.875   6.512 -0.3891 -0.0641  0.0169
  743POPS   C3B11343  15.321  17.014   6.697 -0.1602  0.0345 -0.0349
  743POPS   C4B11344  14.995  16.862   6.823 -0.3204 -0.1080 -0.2630
  744POPS   CNO11345   5.211  13.589   5.721 -0.0558  0.1363 -0.0881
  744POPS   PO411346   5.580  13.570   5.590 -0.4092  0.3260  0.4367
  744POPS   GL111347   5.506  13.515   6.088 -0.1641 -0.0366 -0.0674
  744POPS   GL211348   5.680  13.281   6.242 -0.0157 -0.5313 -0.0303
  744POPS   C1A11349   5.600  13.786   6.478  0.1559 -0.1850  0.2393
  744POPS   D2A11350   5.309  14.164   6.572 -0.2608  0.2733  0.0152
  744POPS   C3A11351   5.449  14.402   6.904  0.1567  0.2754  0.0523
  744POPS   C4A11352   5.328  14.474   7.299  0.1849  0.1306 -0.1219
  744POPS   C1B11353   5.991  13.263   6.606 -0.2218  0.0860 -0.0797
  744POPS   C2B11354   6.023  13.208   7.186 -0.0513 -0.0804  0.0727
  744POPS   C3B11355   6.102  12.873   7.522 -0.1355 -0.0825 -0.0400
  744POPS   C4B11356   5.846  12.613   7.869  0.0496  0.0480  0.2050
  745POPS   CNO11357  13.692  11.348   4.800  0.4472 -0.0990 -0.2918
  745POPS   PO411358  13.968  11.472   4.530  0.1904  0.1263  0.3000
  745POPS   GL111359  13.939  11.774   4.857 -0.2354  0.0700 -0.1270
  745POPS   GL211360  13.640  11.770   5.180 -0.2210  0.1083 -0.0280
  745POPS   C1A11361  14.101  11.710   5.341 -0.2230 -0.0617 -0.2699
  745POPS   D2A11362  14.320  11.561   5.625 -0.3906  0.2150  0.2101
  745POPS   C3A11363  14.340  11.732   6.087 -0.0384 -0.2169  0.0491
  745POPS   C4A11364  14.210  11.424   6.317  0.1057 -0.0664 -0.0321
  745POPS   C1B11365  13.675  11.568   5.572 -0.0329  0.2522 -0.0307
  745POPS   C2B11366  13.711  11.299   5.983 -0.4275 -0.1579 -0.0416
  745POPS   C3B11367  13.419  11.346   6.324 -0.2409  0.1410  0.0174
  745POPS   C4B11368  13.295  11.156   6.687  0.0470  0.1006 -0.2850
  746POPS   CNO11369  12.008  18.652   4.302 -0.3591  0.0883 -0.0209
  746POPS   PO411370  11.976  18.802   4.812  0.2829  0.0523  0.2110
  746POPS   GL111371  12.029  18.900   5.279  0.1350 -0.0200  0.0370
  746POPS   GL211372  12.143  19.195   5.478 -0.1118 -0.3211 -0.0684
  746POPS   C1A11373  11.687  18.859   5.561 -0.3695 -0.1442 -0.2210
  746POPS   D2A11374  11.564  18.424   5.546  0.1025  0.3344 -0.3790
  746POPS   C3A11375  11.714  18.027   5.757 -0.0137 -0.0751 -0.1015
  746POPS   C4A11376  11.578  17.664   5.715  0.2114  0.2632 -0.2005
  746POPS   C1B11377  12.033  19.145   5.889 -0.0046  0.1132 -0.0279
  746POPS   C2B11378  12.171  19.117   6.293  0.2245  0.1113 -0.1378
  746POPS   C3B11379  12.113  19.161   6.682  0.0770 -0.2526 -0.0867
  746POPS   C4B11380  12.210  19.098   7.149 -0.1622  0.1113  0.0650
  747POPS   CNO11381   5.460   7.719   5.663 -0.0850  0.0220  0.2699
  747POPS   PO411382   5.759   7.633   5.387 -0.2799 -0.0091  0.1620
  747POPS   GL111383   5.957   7.741   5.779 -0.0839  0.1716 -0.0969
  747POPS   GL211384   5.711   7.656   6.089 -0.2602 -0.0753  0.2918
  747POPS   C1A11385   6.036   7.997   6.099  0.0299  0.1137 -0.1501
  747POPS   D2A11386   6.274   8.137   6.528  0.1331 -0.1521  0.0806
  747POPS   C3A11387   6.209   8.431   6.853  0.0121 -0.2232  0.0922
  747POPS   C4A11388   6.353   8.922   6.916  0.4130  0.0906 -0.1208
  747POPS   C1B11389   5.862   7.423   6.393 -0.1047  0.1002 -0.2486
  747POPS   C2B11390   6.203   7.441   6.729 -0.0658  0.0186 -0.3105
  747POPS   C3B11391   6.495   7.816   6.858 -0.2585 -0.0780  0.0175
  747POPS   C4B11392   6.878   7.998   7.021 -0.1951 -0.2579  0.2669
  748POPS   CNO11393   1.569  11.660   5.831  0.1076 -0.5862 -0.0446
  748POPS   PO411394   1.971  11.595   6.019  0.2320  0.0727 -0.3637
  748POPS   GL111395   2.141  11.755   6.445  0.0870 -0.1565 -0.2105
  748POPS   GL211396   2.429  12.058   6.539  0.1579 -0.1045 -0.3891
  748POPS   C1A11397   1.904  11.839   6.908 -0.0292  0.0738 -0.0390
  748POPS   D2A11398   1.714  11.993   7.232 -0.0893  0.0709  0.0917
  748POPS   C3A11399   1.467  12.333   7.246 -0.5251 -0.0679 -0.0920
  748POPS   C4A11400   1.277  12.662   7.289 -0.0715 -0.0291 -0.0338
  748POPS   C1B11401   2.307  12.146   6.903  0.1123  0.1806  0.3060
  748POPS   C2B11402   2.114  12.361   7.250 -0.0028  0.0964 -0.0338
  748POPS   C3B11403   2.169  12.690   7.570 -0.2081 -0.0261  0.1806
  748POPS   C4B11404   2.261  12.633   8.045 -0.0037 -0.3178 -0.3152
  749POPS   CNO11405   7.707   6.654   5.125  0.1777 -0.1306 -0.1788
  749POPS   PO411406   7.638   6.389   5.546  0.2677 -0.1341  0.1701
  749POPS   GL111407   8.024   6.316   5.606  0.0046  0.0412  0.1229
  749POPS   GL211408   8.301   6.575   5.756  0.2918 -0.0004 -0.0679
  749POPS   C1A11409   8.364   6.053   5.834 -0.3344 -0.3019 -0.3998
  749POPS   D2A11410   8.789   6.218   5.885 -0.0161 -0.0682 -0.1131
  749POPS   C3A11411   8.987   6.197   6.357  0.1251 -0.0537 -0.0641
  749POPS   C4A11412   8.802   6.108   6.754  0.4905  0.0456  0.0017
  749POPS   C1B11413   8.359   6.469   6.166 -0.2705  0.0809 -0.0432
  749POPS   C2B11414   8.359   6.418   6.744  0.0655  0.2546  0.2775
  749POPS   C3B11415   8.504   6.609   7.099 -0.1972  0.1364 -0.0627
  749POPS   C4B11416   8.613   6.883   7.506 -0.0160  0.0476 -0.0255
  750POPS   CNO11417  17.283  16.368   4.440 -0.3218 -0.0404  0.0476
  750POPS   PO411418  17.148  16.668   4.776  0.0141  0.0298 -0.0038
  750POPS   GL111419  17.086  16.645   5.169  0.0073  0.1817 -0.2540
  750POPS   GL211420  16.822  16.723   5.448 -0.2420  0.0880  0.0830
  750POPS   C1A11421  17.316  16.705   5.442 -0.1331 -0.4972  0.2152
  750POPS   D2A11422  17.719  16.697   5.582  0.1959 -0.0057 -0.0130
  750POPS   C3A11423  17.648  16.407   5.854 -0.0275 -0.4139 -0.1773
  750POPS   C4A11424  17.450  16.122   6.158 -0.1525  0.2823  0.1364
  750POPS   C1B11425  16.393  16.673   5.677 -0.2459  0.0399 -0.1674
  750POPS   C2B11426  16.127  16.478   6.018  0.2039 -0.3870  0.0716
  750POPS   C3B11427  15.890  16.358   6.403  0.0896  0.0471  0.0527
  750POPS   C4B11428  16.106  16.142   6.805 -0.1636  0.1154  0.0361
  751POPS   CNO11429   4.374   5.514   5.916 -0.0000  0.0778  0.0665
  751POPS   PO411430   4.640   5.180   5.857  0.1372  0.3076 -0.0120
  751POPS   GL111431   4.710   5.219   6.259  0.1440  0.2286 -0.0069
  751POPS   GL211432   4.629   4.965   6.535 -0.0392  0.1123  0.0344
  751POPS   C1A11433   4.435   5.465   6.612 -0.0151  0.3198 -0.2297
  751POPS   D2A11434   4.220   5.791   6.993  0.0529  0.0433 -0.0599
  751POPS   C3A11435   4.531   5.952   7.152 -0.0557  0.0545 -0.0325
  751POPS   C4A11436   4.595   6.041   7.505 -0.0666 -0.2649  0.0105
  751POPS   C1B11437   4.779   4.725   6.852 -0.2362 -0.1036  0.4809
  751POPS   C2B11438   4.679   4.547   7.356  0.1299 -0.3138  0.1290
  751POPS   C3B11439   4.319   4.610   7.618  0.1903 -0.1382  0.3718
  751POPS   C4B11440   4.134   4.762   8.015 -0.0179  0.3162 -0.0531
  752POPS   CNO11441   0.862  14.114   5.429 -0.1250  0.1217  0.3790
  752POPS   PO411442   1.208  13.893   5.602  0.2190  0.5522  0.1764
  752POPS   GL111443   1.310  14.243   5.875  0.0278  0.1388 -0.4276
  752POPS   GL211444   1.087  14.449   5.856  0.1046 -0.0539  0.1381
  752POPS   C1A11445   1.435  14.362   6.289 -0.0348  0.2687 -0.1864
  752POPS   D2A11446   1.429  14.726   6.562 -0.0509 -0.0688  0.2487
  752POPS   C3A11447   1.649  14.791   6.873  0.2943  0.0160  0.0652
  752POPS   C4A11448   1.600  14.602   7.312 -0.1707  0.2028 -0.3242
  752POPS   C1B11449   1.054  14.613   6.201 -0.4003 -0.0712  0.1541
  752POPS   C2B11450   0.901  14.979   6.506  0.1800 -0.0865 -0.0531
  752POPS   C3B11451   0.810  15.001   6.938 -0.0943 -0.0526 -0.0274
  752POPS   C4B11452   0.712  14.867   7.354  0.0678 -0.3818 -0.0855
  753POPS   CNO11453   6.014   6.169   5.525  0.0781  0.0597  0.0798
  753POPS   PO411454   5.645   6.414   5.653  0.0617  0.1918  0.2219
  753POPS   GL111455   5.912   6.166   6.036  0.3364  0.0935  0.0267
  753POPS   GL211456   6.210   5.955   6.017 -0.2400 -0.2855 -0.2978
  753POPS   C1A11457   6.081   6.313   6.381 -0.0794 -0.1105  0.2031
  753POPS   D2A11458   6.229   6.302   6.758 -0.2376 -0.0280  0.0757
  753POPS   C3A11459   6.314   6.081   7.079 -0.1040 -0.2884 -0.2054
  753POPS   C4A11460   6.231   5.844   7.410  0.0329  0.1762 -0.3708
  753POPS   C1B11461   5.867   5.710   6.150  0.3179 -0.0104 -0.2598
  753POPS   C2B11462   5.507   5.547   6.262  0.0308 -0.0153  0.0241
  753POPS   C3B11463   5.178   5.599   6.407  0.0076 -0.2440  0.0554
  753POPS   C4B11464   4.860   5.350   6.783  0.4057  0.2337 -0.0138
  754POPS   CNO11465  18.607   2.064   4.941  0.0482  0.3459  0.0403
  754POPS   PO411466  18.534   1.864   5.340 -0.0139  0.0128  0.0991
  754POPS   GL111467  18.403   2.197   5.669 -0.1719  0.1384  0.2898
  754POPS   GL211468  18.302   2.188   5.961 -0.1638  0.0249 -0.2777
  754POPS   C1A11469  18.672   2.536   5.754  0.2457 -0.1848  0.1661
  754POPS   D2A11470  19.005   2.772   5.810  0.4155  0.2901  0.2016
  754POPS   C3A11471  18.972   3.098   6.089 -0.0856 -0.0242 -0.2473
  754POPS   C4A11472  19.135   3.314   6.370 -0.0428  0.0479 -0.2611
  754POPS   C1B11473  18.384   2.386   6.293  0.1054  0.0098  0.3642
  754POPS   C2B11474  18.092   2.619   6.525  0.0581 -0.2485 -0.2686
  754POPS   C3B11475  17.865   2.753   6.950 -0.1948 -0.0922 -0.0533
  754POPS   C4B11476  17.548   3.103   7.042  0.0300 -0.0861  0.2576
  755POPS   CNO11477  11.108   8.788   4.915 -0.0775  0.1711 -0.1434
  755POPS   PO411478  11.518   8.727   4.985  0.3257  0.4023  0.1801
  755POPS   GL111479  11.563   9.048   5.353  0.1060 -0.0781  0.1249
  755POPS   GL211480  11.243   9.275   5.473  0.2913 -0.2690 -0.0719
  755POPS   C1A11481  11.657   9.228   5.722 -0.2280 -0.4711 -0.1515
  755POPS   D2A11482  11.577   9.542   6.070  0.1598 -0.4771 -0.5096
  755POPS   C3A11483  11.266   9.285   6.348 -0.2169  0.3556  0.1233
  755POPS   C4A11484  11.310   9.251   6.900  0.2761 -0.0732 -0.2301
  755POPS   C1B11485  10.912   9.412   5.828 -0.2548 -0.0128 -0.1449
  755POPS   C2B11486  10.623   9.641   6.051  0.0888  0.1626  0.2898
  755POPS   C3B11487  10.594   9.889   6.343 -0.1158  0.0578  0.1637
  755POPS   C4B11488  10.594  10.249   6.621  0.0061  0.0156  0.1000
  756POPS   CNO11489   7.671   9.241   5.394  0.1130 -0.0644 -0.1459
  756POPS   PO411490   7.867   9.229   5.812 -0.1010  0.2059 -0.0505
  756POPS   GL111491   8.203   9.281   6.213  0.2098 -0.0346 -0.0645
  756POPS   GL211492   7.866   9.451   6.401 -0.3533  0.1594  0.1069
  756POPS   C1A11493   8.420   9.287   6.518  0.0160  0.3133  0.1323
  756POPS   D2A11494   8.621   9.257   6.855  0.2237  0.6078 -0.1110
  756POPS   C3A11495   8.785   8.923   6.933  0.1421  0.1602 -0.0997
  756POPS   C4A11496   9.050   8.895   7.295  0.3329  0.0882  0.0530
  756POPS   C1B11497   8.021   9.322   6.760 -0.1295 -0.4537 -0.1886
  756POPS   C2B11498   7.891   9.130   7.040  0.2096  0.1159 -0.1794
  756POPS   C3B11499   7.675   8.773   7.322  0.1768 -0.0762 -0.0426
  756POPS   C4B11500   7.428   8.644   7.625 -0.2502  0.1119 -0.0581
  757POPS   CNO11501   2.993   2.279   5.674  0.0162 -0.2057 -0.3614
  757POPS   PO411502   2.922   1.755   5.572  0.1191 -0.0932 -0.4048
  757POPS   GL111503   2.970   1.670   5.997 -0.0849  0.2836  0.0886
  757POPS   GL211504   2.622   1.591   6.125  0.0050 -0.0669  0.1955
  757POPS   C1A11505   2.948   1.618   6.458  0.0134 -0.0823  0.0596
  757POPS   D2A11506   3.219   1.448   6.704  0.0881 -0.1480 -0.1842
  757POPS   C3A11507   3.343   1.821   6.848 -0.2275 -0.1711 -0.1960
  757POPS   C4A11508   3.161   2.056   7.089  0.1484  0.1422  0.0019
  757POPS   C1B11509   2.496   1.889   6.359 -0.0924 -0.0030  0.1833
  757POPS   C2B11510   2.154   1.828   6.709 -0.1716 -0.1638  0.1146
  757POPS   C3B11511   2.212   1.698   7.114  0.0503 -0.0717  0.0328
  757POPS   C4B11512   1.996   1.567   7.486 -0.1881 -0.0271  0.0529
  758POPS   CNO11513  12.842   2.708   5.057  0.0370  0.2498  0.0373
  758POPS   PO411514  12.874   2.274   4.999 -0.2933 -0.1399  0.1759
  758POPS   GL111515  12.715   2.152   5.396  0.0145  0.2657  0.1557
  758POPS   GL211516  12.776   2.383   5.584  0.1104 -0.0516 -0.5527
  758POPS   C1A11517  12.515   1.994   5.844 -0.3789  0.1073  0.1393
  758POPS   D2A11518  12.751   1.938   6.335 -0.2793  0.6238  0.0379
  758POPS   C3A11519  12.955   1.753   6.546 -0.1237  0.1655 -0.2532
  758POPS   C4A11520  13.325   1.628   6.618  0.1089 -0.0517 -0.1726
  758POPS   C1B11521  12.875   2.780   5.914 -0.1452  0.0833  0.2418
  758POPS   C2B11522  13.309   2.760   6.093  0.1166  0.2650  0.0303
  758POPS   C3B11523  13.794   2.739   6.258  0.2951  0.0730 -0.2386
  758POPS   C4B11524  14.133   3.062   6.378 -0.0302  0.3450 -0.0993
  759POPS   CNO11525   2.597  10.779   6.202 -0.0289 -0.2022  0.0849
  759POPS   PO411526   2.305  10.554   6.210 -0.0351 -0.0455  0.1174
  759POPS   GL111527   2.326  10.525   6.581  0.1143 -0.1833  0.3111
  759POPS   GL211528   2.558  10.737   6.663 -0.1014 -0.1500 -0.0232
  759POPS   C1A11529   2.336  10.407   6.983 -0.4237  0.0644 -0.1905
  759POPS   D2A11530   2.420  10.265   7.343 -0.1381 -0.0704 -0.0001
  759POPS   C3A11531   2.215   9.902   7.385 -0.0472 -0.2234  0.2183
  759POPS   C4A11532   1.918   9.677   7.586  0.3520  0.3705  0.2491
  759POPS   C1B11533   2.318  10.896   7.001 -0.1173  0.0262  0.0860
  759POPS   C2B11534   2.164  10.776   7.294 -0.0975 -0.1538 -0.2196
  759POPS   C3B11535   1.943  10.460   7.383  0.0700  0.0982 -0.0377
  759POPS   C4B11536   1.764  10.045   7.275  0.1848 -0.0817  0.1656
  760POPS   CNO11537   1.803   0.573   5.141 -0.0306  0.0893 -0.0724
  760POPS   PO411538   1.931   0.164   5.489 -0.2112 -0.3487 -0.2452
  760POPS   GL111539   2.010   0.450   5.886 -0.0854  0.0945  0.1048
  760POPS   GL211540   2.019   0.715   5.831 -0.1650 -0.0124 -0.2391
  760POPS   C1A11541   2.221   0.575   6.348  0.0499 -0.5084  0.0988
  760POPS   D2A11542   2.117   0.809   6.653 -0.0934  0.1164 -0.1029
  760POPS   C3A11543   1.939   0.647   7.063 -0.0815 -0.2630  0.1037
  760POPS   C4A11544   1.847   0.644   7.576 -0.2425  0.1970 -0.1703
  760POPS   C1B11545   1.752   0.776   6.162  0.0182  0.0274 -0.0355
  760POPS   C2B11546   1.633   0.711   6.504 -0.1552 -0.1726 -0.0889
  760POPS   C3B11547   1.657   0.978   6.825 -0.2202  0.3005  0.1978
  760POPS   C4B11548   1.351   1.276   7.071 -0.1482 -0.1747 -0.2555
  761POPS   CNO11549  10.218   2.984   5.259  0.0360  0.1792 -0.0221
  761POPS   PO411550  10.462   2.600   5.184  0.0041  0.1221 -0.0958
  761POPS   GL111551  10.558   2.783   5.600 -0.0037  0.2099  0.0160
  761POPS   GL211552  10.311   2.781   5.823  0.0171 -0.0547  0.0787
  761POPS   C1A11553  10.714   3.072   6.012 -0.1820  0.2067  0.0370
  761POPS   D2A11554  10.957   3.033   6.322 -0.1303  0.0923  0.0161
  761POPS   C3A11555  10.843   2.697   6.554  0.0530 -0.2350 -0.1401
  761POPS   C4A11556  11.020   2.370   6.514 -0.1683  0.2164  0.1666
  761POPS   C1B11557  10.431   2.678   6.182 -0.0395  0.0780  0.2044
  761POPS   C2B11558  10.461   3.013   6.430  0.1064  0.0169 -0.4372
  761POPS   C3B11559  10.628   3.436   6.664 -0.0003 -0.1595 -0.1480
  761POPS   C4B11560  10.950   3.721   6.913  0.0626 -0.0441 -0.0847
  762POPS   CNO11561  11.371   6.512   5.030 -0.0394 -0.1802  0.0024
  762POPS   PO411562  11.775   6.666   5.140 -0.4421  0.1853  0.1123
  762POPS   GL111563  11.579   6.961   5.417  0.0630  0.0153  0.2615
  762POPS   GL211564  11.677   6.766   5.654 -0.2997 -0.1304 -0.2859
  762POPS   C1A11565  11.819   7.213   5.645 -0.0536  0.1242  0.1488
  762POPS   D2A11566  12.042   7.266   5.987  0.2786 -0.1378 -0.1630
  762POPS   C3A11567  12.039   7.186   6.398 -0.1370  0.2128 -0.0502
  762POPS   C4A11568  12.209   7.548   6.723 -0.0499 -0.1335  0.0176
  762POPS   C1B11569  11.408   6.984   5.925  0.1095 -0.2445  0.1325
  762POPS   C2B11570  11.008   6.872   6.181  0.0363  0.1696  0.0632
  762POPS   C3B11571  10.853   6.771   6.609  0.2336 -0.1496  0.2131
  762POPS   C4B11572  10.598   6.532   6.917  0.1652 -0.1796  0.1868
  763POPS   CNO11573   5.014  18.659   5.387  0.2045  0.1336  0.3237
  763POPS   PO411574   4.628  18.974   5.405 -0.2349  0.0046  0.3407
  763POPS   GL111575   4.664  18.892   5.759  0.1962  0.1329 -0.0166
  763POPS   GL211576   4.369  18.860   5.905  0.1860  0.2554 -0.1745
  763POPS   C1A11577   4.902  19.004   6.155 -0.3011 -0.0442 -0.2608
  763POPS   D2A11578   5.028  18.978   6.573  0.1485 -0.0515 -0.0610
  763POPS   C3A11579   4.977  19.443   6.732  0.2309 -0.3314  0.3105
  763POPS   C4A11580   4.971  19.665   7.083  0.1771  0.3670  0.0982
  763POPS   C1B11581   4.110  18.452   6.065  0.3586  0.1566 -0.2247
  763POPS   C2B11582   4.123  18.028   6.353 -0.1750 -0.0980  0.3050
  763POPS   C3B11583   3.969  17.891   6.761  0.0855 -0.2867  0.1429
  763POPS   C4B11584   3.825  17.645   7.145 -0.2475  0.1028 -0.0732
  764POPS   CNO11585  17.956  19.168   5.493 -0.0794  0.0830 -0.0929
  764POPS   PO411586  17.558  19.376   5.376 -0.1624 -0.0016  0.0443
  764POPS   GL111587  17.708  19.498   5.787 -0.0484  0.3336  0.3507
  764POPS   GL211588  17.556  19.813   5.878  0.1918  0.2905  0.2376
  764POPS   C1A11589  17.646  19.407   6.190  0.3431  0.2183 -0.2502
  764POPS   D2A11590  17.602  19.437   6.626 -0.1691  0.1840 -0.1577
  764POPS   C3A11591  17.890  19.509   6.876 -0.1219 -0.3452 -0.2269
  764POPS   C4A11592  18.261  19.473   7.156 -0.1628  0.0469  0.3301
  764POPS   C1B11593  17.306  19.816   6.254 -0.0566 -0.1276 -0.0103
  764POPS   C2B11594  17.170  19.775   6.678  0.1628  0.2543 -0.1294
  764POPS   C3B11595  17.160  20.080   7.068 -0.1228  0.2786  0.2591
  764POPS   C4B11596  16.888  20.091   7.314 -0.2670 -0.1032 -0.0961
  765POPS   CNO11597   2.387  12.681   5.323  0.2272 -0.1842  0.0716
  765POPS   PO411598   2.394  12.347   5.627 -0.2754 -0.0228  0.0225
  765POPS   GL111599   2.496  12.604   5.830  0.0253  0.0929  0.0952
  765POPS   GL211600   2.431  12.469   6.178 -0.1739 -0.0201 -0.0603
  765POPS   C1A11601   2.508  13.007   6.054 -0.0532 -0.2180  0.1182
  765POPS   D2A11602   2.808  13.140   6.337 -0.4335 -0.0636 -0.4239
  765POPS   C3A11603   3.093  12.811   6.711 -0.0887  0.2509  0.0389
  765POPS   C4A11604   3.401  12.866   6.993  0.1176  0.0418  0.0070
  765POPS   C1B11605   2.482  12.588   6.686  0.2058  0.0962 -0.0316
  765POPS   C2B11606   2.333  12.791   7.081 -0.0634  0.1753 -0.4666
  765POPS   C3B11607   2.372  13.262   7.218  0.1339  0.0302  0.3030
  765POPS   C4B11608   2.754  13.663   7.248 -0.0301 -0.3371 -0.0563
  766POPS   CNO11609   7.465  18.927   5.259  0.0909  0.1052 -0.0145
  766POPS   PO411610   7.396  19.363   5.280 -0.1861 -0.2381 -0.0244
  766POPS   GL111611   7.236  19.080   5.693 -0.0205  0.1472 -0.0165
  766POPS   GL211612   7.063  19.199   5.838 -0.3500 -0.0935  0.1671
  766POPS   C1A11613   7.365  18.691   5.905  0.0532 -0.2492  0.3633
  766POPS   D2A11614   7.697  18.500   6.234  0.1217  0.0147 -0.0614
  766POPS   C3A11615   7.502  18.489   6.590 -0.3844 -0.0219  0.1423
  766POPS   C4A11616   7.556  18.708   6.963 -0.0775  0.1911 -0.0880
  766POPS   C1B11617   7.261  19.009   6.242  0.0167  0.1749 -0.1930
  766POPS   C2B11618   7.406  19.030   6.645  0.0893 -0.2266  0.0215
  766POPS   C3B11619   7.296  19.147   7.133 -0.0213 -0.0148 -0.1953
  766POPS   C4B11620   7.187  19.506   7.180  0.2268  0.0673  0.2577
  767POPS   CNO11621   7.807  13.535   5.245  0.3134 -0.3763 -0.2660
  767POPS   PO411622   7.805  13.987   5.436  0.3274 -0.0349 -0.4229
  767POPS   GL111623   7.852  14.191   5.874  0.2579  0.1574 -0.1128
  767POPS   GL211624   7.745  14.544   5.926  0.2159 -0.0974  0.3932
  767POPS   C1A11625   7.693  14.172   6.284  0.1621  0.0425  0.0391
  767POPS   D2A11626   7.938  13.974   6.604  0.0128  0.3061 -0.0864
  767POPS   C3A11627   8.196  14.349   6.800 -0.0122  0.3016 -0.3111
  767POPS   C4A11628   8.432  14.357   7.079  0.0338  0.2880  0.1354
  767POPS   C1B11629   8.065  14.537   6.258 -0.1468 -0.3326 -0.1145
  767POPS   C2B11630   8.290  14.818   6.351 -0.2977 -0.2041 -0.1742
  767POPS   C3B11631   8.536  14.879   6.620  0.1492 -0.2303 -0.0937
  767POPS   C4B11632   8.728  14.830   7.040  0.1520  0.0349 -0.0660
  768POPS   CNO11633  13.381   9.645   4.536  0.3451  0.0783 -0.0343
  768POPS   PO411634  13.350   9.817   4.925 -0.1623  0.3299 -0.3688
  768POPS   GL111635  13.646   9.797   5.273 -0.1605  0.1393  0.0375
  768POPS   GL211636  13.702  10.114   5.201  0.0315 -0.1440 -0.1969
  768POPS   C1A11637  13.944   9.653   5.589  0.0124 -0.0898 -0.1447
  768POPS   D2A11638  13.979   9.668   6.068 -0.0814 -0.0232  0.0546
  768POPS   C3A11639  13.715   9.861   6.264 -0.0742 -0.0980  0.0864
  768POPS   C4A11640  13.578  10.054   6.587  0.4678  0.1596 -0.1113
  768POPS   C1B11641  13.466  10.150   5.579  0.1220 -0.1153 -0.1341
  768POPS   C2B11642  13.231   9.928   5.938  0.1117 -0.6195 -0.0159
  768POPS   C3B11643  13.057   9.900   6.369 -0.0469  0.4994  0.0958
  768POPS   C4B11644  12.950  10.013   6.763 -0.0786  0.1068  0.0243
  769POPS   CNO11645  10.394  16.784   5.291 -0.0893 -0.0159  0.0593
  769POPS   PO411646  10.900  16.817   5.208  0.1785  0.1347  0.1311
  769POPS   GL111647  10.782  16.710   5.633 -0.1943 -0.0803 -0.0049
  769POPS   GL211648  10.997  16.428   5.868 -0.0236 -0.3402  0.0909
  769POPS   C1A11649  10.588  16.988   5.970  0.1740  0.2339  0.1317
  769POPS   D2A11650  10.126  17.077   6.245  0.0192  0.2958 -0.0539
  769POPS   C3A11651   9.977  16.915   6.605 -0.1394  0.1273  0.0987
  769POPS   C4A11652   9.696  17.015   6.869 -0.0093 -0.1072  0.1867
  769POPS   C1B11653  10.741  16.398   6.167  0.0973 -0.0440 -0.0987
  769POPS   C2B11654  10.505  16.777   6.394  0.1886 -0.0268  0.0744
  769POPS   C3B11655  10.342  16.780   6.891  0.3968  0.2517 -0.0752
  769POPS   C4B11656  10.141  16.752   7.239  0.1863 -0.3028  0.2850
  770POPS   CNO11657   4.821   6.640   6.174  0.2653 -0.1163  0.1843
  770POPS   PO411658   5.276   6.808   6.127 -0.1425  0.1278  0.1140
  770POPS   GL111659   5.177   6.654   6.500  0.0756 -0.4065  0.1562
  770POPS   GL211660   5.131   6.373   6.475 -0.1792 -0.0413 -0.0130
  770POPS   C1A11661   4.854   6.874   6.680  0.1110  0.1328  0.1001
  770POPS   D2A11662   4.801   6.944   7.126 -0.0216  0.1113  0.3715
  770POPS   C3A11663   5.043   7.402   7.153  0.0741  0.1616  0.0841
  770POPS   C4A11664   5.429   7.591   7.337  0.4000  0.3374  0.0548
  770POPS   C1B11665   5.319   6.378   6.882  0.0012  0.2448 -0.1550
  770POPS   C2B11666   5.375   6.265   7.286 -0.0721 -0.0077  0.1965
  770POPS   C3B11667   5.507   6.467   7.617  0.0232 -0.0905 -0.2566
  770POPS   C4B11668   5.406   6.468   8.015 -0.1436 -0.0017 -0.1634
  771POPS   CNO11669   6.427   6.069   5.200  0.1254 -0.1277  0.1836
  771POPS   PO411670   6.543   6.089   5.652 -0.1178 -0.2420  0.1731
  771POPS   GL111671   6.936   6.168   5.980 -0.1289 -0.2991  0.0170
  771POPS   GL211672   6.911   6.097   6.368 -0.1958  0.2009 -0.2513
  771POPS   C1A11673   6.983   6.616   6.366  0.1799 -0.0912  0.1966
  771POPS   D2A11674   6.868   6.942   6.720 -0.0506 -0.1469 -0.2454
  771POPS   C3A11675   6.951   7.029   7.150  0.0771 -0.0538 -0.1037
  771POPS   C4A11676   7.486   6.903   7.166  0.1070 -0.0310  0.2638
  771POPS   C1B11677   6.610   5.912   6.594  0.2473  0.1186 -0.1772
  771POPS   C2B11678   6.450   5.565   6.852 -0.1833 -0.1058 -0.0006
  771POPS   C3B11679   6.394   5.423   7.187  0.0968 -0.1091  0.0542
  771POPS   C4B11680   6.130   5.165   7.490 -0.5067  0.1887  0.1311
  772POPS   CNO11681  12.344   0.877   4.726 -0.0768  0.1689 -0.1130
  772POPS   PO411682  12.470   0.680   5.089  0.0825 -0.2164  0.1152
  772POPS   GL111683  12.602   0.683   5.533 -0.1575 -0.4342 -0.0303
  772POPS   GL211684  12.484   0.762   5.643  0.0894  0.1614  0.1807
  772POPS   C1A11685  12.895   0.541   5.794  0.0255 -0.2559 -0.0503
  772POPS   D2A11686  12.679   0.561   6.248  0.2877  0.1490  0.0222
  772POPS   C3A11687  12.828   0.812   6.613 -0.1863 -0.1407  0.0046
  772POPS   C4A11688  12.597   1.099   6.776  0.5677  0.1569  0.0727
  772POPS   C1B11689  12.198   1.024   5.750 -0.0349 -0.1048 -0.1797
  772POPS   C2B11690  11.905   1.381   5.826 -0.2277  0.0875 -0.0361
  772POPS   C3B11691  11.523   1.479   5.860 -0.0139  0.1270  0.0060
  772POPS   C4B11692  11.187   1.563   6.052  0.0023 -0.3186  0.1668
  773POPS   CNO11693  13.287   3.519   4.814  0.3121  0.3129  0.0884
  773POPS   PO411694  13.453   3.580   5.125 -0.0589  0.0469 -0.2505
  773POPS   GL111695  13.512   3.367   5.510 -0.1510  0.2723 -0.0839
  773POPS   GL211696  13.218   3.236   5.771 -0.1049 -0.2675 -0.1649
  773POPS   C1A11697  13.729   3.073   5.861  0.0914  0.0389 -0.1752
  773POPS   D2A11698  14.271   3.083   5.855  0.1028 -0.0438 -0.2251
  773POPS   C3A11699  14.547   2.805   6.280 -0.1442  0.2361 -0.0784
  773POPS   C4A11700  14.316   2.830   6.838  0.1965 -0.0142  0.0707
  773POPS   C1B11701  13.140   3.613   5.958 -0.2198  0.3470  0.2467
  773POPS   C2B11702  13.342   3.917   6.083 -0.2101 -0.2003  0.0672
  773POPS   C3B11703  13.648   3.992   6.281 -0.1632 -0.0838  0.0525
  773POPS   C4B11704  13.898   3.930   6.626 -0.1369 -0.2564 -0.0375
  774POPS   CNO11705  11.919   2.485   5.319 -0.1423  0.1802  0.0766
  774POPS   PO411706  11.748   2.059   5.471 -0.0665 -0.0793 -0.1314
  774POPS   GL111707  11.781   2.330   5.817 -0.1834  0.1929 -0.3220
  774POPS   GL211708  11.563   2.487   5.781  0.1244  0.0984  0.0703
  774POPS   C1A11709  11.643   2.222   6.192  0.0427  0.2741  0.2590
  774POPS   D2A11710  11.439   1.930   6.317  0.2502  0.3186  0.0746
  774POPS   C3A11711  11.052   1.762   6.497 -0.0521  0.1964 -0.1632
  774POPS   C4A11712  10.638   1.745   6.593  0.0347 -0.0148  0.0371
  774POPS   C1B11713  11.370   2.619   6.261 -0.1750  0.0558  0.2628
  774POPS   C2B11714  11.329   2.726   6.758  0.1656 -0.1923  0.2431
  774POPS   C3B11715  11.299   2.706   7.263  0.0127  0.2361  0.2088
  774POPS   C4B11716  11.250   2.928   7.521  0.1612  0.3166  0.1003
  775POPS   CNO11717  11.758  16.583   4.824 -0.1081  0.2858  0.0870
  775POPS   PO411718  11.300  16.567   4.938 -0.1352  0.0455  0.0836
  775POPS   GL111719  11.565  16.549   5.263 -0.0296 -0.2148 -0.0234
  775POPS   GL211720  11.397  16.714   5.529  0.1071  0.0282  0.1126
  775POPS   C1A11721  11.804  16.405   5.617  0.0765 -0.0385 -0.4455
  775POPS   D2A11722  11.979  16.338   5.995  0.0703  0.0837  0.1022
  775POPS   C3A11723  11.837  16.313   6.393  0.2334  0.0525 -0.0081
  775POPS   C4A11724  11.956  15.946   6.608 -0.2780  0.0248 -0.0945
  775POPS   C1B11725  11.637  16.732   5.940  0.3368  0.0493 -0.2369
  775POPS   C2B11726  11.661  16.769   6.324  0.2401 -0.0517 -0.0873
  775POPS   C3B11727  11.719  16.644   6.770  0.2962  0.0298 -0.1858
  775POPS   C4B11728  11.524  16.654   7.275  0.1496  0.0705  0.2664
  776POPS   CNO11729   1.506   4.200   5.130  0.0338  0.0147  0.0866
  776POPS   PO411730   1.271   4.318   5.522 -0.0736  0.1708  0.0354
  776POPS   GL111731   1.129   4.440   5.934  0.0424  0.2681  0.1391
  776POPS   GL211732   1.287   4.028   5.965  0.0374 -0.0494  0.0402
  776POPS   C1A11733   0.930   4.477   6.305 -0.2449  0.2129  0.2174
  776POPS   D2A11734   0.944   4.643   6.682  0.1562 -0.0297 -0.0798
  776POPS   C3A11735   0.793   4.619   7.015 -0.0236  0.1291 -0.1285
  776POPS   C4A11736   0.369   4.743   7.236  0.1959 -0.3225  0.1763
  776POPS   C1B11737   1.242   4.124   6.388 -0.2147  0.0507  0.2364
  776POPS   C2B11738   1.167   4.179   6.822  0.0469 -0.1433  0.0199
  776POPS   C3B11739   1.285   4.133   7.231  0.0726 -0.2768 -0.0612
  776POPS   C4B11740   1.601   4.088   7.491 -0.0231 -0.2140 -0.1009
  777POPS   CNO11741  17.478  10.817   5.853  0.2594  0.3162  0.0966
  777POPS   PO411742  17.329  11.118   5.715  0.3339  0.2180 -0.3399
  777POPS   GL111743  17.044  11.097   6.126  0.1251  0.1005  0.0535
  777POPS   GL211744  16.973  10.780   6.095 -0.1152  0.1675  0.1974
  777POPS   C1A11745  16.813  11.233   6.557  0.0151  0.1605 -0.1272
  777POPS   D2A11746  16.716  11.055   6.887  0.2290 -0.3238 -0.2125
  777POPS   C3A11747  16.882  11.195   7.313  0.3668  0.3236 -0.0997
  777POPS   C4A11748  16.912  11.367   7.749 -0.2700  0.0091  0.0662
  777POPS   C1B11749  16.605  10.747   6.285 -0.1299 -0.2685  0.3912
  777POPS   C2B11750  16.394  10.640   6.593  0.2350 -0.1209  0.1618
  777POPS   C3B11751  16.240  10.588   6.980 -0.1806 -0.1055  0.1506
  777POPS   C4B11752  16.046  10.321   7.324  0.1227 -0.0994 -0.0378
  778POPS   CNO11753  15.165  15.350   4.787 -0.4733  0.0271 -0.0064
  778POPS   PO411754  15.575  15.514   4.940  0.2474 -0.1758  0.0729
  778POPS   GL111755  15.445  15.337   5.297  0.0130 -0.0323 -0.2073
  778POPS   GL211756  15.623  15.128   5.453  0.0909  0.1076 -0.2867
  778POPS   C1A11757  15.159  14.952   5.504 -0.1679  0.1289  0.2848
  778POPS   D2A11758  15.274  14.690   5.846  0.2162  0.3141 -0.2149
  778POPS   C3A11759  15.544  14.902   6.222  0.2337  0.0732 -0.0415
  778POPS   C4A11760  15.947  15.061   6.376 -0.1762  0.0722  0.1012
  778POPS   C1B11761  15.758  15.470   5.850 -0.3203 -0.0303  0.0706
  778POPS   C2B11762  15.610  15.459   6.195 -0.2527  0.2425 -0.0170
  778POPS   C3B11763  15.484  15.246   6.543 -0.0743 -0.2207  0.4059
  778POPS   C4B11764  15.620  14.920   6.721  0.1062  0.2322 -0.1399
  779POPS   CNO11765   6.846  17.632   4.737 -0.1122 -0.1354 -0.0557
  779POPS   PO411766   7.004  17.642   5.218  0.1886 -0.3986 -0.0241
  779POPS   GL111767   6.737  17.670   5.605  0.1686 -0.1132 -0.2291
  779POPS   GL211768   6.882  17.876   5.763  0.1141 -0.3018  0.0011
  779POPS   C1A11769   6.981  17.374   5.866 -0.2101  0.0157 -0.5697
  779POPS   D2A11770   7.201  16.921   5.877 -0.0355 -0.0580 -0.3987
  779POPS   C3A11771   7.570  16.822   6.069  0.2979  0.1058 -0.2602
  779POPS   C4A11772   7.662  17.001   6.420 -0.1136 -0.1827 -0.1440
  779POPS   C1B11773   7.047  17.879   6.134  0.2280 -0.2933 -0.1867
  779POPS   C2B11774   7.412  17.806   6.429  0.0798  0.2245  0.0494
  779POPS   C3B11775   7.673  17.968   6.711  0.2440  0.0013 -0.2598
  779POPS   C4B11776   8.091  17.894   6.948  0.1082  0.3516 -0.0538
  780POPS   CNO11777   0.456   9.751   5.335 -0.2074  0.2902 -0.1894
  780POPS   PO411778   0.291   9.411   5.232 -0.1889 -0.0493  0.0680
  780POPS   GL111779   0.385   9.420   5.713  0.0185 -0.0750  0.0731
  780POPS   GL211780   0.135   9.334   5.954 -0.3955 -0.0234 -0.2440
  780POPS   C1A11781   0.414   9.655   6.113  0.1515 -0.0267 -0.0827
  780POPS   D2A11782   0.063   9.950   6.367  0.0854 -0.1835 -0.2104
  780POPS   C3A11783  -0.214   9.892   6.721  0.0818 -0.1418  0.2923
  780POPS   C4A11784  -0.248   9.499   6.983  0.1993 -0.1533  0.0618
  780POPS   C1B11785  -0.012   9.446   6.303  0.0473 -0.0638 -0.2543
  780POPS   C2B11786   0.202   9.627   6.759 -0.1135  0.2121  0.4164
  780POPS   C3B11787   0.274   9.792   7.104 -0.1233  0.2237  0.0901
  780POPS   C4B11788   0.443  10.111   7.382  0.2990  0.2901  0.0392
  781POPS   CNO11789   7.738  10.438   5.351 -0.3222 -0.0970 -0.1839
  781POPS   PO411790   7.424  10.071   5.620 -0.4772 -0.0149 -0.0533
  781POPS   GL111791   7.436  10.127   6.063 -0.0838 -0.1088 -0.1078
  781POPS   GL211792   7.337  10.426   6.208  0.2360  0.3754 -0.0981
  781POPS   C1A11793   7.651  10.040   6.411  0.0912  0.1226  0.3096
  781POPS   D2A11794   7.734  10.165   6.873 -0.0228 -0.0014 -0.2522
  781POPS   C3A11795   8.117  10.178   6.955  0.1838  0.1846  0.0552
  781POPS   C4A11796   8.509  10.233   6.630 -0.2824  0.0006  0.0911
  781POPS   C1B11797   7.513  10.485   6.560  0.0123  0.5040  0.2519
  781POPS   C2B11798   7.357  10.596   6.883  0.4903 -0.1164 -0.1689
  781POPS   C3B11799   7.381  10.570   7.300 -0.0510 -0.4196  0.0458
  781POPS   C4B11800   7.316  10.252   7.599  0.0949 -0.4882 -0.0015
  782POPS   CNO11801  12.536   6.947   4.735  0.3884  0.2111  0.1026
  782POPS   PO411802  12.560   7.292   4.897  0.0013 -0.0425  0.3275
  782POPS   GL111803  12.709   7.174   5.353  0.0198  0.0260  0.1300
  782POPS   GL211804  13.031   7.390   5.458  0.0022 -0.1152 -0.2747
  782POPS   C1A11805  12.725   7.204   5.870  0.2009  0.2302 -0.2303
  782POPS   D2A11806  13.060   7.227   6.095 -0.0509 -0.2585  0.0770
  782POPS   C3A11807  13.004   7.058   6.415 -0.2470 -0.0921 -0.1817
  782POPS   C4A11808  13.072   6.901   6.833 -0.0156 -0.0893 -0.0948
  782POPS   C1B11809  12.949   7.648   5.799 -0.1669  0.0249 -0.1958
  782POPS   C2B11810  13.123   7.784   6.241  0.0926 -0.1253 -0.1877
  782POPS   C3B11811  13.464   7.878   6.462 -0.0042 -0.2756  0.1878
  782POPS   C4B11812  13.948   7.913   6.454  0.0243  0.0262  0.2620
  783POPS   CNO11813   7.305   0.868   5.264  0.1549  0.0100  0.4190
  783POPS   PO411814   7.542   0.878   5.473  0.1935  0.1357  0.0319
  783POPS   GL111815   7.403   0.691   5.867 -0.1755 -0.0591 -0.0904
  783POPS   GL211816   7.165   0.787   5.950  0.0557  0.0528 -0.2697
  783POPS   C1A11817   7.172   0.311   6.104 -0.2186 -0.2372  0.1162
  783POPS   D2A11818   6.920  -0.062   6.284 -0.0250  0.0397  0.0908
  783POPS   C3A11819   6.818  -0.158   6.637 -0.0674 -0.2051  0.4171
  783POPS   C4A11820   6.285  -0.206   6.786  0.2322 -0.1833 -0.1144
  783POPS   C1B11821   7.307   1.085   6.245 -0.1886  0.0782 -0.0542
  783POPS   C2B11822   7.578   1.172   6.452  0.1471 -0.1310  0.2501
  783POPS   C3B11823   7.819   0.912   6.769 -0.2537  0.0008 -0.0945
  783POPS   C4B11824   7.678   0.438   6.909 -0.0821  0.2246 -0.0653
  784POPS   CNO11825  16.440   9.396   5.425  0.0999 -0.1950 -0.0456
  784POPS   PO411826  16.122   9.676   5.405 -0.0162 -0.1882  0.1188
  784POPS   GL111827  16.252   9.543   5.872 -0.0395 -0.0253 -0.2051
  784POPS   GL211828  16.125   9.819   6.136 -0.0109  0.2639  0.4968
  784POPS   C1A11829  16.272   9.213   6.170  0.1346  0.0445 -0.3221
  784POPS   D2A11830  15.952   8.916   6.456  0.2147 -0.0043  0.3113
  784POPS   C3A11831  15.974   8.532   6.722  0.1010 -0.2724  0.4173
  784POPS   C4A11832  16.040   8.304   7.087  0.0531  0.1588  0.0378
  784POPS   C1B11833  15.898  10.209   6.080 -0.1933  0.0767 -0.1529
  784POPS   C2B11834  15.600  10.496   6.138  0.0494  0.1972  0.0020
  784POPS   C3B11835  15.334  10.448   6.453 -0.1422  0.0151  0.1746
  784POPS   C4B11836  15.263  10.230   6.855  0.2129  0.0513  0.2308
  785POPS   CNO11837  12.902  19.059   4.637 -0.1053 -0.3150  0.0495
  785POPS   PO411838  12.922  18.622   4.903  0.5397 -0.2342  0.0138
  785POPS   GL111839  12.936  18.814   5.399  0.0346 -0.0744  0.1996
  785POPS   GL211840  12.539  18.940   5.413 -0.2068 -0.0865  0.0692
  785POPS   C1A11841  13.209  19.008   5.698  0.1922 -0.3105 -0.1434
  785POPS   D2A11842  13.099  19.279   6.065  0.0663 -0.0434  0.2915
  785POPS   C3A11843  13.410  19.451   6.367 -0.0476  0.4691 -0.0714
  785POPS   C4A11844  13.453  19.503   6.707 -0.1699  0.0884  0.0771
  785POPS   C1B11845  12.592  18.444   5.543 -0.2089  0.1666  0.0025
  785POPS   C2B11846  12.482  18.047   5.812 -0.3768 -0.0923 -0.4733
  785POPS   C3B11847  12.145  17.890   5.953 -0.0703  0.0410 -0.1682
  785POPS   C4B11848  12.085  17.539   6.194  0.0206 -0.0369  0.2080
  786POPS   CNO11849   8.398  14.344   5.178  0.0403 -0.1509 -0.1228
  786POPS   PO411850   8.805  14.200   5.355 -0.0130  0.2866 -0.1195
  786POPS   GL111851   8.686  14.427   5.756  0.0920  0.3863  0.1442
  786POPS   GL211852   8.400  14.501   5.884 -0.0559 -0.0123 -0.0664
  786POPS   C1A11853   8.808  14.874   5.961  0.3865  0.6642  0.1525
  786POPS   D2A11854   9.249  15.004   6.186 -0.1395 -0.1750  0.2626
  786POPS   C3A11855   9.127  15.381   6.423 -0.0975 -0.1198 -0.3483
  786POPS   C4A11856   8.917  15.235   6.830 -0.2252  0.0945  0.1101
  786POPS   C1B11857   8.649  14.378   6.324 -0.0757 -0.0186  0.2578
  786POPS   C2B11858   8.817  14.299   6.723 -0.2929  0.0643  0.4089
  786POPS   C3B11859   9.090  14.488   7.042  0.2298 -0.0209 -0.2179
  786POPS   C4B11860   9.175  14.668   7.391  0.5200 -0.2119 -0.0822
  787POPS   CNO11861  10.425  11.279   5.116 -0.2640  0.0694  0.0231
  787POPS   PO411862  10.385  11.701   5.237  0.0092  0.0160 -0.1514
  787POPS   GL111863  10.194  11.661   5.622  0.1234  0.2476  0.0466
  787POPS   GL211864  10.463  11.449   5.636 -0.0661  0.0118 -0.0286
  787POPS   C1A11865  10.096  11.928   5.924 -0.1499 -0.1218  0.1399
  787POPS   D2A11866  10.045  12.007   6.484 -0.1252  0.0461 -0.0497
  787POPS   C3A11867  10.353  11.951   6.925 -0.0764 -0.1323  0.3783
  787POPS   C4A11868  10.767  11.905   7.075  0.1231 -0.2210 -0.1503
  787POPS   C1B11869  10.785  11.267   5.798 -0.0334  0.2221 -0.3061
  787POPS   C2B11870  10.878  11.343   6.280  0.2354 -0.2446  0.2874
  787POPS   C3B11871  10.935  11.224   6.740  0.0377 -0.2991 -0.0430
  787POPS   C4B11872  10.931  11.375   7.069  0.3047 -0.1968 -0.0221
  788POPS   CNO11873  18.946   9.010   5.442 -0.2098 -0.0101  0.2016
  788POPS   PO411874  18.813   8.638   5.629  0.0800  0.2883  0.4461
  788POPS   GL111875  18.768   8.929   5.987 -0.1344  0.0822  0.0198
  788POPS   GL211876  19.006   9.193   5.952 -0.1989  0.0661  0.1134
  788POPS   C1A11877  18.595   9.295   6.219  0.1177 -0.1163  0.1594
  788POPS   D2A11878  18.385   9.753   6.359 -0.4323 -0.1891 -0.0161
  788POPS   C3A11879  18.101   9.880   6.619 -0.1017  0.2595 -0.1676
  788POPS   C4A11880  18.002   9.668   6.911 -0.0434 -0.1341 -0.1267
  788POPS   C1B11881  19.095   9.013   6.298  0.1152  0.1656 -0.0660
  788POPS   C2B11882  19.363   9.091   6.703 -0.0970 -0.0675  0.0307
  788POPS   C3B11883  19.547   9.192   7.093  0.0260 -0.1115  0.2317
  788POPS   C4B11884  19.530   9.315   7.496 -0.0270  0.1241  0.4080
  789POPS   CNO11885   6.065  10.105   5.072  0.1237  0.5191  0.0660
  789POPS   PO411886   5.781   9.924   5.344 -0.4935 -0.0799 -0.2909
  789POPS   GL111887   5.651   9.817   5.773  0.0073  0.3141 -0.0767
  789POPS   GL211888   5.632   9.560   6.106 -0.3856  0.2973  0.0389
  789POPS   C1A11889   5.707  10.024   6.187  0.1154 -0.0942  0.0766
  789POPS   D2A11890   5.441   9.856   6.534  0.0258 -0.2279 -0.0229
  789POPS   C3A11891   5.036   9.873   6.491  0.1112  0.0171  0.0422
  789POPS   C4A11892   4.791  10.048   6.250  0.2223  0.0458  0.0275
  789POPS   C1B11893   5.808   9.361   6.448 -0.4165  0.2273 -0.2286
  789POPS   C2B11894   5.911   9.157   6.913 -0.3224 -0.2781  0.1902
  789POPS   C3B11895   6.099   9.147   7.290 -0.0905 -0.1284 -0.0716
  789POPS   C4B11896   5.748   9.169   7.536 -0.1242  0.1239  0.1425
  790POPS   CNO11897  15.168   4.617   5.186  0.1034 -0.3684 -0.0091
  790POPS   PO411898  14.908   4.932   5.187 -0.2176 -0.0373 -0.2917
  790POPS   GL111899  15.061   5.210   5.407 -0.3728 -0.1253 -0.1967
  790POPS   GL211900  15.333   5.037   5.459  0.0055  0.2007 -0.2878
  790POPS   C1A11901  15.071   5.299   5.864 -0.0779 -0.0655 -0.1801
  790POPS   D2A11902  15.024   5.373   6.293 -0.2961  0.0975  0.0450
  790POPS   C3A11903  15.217   5.309   6.725 -0.0353 -0.4291 -0.1945
  790POPS   C4A11904  15.480   5.504   7.031  0.0441 -0.1542 -0.1379
  790POPS   C1B11905  15.477   5.393   5.601 -0.1335  0.3008 -0.0601
  790POPS   C2B11906  15.581   5.789   5.692 -0.2680  0.1410 -0.1380
  790POPS   C3B11907  15.826   5.876   5.984  0.2733  0.0229 -0.1238
  790POPS   C4B11908  15.951   5.780   6.350  0.1525 -0.0256  0.1919
  791YOPS   CNO11909  14.711   7.870   5.246  0.1547  0.0723 -0.0178
  791YOPS   PO411910  14.879   8.233   5.306 -0.1704 -0.3331  0.2974
  791YOPS   GL111911  14.768   8.191   5.713 -0.2720  0.2571  0.3250
  791YOPS   GL211912  14.404   8.334   5.755  0.0640 -0.0341 -0.1302
  791YOPS   C1A11913  14.831   8.493   6.093  0.1260  0.1431  0.0610
  791YOPS   D2A11914  14.983   8.460   6.486  0.0447  0.1348  0.2581
  791YOPS   C3A11915  15.113   8.575   6.862  0.0324 -0.1412  0.2895
  791YOPS   C4A11916  14.809   8.462   7.062 -0.0764 -0.0374  0.2650
  791YOPS   C1B11917  13.881   8.308   5.980  0.2396  0.1239 -0.1131
  791YOPS   C2B11918  13.675   8.394   6.399  0.2389 -0.1213 -0.2216
  791YOPS   D3B11919  13.672   8.381   6.831  0.0892 -0.1141  0.2736
  791YOPS   C4B11920  13.739   8.153   7.237 -0.3162  0.2264  0.1809
  792YOPS   CNO11921   8.811   4.233   5.389  0.1545  0.1144 -0.0694
  792YOPS   PO411922   8.694   3.908   5.359 -0.0939 -0.1454 -0.0534
  792YOPS   GL111923   8.886   3.879   5.729 -0.2833  0.2064 -0.1120
  792YOPS   GL211924   9.082   3.686   5.853  0.3222 -0.0875  0.4410
  792YOPS   C1A11925   8.952   4.133   6.188 -0.1385  0.2442 -0.3385
  792YOPS   D2A11926   8.787   3.982   6.494 -0.1539  0.1424  0.1608
  792YOPS   C3A11927   8.612   4.145   6.756 -0.1517  0.1512 -0.3068
  792YOPS   C4A11928   8.899   4.295   7.103  0.3932 -0.1158  0.1367
  792YOPS   C1B11929   9.314   3.478   6.057  0.1342  0.1010  0.5084
  792YOPS   C2B11930   9.322   3.132   6.445 -0.3023 -0.0117  0.0985
  792YOPS   D3B11931   9.457   3.043   6.731  0.0330  0.0573  0.0204
  792YOPS   C4B11932   9.686   3.142   7.021 -0.0432  0.0102  0.1915
  793YOPS   CNO11933  17.323  14.915   5.209  0.0895  0.0400  0.0016
  793YOPS   PO411934  17.704  15.054   5.324  0.1139 -0.1475 -0.4090
  793YOPS   GL111935  17.503  15.128   5.641 -0.0947 -0.0274  0.2407
  793YOPS   GL211936  17.574  15.424   5.793 -0.1091 -0.4485 -0.0662
  793YOPS   C1A11937  17.213  15.034   5.962 -0.1519 -0.0054  0.0682
  793YOPS   D2A11938  17.131  15.148   6.306 -0.2850 -0.1105  0.1357
  793YOPS   C3A11939  16.808  15.117   6.672 -0.0168 -0.0641  0.0263
  793YOPS   C4A11940  16.666  15.352   7.047 -0.0233 -0.1567  0.0656
  793YOPS   C1B11941  17.589  15.604   6.217  0.1922  0.2267  0.1308
  793YOPS   C2B11942  17.791  15.819   6.541 -0.0900 -0.1102  0.1942
  793YOPS   D3B11943  17.698  16.138   6.897 -0.0740 -0.0198 -0.1482
  793YOPS   C4B11944  17.404  15.941   7.316 -0.2460  0.0542  0.0584
  794YOPS   CNO11945   3.527   5.601   5.602  0.0264  0.0133  0.2209
  794YOPS   PO411946   3.432   5.426   6.016 -0.0801 -0.1462 -0.0867
  794YOPS   GL111947   3.462   5.504   6.363 -0.0557 -0.0828 -0.1077
  794YOPS   GL211948   3.260   5.744   6.520  0.0726 -0.1226 -0.0743
  794YOPS   C1A11949   3.525   5.222   6.742 -0.3631 -0.1445 -0.1295
  794YOPS   D2A11950   3.352   5.061   7.143 -0.0254  0.2302  0.1968
  794YOPS   C3A11951   3.537   5.113   7.451 -0.1066 -0.1122 -0.1867
  794YOPS   C4A11952   3.374   5.467   7.739 -0.0194 -0.0430 -0.0565
  794YOPS   C1B11953   3.271   5.938   6.908 -0.1281  0.0676  0.1326
  794YOPS   C2B11954   3.170   6.075   7.295 -0.2036 -0.2190 -0.0132
  794YOPS   D3B11955   3.232   6.211   7.656 -0.1099  0.1040 -0.0483
  794YOPS   C4B11956   2.984   6.295   8.040  0.1024  0.0671 -0.0552
  795YOPS   CNO11957  10.236   8.433   5.442  0.0183 -0.0517  0.1974
  795YOPS   PO411958  10.647   8.484   5.525  0.0149  0.1918  0.1171
  795YOPS   GL111959  10.531   8.085   5.691  0.0371  0.2227 -0.1724
  795YOPS   GL211960  10.291   8.255   5.968 -0.0715 -0.1120 -0.2377
  795YOPS   C1A11961  10.768   7.786   5.807 -0.3942 -0.2488  0.0428
  795YOPS   D2A11962  11.160   7.914   6.056  0.0249 -0.3855 -0.0946
  795YOPS   C3A11963  11.472   7.929   6.391 -0.3525 -0.1311 -0.0320
  795YOPS   C4A11964  11.768   7.633   6.590  0.2476 -0.0518  0.0844
  795YOPS   C1B11965  10.651   8.056   6.211  0.0820  0.0720  0.2271
  795YOPS   C2B11966  11.053   8.221   6.552 -0.3284  0.0166  0.2501
  795YOPS   D3B11967  11.428   8.454   6.726  0.2132  0.0921 -0.1016
  795YOPS   C4B11968  11.398   8.832   6.603  0.0983 -0.1613  0.1409
  796YOPS   CNO11969   3.705  18.555   5.104  0.2467  0.1522 -0.2749
  796YOPS   PO411970   3.774  18.987   5.172  0.3128 -0.2388 -0.1914
  796YOPS   GL111971   3.814  18.695   5.542  0.0787  0.0542 -0.0721
  796YOPS   GL211972   3.823  18.865   5.800 -0.2540 -0.1750 -0.1126
  796YOPS   C1A11973   3.611  18.464   5.848  0.3552 -0.1721 -0.0487
  796YOPS   D2A11974   3.661  18.344   6.244 -0.0630  0.0093  0.1863
  796YOPS   C3A11975   3.711  18.401   6.703  0.1299  0.0816  0.0489
  796YOPS   C4A11976   3.484  17.979   6.886 -0.2138  0.0674 -0.2043
  796YOPS   C1B11977   3.819  18.808   6.176 -0.0415 -0.0639 -0.0341
  796YOPS   C2B11978   3.994  18.787   6.557 -0.1136  0.1534  0.1799
  796YOPS   D3B11979   3.993  18.690   6.964 -0.1017 -0.1315  0.0613
  796YOPS   C4B11980   3.677  18.985   7.098 -0.0044  0.1314  0.5240
  797YOPS   CNO11981  10.894  19.094   5.168 -0.0433  0.1069  0.0696
  797YOPS   PO411982  10.637  18.744   5.180  0.1281  0.1426 -0.1506
  797YOPS   GL111983  10.890  18.753   5.510  0.3431  0.2651 -0.1891
  797YOPS   GL211984  10.838  18.503   5.700 -0.1372 -0.1613  0.2991
  797YOPS   C1A11985  11.220  18.726   5.868  0.0207  0.0695  0.1618
  797YOPS   D2A11986  11.373  18.364   5.972 -0.0806 -0.2419  0.3238
  797YOPS   C3A11987  11.635  18.216   6.274 -0.1674  0.2746  0.1147
  797YOPS   C4A11988  11.659  17.795   6.234  0.0564  0.0153  0.1429
  797YOPS   C1B11989  10.864  18.559   6.150 -0.2921  0.0892  0.1001
  797YOPS   C2B11990  11.084  18.310   6.324 -0.2396 -0.0608  0.0675
  797YOPS   D3B11991  11.202  18.084   6.647  0.0323  0.0579 -0.3784
  797YOPS   C4B11992  11.059  17.951   7.138 -0.1994 -0.1379  0.0520
  798YOPS   CNO11993  16.757   9.526   5.892  0.3229 -0.0954 -0.0922
  798YOPS   PO411994  17.095   9.393   5.676  0.3690 -0.0892  0.2360
  798YOPS   GL111995  17.253   9.247   6.007  0.0314 -0.0661  0.0943
  798YOPS   GL211996  17.204   8.856   6.040  0.0231 -0.1619 -0.1232
  798YOPS   C1A11997  17.569   9.419   6.265  0.0415  0.3052 -0.0186
  798YOPS   D2A11998  17.553   9.462   6.789  0.3644  0.0119  0.1519
  798YOPS   C3A11999  17.430   9.915   6.940  0.0216  0.1516 -0.2038
  798YOPS   C4A12000  17.591  10.082   7.307 -0.0539 -0.4849 -0.4035
  798YOPS   C1B12001  17.273   8.993   6.414  0.2511 -0.0995 -0.1189
  798YOPS   C2B12002  17.296   8.905   6.849 -0.3344  0.0083  0.0153
  798YOPS   D3B12003  17.295   9.104   7.160 -0.0152 -0.0424 -0.1614
  798YOPS   C4B12004  17.247   8.813   7.616 -0.1735  0.0392 -0.1389
  799YOPS   CNO12005  12.702  10.384   4.720 -0.2682 -0.1151  0.0093
  799YOPS   PO412006  12.696  10.056   5.095  0.0145  0.0413  0.0615
  799YOPS   GL112007  12.814  10.408   5.336 -0.1027  0.1951 -0.1887
  799YOPS   GL212008  12.547  10.570   5.226  0.1391  0.1280  0.1573
  799YOPS   C1A12009  12.970  10.249   5.794 -0.0185 -0.0592  0.2653
  799YOPS   D2A12010  13.019  10.371   6.152 -0.0711 -0.4632 -0.0104
  799YOPS   C3A12011  12.970  10.781   6.420 -0.2289  0.2003  0.0653
  799YOPS   C4A12012  12.939  10.521   6.830 -0.0028  0.0441  0.1594
  799YOPS   C1B12013  12.302  10.704   5.559  0.2670 -0.2324 -0.1606
  799YOPS   C2B12014  12.155  10.603   6.018 -0.5345 -0.2676  0.1386
  799YOPS   D3B12015  12.345  10.870   6.490 -0.2626  0.0121 -0.0344
  799YOPS   C4B12016  12.486  10.695   6.913 -0.4196 -0.0885 -0.0545
  800YOPS   CNO12017   3.338   1.859   5.045  0.3654 -0.0559 -0.0667
  800YOPS   PO412018   3.265   2.087   5.327  0.0648  0.3041 -0.0906
  800YOPS   GL112019   3.433   1.838   5.601  0.0338 -0.0077 -0.0593
  800YOPS   GL212020   3.384   1.969   5.915  0.4059  0.1866 -0.0286
  800YOPS   C1A12021   3.607   1.547   5.822 -0.0590 -0.1860 -0.1992
  800YOPS   D2A12022   3.918   1.353   5.983 -0.0781  0.1921  0.0085
  800YOPS   C3A12023   4.219   0.974   5.950  0.0129 -0.0260  0.1709
  800YOPS   C4A12024   4.681   1.178   5.810  0.3184  0.0360  0.2529
  800YOPS   C1B12025   3.480   1.857   6.211 -0.2563 -0.0134  0.1426
  800YOPS   C2B12026   3.736   1.641   6.471 -0.0272  0.2307 -0.0903
  800YOPS   D3B12027   4.083   1.509   6.546  0.1619  0.0742 -0.0153
  800YOPS   C4B12028   4.280   1.473   6.998 -0.0253 -0.1054  0.1170
  801YOPS   CNO12029   8.968  17.791   5.053 -0.2741  0.0881  0.0297
  801YOPS   PO412030   8.690  17.434   4.957 -0.1191  0.2505  0.0737
  801YOPS   GL112031   8.836  17.083   5.138 -0.0745  0.1534  0.2158
  801YOPS   GL212032   9.115  17.165   5.189 -0.1849 -0.1522 -0.0143
  801YOPS   C1A12033   8.815  16.780   5.508 -0.1957 -0.1192 -0.3580
  801YOPS   D2A12034   8.632  16.688   5.906 -0.1229 -0.3013  0.0266
  801YOPS   C3A12035   8.452  16.737   6.318 -0.0830 -0.3016  0.0313
  801YOPS   C4A12036   8.725  16.731   6.548 -0.0714  0.4419 -0.1041
  801YOPS   C1B12037   9.155  17.147   5.634 -0.2822 -0.0251  0.1297
  801YOPS   C2B12038   8.991  16.991   6.092 -0.0346 -0.0072 -0.0126
  801YOPS   D3B12039   8.937  17.183   6.559  0.1287 -0.1681  0.0083
  801YOPS   C4B12040   8.653  17.254   6.850 -0.1582  0.1146  0.1179
  802YOPS   CNO12041  18.375  13.938   4.930 -0.0039  0.1618 -0.3168
  802YOPS   PO412042  18.290  13.642   5.244  0.1326  0.0291  0.2713
  802YOPS   GL112043  18.045  13.424   5.630 -0.2051  0.1296  0.2313
  802YOPS   GL212044  18.165  13.176   5.827  0.0436 -0.1704  0.0266
  802YOPS   C1A12045  17.713  13.374   5.943  0.0985  0.1925  0.0311
  802YOPS   D2A12046  17.372  13.569   6.234  0.0002 -0.1714  0.3058
  802YOPS   C3A12047  17.228  14.003   6.305 -0.0181 -0.0432  0.2377
  802YOPS   C4A12048  17.182  14.116   6.659  0.1361 -0.0789  0.1302
  802YOPS   C1B12049  17.976  13.121   6.244 -0.0491  0.0538  0.1643
  802YOPS   C2B12050  17.685  13.179   6.512  0.1081  0.0218  0.1469
  802YOPS   D3B12051  17.469  12.916   6.707 -0.1024  0.3666 -0.1253
  802YOPS   C4B12052  17.626  12.759   7.112 -0.0930  0.1836 -0.0165
  803YOPS   CNO12053   9.028   0.725   5.013 -0.3883  0.1591  0.0124
  803YOPS   PO412054   8.763   1.079   5.215  0.0294 -0.3433  0.0407
  803YOPS   GL112055   9.183   1.100   5.323 -0.0072 -0.3692  0.0965
  803YOPS   GL212056   9.321   1.456   5.436  0.3211 -0.4239 -0.0147
  803YOPS   C1A12057   9.513   0.969   5.549  0.0961 -0.1097  0.0645
  803YOPS   D2A12058   9.813   0.847   5.852 -0.5599 -0.1216  0.3283
  803YOPS   C3A12059   9.995   0.393   5.975  0.1097  0.0306 -0.1251
  803YOPS   C4A12060  10.445   0.255   5.948  0.0510 -0.1620 -0.1424
  803YOPS   C1B12061   9.829   1.352   5.627  0.3421 -0.2858  0.0601
  803YOPS   C2B12062  10.187   1.290   5.878 -0.2250  0.5175 -0.4040
  803YOPS   D3B12063  10.327   0.894   5.956  0.1583  0.0186  0.2934
  803YOPS   C4B12064  10.289   0.534   6.366  0.2668  0.1128 -0.0101
  804YOPS   CNO12065   8.953  12.832   5.037 -0.0233  0.4310  0.1880
  804YOPS   PO412066   8.927  12.459   5.360 -0.1099  0.1083  0.1633
  804YOPS   GL112067   9.171  12.415   5.704  0.1343  0.3230  0.1098
  804YOPS   GL212068   9.324  12.633   5.908 -0.0905  0.4288  0.2056
  804YOPS   C1A12069   9.453  12.210   6.197 -0.1631  0.2407  0.0789
  804YOPS   D2A12070   9.685  12.332   6.552  0.2034  0.0269  0.2851
  804YOPS   C3A12071  10.089  12.342   6.851 -0.0423 -0.3545 -0.0012
  804YOPS   C4A12072  10.139  12.389   7.264  0.0621  0.0281 -0.1509
  804YOPS   C1B12073   9.401  12.691   6.385 -0.1436 -0.2281  0.1688
  804YOPS   C2B12074   9.524  12.664   6.920 -0.0360  0.0430 -0.0750
  804YOPS   D3B12075   9.654  12.307   7.174 -0.0796  0.3543 -0.3101
  804YOPS   C4B12076   9.851  11.902   6.954  0.0111 -0.2492  0.0560
  805YOPS   CNO12077   0.042   7.901   5.516 -0.3111  0.2534 -0.1877
  805YOPS   PO412078   0.167   8.353   5.687 -0.1345  0.0785 -0.0194
  805YOPS   GL112079  -0.045   8.177   5.950 -0.0740  0.1761 -0.2183
  805YOPS   GL212080   0.113   8.073   6.216 -0.0425 -0.3115 -0.2759
  805YOPS   C1A12081  -0.366   8.465   6.164  0.2277  0.1476  0.1651
  805YOPS   D2A12082  -0.707   8.654   6.382 -0.0355 -0.2789 -0.0299
  805YOPS   C3A12083  -0.896   8.883   6.562 -0.2418  0.1269  0.3596
  805YOPS   C4A12084  -0.915   8.905   7.067  0.0482 -0.2008  0.1487
  805YOPS   C1B12085   0.065   7.714   6.541  0.0849 -0.2756  0.1069
  805YOPS   C2B12086  -0.077   7.786   6.943  0.1399 -0.1983  0.3363
  805YOPS   D3B12087  -0.309   7.580   7.245  0.3305  0.0244  0.1709
  805YOPS   C4B12088  -0.607   7.272   7.174 -0.1012  0.2076 -0.1597
  806YOPS   CNO12089  17.097  14.386   5.157 -0.3915  0.0539  0.2370
  806YOPS   PO412090  16.728  14.281   5.098 -0.4015  0.2254  0.2373
  806YOPS   GL112091  16.852  14.101   5.507  0.0307 -0.1573 -0.1405
  806YOPS   GL212092  16.887  13.757   5.561 -0.0766 -0.1141  0.2620
  806YOPS   C1A12093  17.161  14.242   5.878  0.0037 -0.0833  0.1009
  806YOPS   D2A12094  17.058  14.643   6.228 -0.2382  0.0203  0.2434
  806YOPS   C3A12095  16.746  14.901   6.267 -0.0789  0.1364 -0.0679
  806YOPS   C4A12096  16.370  14.711   6.317  0.0196 -0.0820 -0.2111
  806YOPS   C1B12097  16.986  13.756   5.981 -0.1849 -0.0980 -0.0551
  806YOPS   C2B12098  16.754  13.667   6.452 -0.2540 -0.5021 -0.2069
  806YOPS   D3B12099  16.733  13.849   6.830  0.1649  0.0507  0.0807
  806YOPS   C4B12100  16.333  14.023   6.972 -0.0459  0.1527  0.4808
  807YOPS   CNO12101  19.330   2.971   5.446  0.0423 -0.0782  0.1247
  807YOPS   PO412102  19.698   2.761   5.444  0.1451  0.0961  0.0427
  807YOPS   GL112103  19.618   2.897   5.869  0.0736  0.1872 -0.0207
  807YOPS   GL212104  19.423   3.035   5.896  0.1015  0.2923  0.0354
  807YOPS   C1A12105  19.899   2.766   6.259  0.2476 -0.1550  0.0152
  807YOPS   D2A12106  19.757   2.673   6.595 -0.1085 -0.1390 -0.3826
  807YOPS   C3A12107  19.995   2.681   6.884  0.0883  0.1881  0.3548
  807YOPS   C4A12108  20.322   2.321   6.969  0.0939  0.0797  0.1426
  807YOPS   C1B12109  19.434   2.844   6.297  0.4283 -0.0240 -0.1507
  807YOPS   C2B12110  19.309   2.855   6.755 -0.0893  0.1824 -0.1155
  807YOPS   D3B12111  19.569   2.782   7.224  0.1803 -0.2573  0.1815
  807YOPS   C4B12112  19.521   2.545   7.621 -0.1306  0.0883  0.4108
  808YOPS   CNO12113  14.118   2.933   4.523  0.1966  0.0460  0.0210
  808YOPS   PO412114  13.967   2.830   4.945 -0.1020  0.0975  0.1295
  808YOPS   GL112115  14.255   2.692   5.300 -0.2000  0.1796 -0.1046
  808YOPS   GL212116  14.471   2.864   5.356  0.0849 -0.0166  0.2799
  808YOPS   C1A12117  14.158   2.608   5.779 -0.0485  0.2744  0.0522
  808YOPS   D2A12118  14.235   2.444   6.091  0.1856  0.2535 -0.1413
  808YOPS   C3A12119  14.064   2.464   6.576 -0.1397  0.1144  0.1415
  808YOPS   C4A12120  14.188   2.149   6.840  0.2454  0.1089 -0.0639
  808YOPS   C1B12121  14.630   2.740   5.630 -0.1567  0.0891  0.2634
  808YOPS   C2B12122  14.694   2.420   5.888  0.0687  0.3134  0.0463
  808YOPS   D3B12123  14.783   2.384   6.221 -0.1063  0.0344  0.1912
  808YOPS   C4B12124  14.522   2.169   6.391  0.1084 -0.0937 -0.2120
  809YOPS   CNO12125  12.793  15.061   4.806  0.1149  0.0878  0.2365
  809YOPS   PO412126  12.995  15.359   5.001 -0.2488  0.0883 -0.0983
  809YOPS   GL112127  12.837  15.627   5.418  0.3278  0.1309  0.2455
  809YOPS   GL212128  12.880  15.610   5.741 -0.0800  0.0164  0.0751
  809YOPS   C1A12129  12.551  16.005   5.773 -0.2618 -0.0477  0.2436
  809YOPS   D2A12130  12.361  16.046   6.161 -0.1675  0.0418 -0.1142
  809YOPS   C3A12131  12.351  16.286   6.488  0.0009 -0.1470 -0.1194
  809YOPS   C4A12132  12.006  16.280   6.893 -0.0272 -0.2509 -0.3395
  809YOPS   C1B12133  12.829  15.794   6.128  0.2133 -0.1730  0.1552
  809YOPS   C2B12134  12.862  16.174   6.298  0.3750  0.1702 -0.1692
  809YOPS   D3B12135  13.170  16.537   6.543 -0.2832  0.0322  0.1337
  809YOPS   C4B12136  13.482  16.526   6.819  0.3709 -0.1580  0.0296
  810YOPS   CNO12137   4.968  13.300   6.030  0.0018 -0.0465 -0.0528
  810YOPS   PO412138   4.583  13.378   6.054 -0.2450 -0.0342 -0.0735
  810YOPS   GL112139   4.482  13.250   6.415  0.5872 -0.0974  0.1856
  810YOPS   GL212140   4.599  12.996   6.383 -0.2499 -0.0467 -0.0678
  810YOPS   C1A12141   4.309  13.240   6.857 -0.0570  0.2739 -0.2064
  810YOPS   D2A12142   4.187  13.334   7.156 -0.0060 -0.0041  0.0118
  810YOPS   C3A12143   3.856  13.591   7.315 -0.1313  0.1682 -0.0244
  810YOPS   C4A12144   3.988  13.936   7.621 -0.2412 -0.2539 -0.1659
  810YOPS   C1B12145   4.587  12.751   6.782 -0.0771  0.2518  0.1050
  810YOPS   C2B12146   4.647  12.676   7.220  0.3312  0.1518 -0.1219
  810YOPS   D3B12147   4.763  12.509   7.600  0.2245 -0.0754  0.3674
  810YOPS   C4B12148   4.499  12.584   7.994  0.0241 -0.0361 -0.1970
  811YOPS   CNO12149   2.747   6.145   5.847  0.3988  0.1773  0.3861
  811YOPS   PO412150   2.735   6.139   6.298 -0.1327 -0.1369 -0.0988
  811YOPS   GL112151   2.843   6.106   6.624 -0.0808  0.1250 -0.0520
  811YOPS   GL212152   2.797   5.822   6.732  0.1972 -0.2031 -0.0492
  811YOPS   C1A12153   2.997   6.395   6.905  0.1764  0.0161  0.1691
  811YOPS   D2A12154   3.073   6.573   7.258  0.1099  0.0078 -0.0481
  811YOPS   C3A12155   3.009   6.655   7.666 -0.0779 -0.3997 -0.3665
  811YOPS   C4A12156   3.016   7.041   7.887 -0.4055  0.2301 -0.0525
  811YOPS   C1B12157   2.738   5.841   7.117 -0.1109  0.1250 -0.2396
  811YOPS   C2B12158   2.631   5.849   7.430 -0.2112 -0.1229 -0.3807
  811YOPS   D3B12159   2.208   5.818   7.646  0.2740  0.4141 -0.1393
  811YOPS   C4B12160   1.720   5.788   7.586  0.0578  0.1070  0.1257
  812YOPS   CNO12161   4.353  17.717   4.815  0.3289 -0.0540  0.0097
  812YOPS   PO412162   4.640  17.870   5.008 -0.0273 -0.2371  0.1013
  812YOPS   GL112163   4.793  17.816   5.452  0.0977 -0.1456  0.1663
  812YOPS   GL212164   5.031  18.084   5.317 -0.0152  0.2679  0.2134
  812YOPS   C1A12165   4.800  17.869   5.927 -0.1877 -0.1451 -0.0225
  812YOPS   D2A12166   4.610  17.931   6.375  0.1996  0.3177  0.0577
  812YOPS   C3A12167   4.650  18.041   6.811  0.0905  0.1622 -0.2202
  812YOPS   C4A12168   4.975  18.164   6.931 -0.0086 -0.0606  0.1289
  812YOPS   C1B12169   4.816  18.335   5.678 -0.0210 -0.0335  0.2213
  812YOPS   C2B12170   4.745  18.522   6.025  0.2706  0.1614  0.2183
  812YOPS   D3B12171   4.535  18.751   6.308 -0.0717  0.5085 -0.1310
  812YOPS   C4B12172   4.293  18.422   6.562  0.2520 -0.3061 -0.2066
  813YOPS   CNO12173  17.937  10.599   5.433 -0.1481  0.1303 -0.3299
  813YOPS   PO412174  18.224  10.742   5.640  0.1097 -0.1625 -0.2511
  813YOPS   GL112175  18.053  10.605   5.990 -0.1095  0.0528 -0.1914
  813YOPS   GL212176  17.759  10.449   6.034  0.0024  0.0619 -0.1317
  813YOPS   C1A12177  18.021  10.445   6.431  0.1933  0.0422  0.2933
  813YOPS   D2A12178  18.126  10.625   6.767 -0.2710 -0.2977  0.0609
  813YOPS   C3A12179  18.220  10.682   7.253 -0.0401  0.4009  0.0315
  813YOPS   C4A12180  18.209  10.399   7.697  0.1763 -0.1526 -0.2581
  813YOPS   C1B12181  17.541  10.727   6.328  0.0236  0.0451  0.1719
  813YOPS   C2B12182  17.284  10.938   6.660 -0.0046 -0.0785  0.1508
  813YOPS   D3B12183  17.288  10.939   7.118 -0.2157  0.2033  0.0062
  813YOPS   C4B12184  17.213  10.485   7.357 -0.1080 -0.0379  0.1877
  814YOPS   CNO12185   2.793   0.710   4.589 -0.0181 -0.0841 -0.0556
  814YOPS   PO412186   2.902   0.762   5.026  0.0441 -0.4077  0.1290
  814YOPS   GL112187   2.828   0.516   5.390 -0.0016  0.1874  0.3021
  814YOPS   GL212188   2.909   0.269   5.368  0.1491  0.0821 -0.0347
  814YOPS   C1A12189   2.907   0.389   5.831  0.0930 -0.1550  0.1906
  814YOPS   D2A12190   3.404   0.330   6.009 -0.0184  0.0459 -0.1886
  814YOPS   C3A12191   3.653   0.361   6.390 -0.2553 -0.2019  0.0188
  814YOPS   C4A12192   3.480   0.106   6.867  0.1172 -0.0030 -0.0088
  814YOPS   C1B12193   3.294   0.047   5.552 -0.0379 -0.1348 -0.2451
  814YOPS   C2B12194   3.532  -0.103   5.839 -0.1119  0.4682 -0.2082
  814YOPS   D3B12195   3.994  -0.079   5.969  0.3413  0.2217 -0.4206
  814YOPS   C4B12196   4.021   0.060   6.323 -0.2857  0.2757 -0.2372
  815YOPS   CNO12197   2.178   7.208   5.913 -0.0614 -0.1473 -0.2690
  815YOPS   PO412198   2.593   7.201   5.845 -0.2002 -0.3167  0.2564
  815YOPS   GL112199   2.678   7.239   6.256  0.0369  0.1258 -0.5890
  815YOPS   GL212200   2.343   7.223   6.432  0.0076  0.1879  0.0629
  815YOPS   C1A12201   2.738   6.959   6.688  0.3405 -0.0513 -0.4234
  815YOPS   D2A12202   2.747   6.920   7.100 -0.1298 -0.1450 -0.2598
  815YOPS   C3A12203   2.624   6.963   7.526 -0.4011 -0.2588 -0.2450
  815YOPS   C4A12204   2.278   6.706   7.750  0.0961 -0.0299 -0.2483
  815YOPS   C1B12205   2.555   7.454   6.793 -0.0264  0.0369 -0.0112
  815YOPS   C2B12206   2.686   7.605   7.230 -0.0534 -0.4397 -0.1476
  815YOPS   D3B12207   2.537   7.952   7.449  0.1680  0.0783  0.1825
  815YOPS   C4B12208   2.214   8.072   7.828  0.0563  0.0305 -0.0501
  816YOPS   CNO12209  18.290   0.026   5.272 -0.1436 -0.2738 -0.2439
  816YOPS   PO412210  18.430  -0.038   5.659  0.4011  0.1302  0.0235
  816YOPS   GL112211  18.402   0.270   5.919 -0.0448  0.0879 -0.4536
  816YOPS   GL212212  18.105   0.310   5.975  0.0186 -0.2048  0.0126
  816YOPS   C1A12213  18.437   0.504   6.340 -0.0774  0.2020  0.2516
  816YOPS   D2A12214  18.770   0.421   6.727  0.1427  0.0371 -0.0579
  816YOPS   C3A12215  18.653   0.440   7.242 -0.3053 -0.3285  0.0082
  816YOPS   C4A12216  18.300   0.508   7.545  0.1031  0.2255  0.0759
  816YOPS   C1B12217  18.065   0.198   6.425  0.0339  0.3148 -0.0270
  816YOPS   C2B12218  18.230   0.453   6.777  0.3421  0.0276 -0.0738
  816YOPS   D3B12219  18.256   0.720   7.058  0.2131  0.1869  0.3494
  816YOPS   C4B12220  18.414   1.101   6.924 -0.2894  0.3282 -0.0816
  817YOPS   CNO12221   7.048   8.142   5.844 -0.0980  0.1603 -0.0018
  817YOPS   PO412222   7.459   8.140   5.586 -0.2320 -0.1606 -0.0479
  817YOPS   GL112223   7.513   8.275   5.956 -0.3505 -0.1893  0.0787
  817YOPS   GL212224   7.418   8.581   6.155  0.1349 -0.2296  0.1336
  817YOPS   C1A12225   7.445   8.274   6.516  0.0282  0.0813  0.0862
  817YOPS   D2A12226   7.453   7.949   6.914 -0.1371 -0.0998 -0.1135
  817YOPS   C3A12227   7.355   7.942   7.339 -0.0616  0.0531  0.0172
  817YOPS   C4A12228   7.634   7.706   7.646  0.1012  0.0305  0.2723
  817YOPS   C1B12229   7.111   8.652   6.438  0.1842 -0.1018 -0.0159
  817YOPS   C2B12230   7.186   8.549   6.863 -0.0271  0.3256 -0.0877
  817YOPS   D3B12231   7.324   8.399   7.204  0.1065 -0.2384 -0.2623
  817YOPS   C4B12232   7.738   8.289   7.254 -0.0458 -0.2508  0.0900
  818YOPS   CNO12233   0.169  18.539   4.583  0.4191 -0.4975  0.0923
  818YOPS   PO412234   0.420  18.506   5.080  0.1495  0.2436  0.1781
  818YOPS   GL112235   0.329  18.517   5.481 -0.1854  0.0491  0.2728
  818YOPS   GL212236   0.254  18.839   5.577 -0.1222  0.3131 -0.3111
  818YOPS   C1A12237   0.383  18.231   5.868 -0.0556  0.0217  0.0913
  818YOPS   D2A12238   0.115  18.063   6.177 -0.3058 -0.0581  0.1184
  818YOPS   C3A12239   0.241  17.647   6.464  0.1701  0.3043  0.0891
  818YOPS   C4A12240   0.653  17.352   6.527 -0.1480 -0.1735  0.4901
  818YOPS   C1B12241   0.239  18.944   6.036  0.0726  0.2456 -0.0180
  818YOPS   C2B12242  -0.003  19.050   6.415 -0.2713  0.3431  0.0791
  818YOPS   D3B12243  -0.281  19.444   6.553  0.3033  0.0581  0.0323
  818YOPS   C4B12244  -0.169  19.902   6.487 -0.1305 -0.1760  0.0030
  819YOPS   CNO12245  13.512   4.948   4.823  0.0428 -0.0828 -0.0788
  819YOPS   PO412246  13.346   4.720   5.137  0.0919  0.0914  0.5598
  819YOPS   GL112247  13.615   4.574   5.566  0.4482 -0.1029 -0.0400
  819YOPS   GL212248  14.007   4.610   5.678  0.0529 -0.2683  0.0539
  819YOPS   C1A12249  13.436   4.508   6.016 -0.0557  0.6274  0.1145
  819YOPS   D2A12250  13.426   4.501   6.367 -0.3249  0.3294 -0.0530
  819YOPS   C3A12251  13.595   4.327   6.674 -0.1013  0.2429 -0.0264
  819YOPS   C4A12252  13.807   4.643   6.987  0.1408  0.0042  0.0247
  819YOPS   C1B12253  13.842   4.842   6.168  0.2669  0.3032  0.1991
  819YOPS   C2B12254  14.155   5.092   6.439  0.0560 -0.1828 -0.1048
  819YOPS   D3B12255  14.232   5.420   6.397  0.0621  0.3611  0.1653
  819YOPS   C4B12256  14.580   5.673   6.264 -0.1247  0.1246  0.2388
  820YOPS   CNO12257   4.467  12.348   5.287 -0.2223  0.1692 -0.2273
  820YOPS   PO412258   4.663  12.391   5.678  0.2913  0.0014  0.0316
  820YOPS   GL112259   4.476  12.418   6.067 -0.2749  0.1413  0.2882
  820YOPS   GL212260   4.235  12.329   6.319  0.0247 -0.1834  0.2857
  820YOPS   C1A12261   4.678  12.224   6.454  0.0435  0.3340 -0.2087
  820YOPS   D2A12262   4.971  11.989   6.573 -0.1281 -0.0170  0.0694
  820YOPS   C3A12263   5.091  11.943   7.042  0.1376 -0.2339 -0.0353
  820YOPS   C4A12264   4.875  12.100   7.383  0.3984  0.1116  0.1966
  820YOPS   C1B12265   4.226  12.407   6.657 -0.2372  0.3645 -0.0781
  820YOPS   C2B12266   4.076  12.239   7.024 -0.2916 -0.1738  0.0469
  820YOPS   D3B12267   3.901  12.315   7.441 -0.0911  0.2732  0.1116
  820YOPS   C4B12268   4.150  12.323   7.785  0.0989  0.0089  0.0538
  821POPE   NH312269   2.427  18.756   5.097  0.3003 -0.0532 -0.0188
  821POPE   PO412270   2.733  19.006   5.057  0.2613 -0.3053  0.1764
  821POPE   GL112271   2.726  19.128   5.502  0.1264 -0.0755 -0.1163
  821POPE   GL212272   2.572  18.850   5.582 -0.0504  0.0986 -0.1531
  821POPE   C1A12273   2.992  19.288   5.924  0.1029  0.2818 -0.0326
  821POPE   D2A12274   3.135  19.436   6.312  0.1895  0.2005  0.0554
  821POPE   C3A12275   3.597  19.183   6.458  0.2303 -0.2207  0.1153
  821POPE   C4A12276   3.993  19.258   6.799 -0.0482 -0.1207  0.0382
  821POPE   C1B12277   2.711  18.896   6.067  0.0575 -0.1090 -0.1315
  821POPE   C2B12278   2.662  18.806   6.409  0.1026  0.2094  0.2194
  821POPE   C3B12279   2.898  18.662   6.720 -0.1648 -0.1206 -0.1311
  821POPE   C4B12280   2.604  18.521   7.134  0.0841  0.0617 -0.3892
  822POPE   NH312281  19.212   5.137   5.549  0.1963  0.0948 -0.3207
  822POPE   PO412282  18.876   5.496   5.499 -0.1245  0.0423 -0.3082
  822POPE   GL112283  18.800   5.295   5.924  0.0847 -0.1377 -0.1936
  822POPE   GL212284  18.797   4.975   5.950  0.1430  0.0058  0.0683
  822POPE   C1A12285  18.492   5.275   6.258 -0.0702 -0.1333  0.4461
  822POPE   D2A12286  18.331   5.179   6.659  0.1967  0.1634  0.1951
  822POPE   C3A12287  18.498   4.800   6.814 -0.1832 -0.0415 -0.0886
  822POPE   C4A12288  18.695   4.540   7.160 -0.5862 -0.0303  0.1724
  822POPE   C1B12289  18.673   4.759   6.277 -0.0689 -0.2122 -0.0607
  822POPE   C2B12290  18.619   4.306   6.283  0.0591  0.0782 -0.0134
  822POPE   C3B12291  18.360   3.867   6.042  0.3825 -0.1620  0.1373
  822POPE   C4B12292  18.611   3.475   5.853  0.0597  0.3043  0.0279
  823POPE   NH312293   6.762   6.472   5.387  0.2992  0.1720 -0.0058
  823POPE   PO412294   7.128   6.494   5.624  0.3395 -0.1282 -0.3540
  823POPE   GL112295   7.322   6.475   6.017  0.3409  0.0374 -0.1098
  823POPE   GL212296   7.470   6.123   5.935 -0.1182 -0.0186 -0.1507
  823POPE   C1A12297   7.476   6.366   6.412 -0.0688  0.2375  0.2429
  823POPE   D2A12298   7.646   6.099   6.739  0.1640 -0.3819  0.1251
  823POPE   C3A12299   7.727   6.334   7.081 -0.0646 -0.2869  0.3868
  823POPE   C4A12300   7.607   6.502   7.441  0.1875  0.0066 -0.2137
  823POPE   C1B12301   7.858   5.965   5.923  0.1766  0.7447 -0.0040
  823POPE   C2B12302   8.171   5.697   6.212 -0.0920 -0.3500 -0.0808
  823POPE   C3B12303   8.427   5.424   6.454  0.1586 -0.4344  0.1057
  823POPE   C4B12304   8.288   5.212   6.814  0.1705 -0.1584 -0.0167
  824POPE   NH312305   2.766   8.592   5.919 -0.0268 -0.0534 -0.0327
  824POPE   PO412306   2.367   8.664   5.936  0.0585 -0.2146 -0.2804
  824POPE   GL112307   1.967   8.815   6.114 -0.0337  0.0337 -0.2313
  824POPE   GL212308   1.722   8.660   6.070 -0.0131 -0.0272 -0.1914
  824POPE   C1A12309   1.706   9.144   6.365 -0.0472 -0.0376 -0.0001
  824POPE   D2A12310   1.409   9.291   6.766  0.0419  0.1781  0.0755
  824POPE   C3A12311   1.764   9.052   6.985 -0.3327  0.0869 -0.0460
  824POPE   C4A12312   1.750   8.916   7.487 -0.0024  0.0670 -0.2146
  824POPE   C1B12313   1.689   8.256   6.419  0.1991 -0.0126 -0.0032
  824POPE   C2B12314   1.644   7.859   6.466  0.0954  0.2227 -0.0857
  824POPE   C3B12315   1.391   7.557   6.794  0.0569 -0.0599  0.4302
  824POPE   C4B12316   1.434   7.380   7.297 -0.0382  0.0704 -0.3268
  825POPE   NH312317   8.592   5.100   5.493 -0.0971  0.0746  0.0537
  825POPE   PO412318   8.905   5.277   5.444  0.1611  0.0315 -0.0926
  825POPE   GL112319   8.893   5.406   5.895 -0.0445 -0.0774  0.1194
  825POPE   GL212320   8.629   5.104   5.988  0.3003  0.0592  0.0148
  825POPE   C1A12321   8.973   5.414   6.350  0.3468 -0.0462  0.2466
  825POPE   D2A12322   9.265   5.250   6.547 -0.0155  0.2946 -0.0886
  825POPE   C3A12323   9.522   5.108   6.900 -0.4184 -0.0521  0.0227
  825POPE   C4A12324   9.696   4.748   6.996 -0.2665 -0.1335  0.3009
  825POPE   C1B12325   8.801   4.790   6.276  0.0679 -0.2114  0.1645
  825POPE   C2B12326   8.948   4.871   6.535 -0.0735  0.0704  0.2954
  825POPE   C3B12327   8.711   4.926   6.867  0.3825  0.0025  0.2491
  825POPE   C4B12328   8.649   4.765   7.262  0.0237 -0.0153 -0.4372
  826POPE   NH312329   6.288   0.131   5.059 -0.2302 -0.0288 -0.0574
  826POPE   PO412330   6.087  -0.271   5.096 -0.2728  0.0360  0.1074
  826POPE   GL112331   5.870  -0.402   5.330  0.3345  0.3293  0.0760
  826POPE   GL212332   6.113  -0.498   5.620 -0.1085  0.4386  0.0944
  826POPE   C1A12333   5.530  -0.565   5.583  0.2583 -0.4605  0.4275
  826POPE   D2A12334   5.187  -0.787   5.841 -0.0278 -0.1529  0.0960
  826POPE   C3A12335   5.325  -1.214   6.007 -0.3006 -0.0882  0.0509
  826POPE   C4A12336   5.102  -1.329   6.404  0.0982  0.1293  0.0690
  826POPE   C1B12337   5.962  -0.345   6.037  0.0320  0.1037 -0.1374
  826POPE   C2B12338   5.804  -0.236   6.397 -0.0790 -0.0792  0.0429
  826POPE   C3B12339   5.987   0.100   6.552  0.0578  0.0015  0.1947
  826POPE   C4B12340   6.190   0.495   6.393  0.0621  0.2743  0.1325
  827POPE   NH312341  18.744  10.880   5.591  0.2976 -0.3450 -0.0313
  827POPE   PO412342  18.780  11.353   5.414 -0.0740 -0.1999  0.2879
  827POPE   GL112343  18.788  11.469   5.902  0.1347  0.2912 -0.0423
  827POPE   GL212344  18.481  11.725   5.808  0.2342  0.1960  0.2649
  827POPE   C1A12345  19.200  11.530   6.182 -0.2714  0.0064  0.2627
  827POPE   D2A12346  19.478  11.673   6.376 -0.0398 -0.1662  0.1703
  827POPE   C3A12347  19.700  11.960   6.690  0.0866 -0.0464 -0.0482
  827POPE   C4A12348  19.531  12.322   6.783  0.2254  0.0002 -0.0029
  827POPE   C1B12349  18.284  11.491   6.171  0.3903  0.1385 -0.0174
  827POPE   C2B12350  18.252  11.533   6.564 -0.0699  0.4416  0.2514
  827POPE   C3B12351  18.346  11.540   6.931 -0.0744  0.0865  0.0196
  827POPE   C4B12352  18.164  11.465   7.209  0.2494  0.0283 -0.2324
  828POPE   NH312353  15.628  10.335   5.462  0.0203  0.3829 -0.0019
  828POPE   PO412354  15.864  10.578   5.255  0.0861  0.3129 -0.1033
  828POPE   GL112355  15.617  10.845   5.488  0.0707 -0.1930  0.0857
  828POPE   GL212356  15.283  10.810   5.512 -0.0618 -0.2889  0.3522
  828POPE   C1A12357  15.552  10.958   5.985 -0.0125 -0.0757  0.4700
  828POPE   D2A12358  15.318  10.948   6.424  0.0431  0.1928  0.3995
  828POPE   C3A12359  15.275  11.260   6.717 -0.3149  0.0295 -0.2407
  828POPE   C4A12360  15.065  11.696   6.752 -0.4291  0.4341  0.0966
  828POPE   C1B12361  15.124  10.597   5.897 -0.1492 -0.1342  0.2684
  828POPE   C2B12362  14.863  10.914   6.187 -0.2511  0.0739 -0.0481
  828POPE   C3B12363  14.782  11.091   6.629  0.1344 -0.0396  0.0028
  828POPE   C4B12364  14.521  10.810   6.889  0.2082 -0.0942  0.0878
  829POPE   NH312365  11.067  15.409   5.178  0.2504  0.0508  0.2533
  829POPE   PO412366  11.432  15.548   5.021  0.0795  0.1161  0.1931
  829POPE   GL112367  11.526  15.540   5.451  0.0502 -0.0805 -0.2401
  829POPE   GL212368  11.274  15.818   5.579 -0.0149 -0.2558  0.2768
  829POPE   C1A12369  11.964  15.383   5.691  0.0642 -0.4918  0.0250
  829POPE   D2A12370  12.197  15.113   6.204 -0.0888 -0.2284  0.2100
  829POPE   C3A12371  12.259  15.119   6.661 -0.2014 -0.1415  0.1825
  829POPE   C4A12372  12.315  14.889   7.116 -0.3572 -0.0753 -0.3132
  829POPE   C1B12373  11.247  15.414   5.863 -0.5848 -0.4062  0.1723
  829POPE   C2B12374  11.305  15.454   6.297  0.0704 -0.0686  0.0878
  829POPE   C3B12375  11.160  15.437   6.735 -0.2264  0.0556 -0.1322
  829POPE   C4B12376  10.858  15.097   6.937 -0.1902 -0.2849  0.0223
  830POPE   NH312377  10.406  18.946   4.688  0.1197  0.1637 -0.1388
  830POPE   PO412378   9.917  19.167   4.865  0.4029 -0.0357 -0.0377
  830POPE   GL112379   9.829  19.334   5.338  0.1294  0.0798  0.2466
  830POPE   GL212380   9.948  19.047   5.505 -0.0390 -0.0906  0.2839
  830POPE   C1A12381  10.126  19.610   5.531 -0.1722  0.1225  0.1533
  830POPE   D2A12382  10.458  19.920   5.569 -0.3013 -0.2084  0.1672
  830POPE   C3A12383  10.749  20.016   5.857  0.1098 -0.2835  0.0051
  830POPE   C4A12384  10.765  19.776   6.274 -0.2210  0.0570 -0.1819
  830POPE   C1B12385  10.121  19.194   5.900  0.0633  0.1356 -0.1798
  830POPE   C2B12386  10.097  19.288   6.253  0.2201 -0.0121 -0.2281
  830POPE   C3B12387  10.175  19.420   6.622  0.1265 -0.1139 -0.3950
  830POPE   C4B12388  10.303  19.604   7.075  0.0213 -0.1683  0.0135
  831POPE   NH312389   9.648   2.900   5.115 -0.2056 -0.0970  0.1421
  831POPE   PO412390   9.248   2.975   5.228  0.1485  0.1536 -0.1294
  831POPE   GL112391   9.375   2.893   5.556 -0.0491  0.1843  0.0290
  831POPE   GL212392   9.839   2.710   5.597 -0.3642  0.1946 -0.0228
  831POPE   C1A12393   9.501   2.780   5.976 -0.2127  0.0364 -0.1141
  831POPE   D2A12394   9.566   2.677   6.394  0.0747  0.0245 -0.1748
  831POPE   C3A12395   9.262   2.570   6.745 -0.0205 -0.0807 -0.0102
  831POPE   C4A12396   9.140   2.164   6.981  0.0792  0.2046  0.0888
  831POPE   C1B12397   9.955   2.515   6.045  0.2753  0.2086 -0.1921
  831POPE   C2B12398   9.975   2.343   6.374 -0.2692 -0.0734 -0.2787
  831POPE   C3B12399   9.784   2.235   6.770  0.0999  0.3070  0.0545
  831POPE   C4B12400   9.624   2.230   7.253 -0.1906 -0.0386  0.0544
  832POPE   NH312401   6.027   2.912   5.376  0.2526 -0.0445  0.2339
  832POPE   PO412402   6.089   3.411   5.345 -0.2096 -0.0184  0.0464
  832POPE   GL112403   6.231   3.291   5.733  0.3226  0.1416  0.0324
  832POPE   GL212404   6.520   3.304   5.791 -0.3183  0.0809 -0.0382
  832POPE   C1A12405   6.163   3.004   6.128 -0.1029  0.2484  0.2505
  832POPE   D2A12406   6.273   2.916   6.553  0.2534 -0.2292 -0.1616
  832POPE   C3A12407   6.112   2.791   6.916 -0.2144 -0.0012 -0.2561
  832POPE   C4A12408   5.738   2.634   7.158 -0.0458 -0.0406  0.0960
  832POPE   C1B12409   6.520   3.358   6.216 -0.0448 -0.1151 -0.1110
  832POPE   C2B12410   6.610   3.308   6.649  0.0733 -0.0595 -0.1795
  832POPE   C3B12411   6.538   3.358   7.069  0.0927 -0.0149  0.0866
  832POPE   C4B12412   6.575   3.255   7.503  0.2726 -0.2188 -0.2397
  833POPE   NH312413   0.815   6.802   5.928  0.1638  0.0399 -0.0244
  833POPE   PO412414   0.430   6.893   5.725 -0.0867 -0.0351 -0.2011
  833POPE   GL112415   0.422   7.004   6.175  0.1516  0.1319  0.1447
  833POPE   GL212416   0.310   6.867   6.338  0.2199 -0.1338  0.0392
  833POPE   C1A12417   0.478   7.384   6.295 -0.0557  0.0619  0.0059
  833POPE   D2A12418   0.425   7.435   6.711  0.0824 -0.3004  0.0812
  833POPE   C3A12419   0.458   7.621   7.009  0.0395 -0.0508  0.1570
  833POPE   C4A12420   0.618   7.735   7.256 -0.1306 -0.1853  0.0327
  833POPE   C1B12421   0.331   6.865   6.667 -0.2589  0.1514 -0.0591
  833POPE   C2B12422   0.353   7.085   7.029  0.1494  0.1878 -0.1185
  833POPE   C3B12423   0.248   7.343   7.453  0.0337  0.0497  0.0929
  833POPE   C4B12424   0.231   7.817   7.555  0.3631 -0.2146 -0.0846
  834POPE   NH312425   1.615  17.015   5.283 -0.0529 -0.2427  0.1508
  834POPE   PO412426   1.980  17.369   5.195  0.1205 -0.4814  0.0445
  834POPE   GL112427   1.939  17.627   5.548  0.1308 -0.0455  0.3618
  834POPE   GL212428   1.593  17.879   5.467  0.1630 -0.0475 -0.2579
  834POPE   C1A12429   2.205  17.858   5.892 -0.1254  0.2562 -0.1936
  834POPE   D2A12430   2.726  17.898   6.024  0.1607  0.0062  0.0104
  834POPE   C3A12431   2.769  18.036   6.421  0.0698  0.1105 -0.0880
  834POPE   C4A12432   2.585  17.768   6.733  0.1082  0.0162  0.2367
  834POPE   C1B12433   1.690  17.932   5.922 -0.4201 -0.1121  0.2342
  834POPE   C2B12434   1.526  18.169   6.260 -0.2323  0.1704  0.1075
  834POPE   C3B12435   1.612  18.254   6.599 -0.0121 -0.0466  0.1033
  834POPE   C4B12436   1.993  18.445   6.638  0.4450  0.0116  0.0554
  835POPE   NH312437  10.926  14.762   4.627 -0.0656  0.2081 -0.1869
  835POPE   PO412438  11.213  14.609   5.052 -0.0060 -0.0370  0.5988
  835POPE   GL112439  11.495  14.556   5.402 -0.1000 -0.0556  0.1616
  835POPE   GL212440  11.412  14.295   5.511 -0.0574 -0.1811  0.0535
  835POPE   C1A12441  11.595  14.673   5.770  0.1885  0.1691  0.3822
  835POPE   D2A12442  11.654  15.021   5.739 -0.1266 -0.2534  0.2556
  835POPE   C3A12443  11.677  15.207   6.108  0.3941 -0.3001 -0.1450
  835POPE   C4A12444  11.842  15.458   6.445 -0.2510  0.3202 -0.0703
  835POPE   C1B12445  11.641  14.222   5.898 -0.1773  0.0297 -0.1874
  835POPE   C2B12446  11.841  14.092   6.229 -0.1502  0.1397  0.2714
  835POPE   C3B12447  12.050  13.983   6.720  0.0646  0.3828  0.1099
  835POPE   C4B12448  12.467  13.751   6.842  0.2191  0.0173  0.3972
  836POPE   NH312449  13.681   6.305   4.861  0.1630 -0.1678  0.1898
  836POPE   PO412450  13.905   5.931   4.999  0.1787  0.3543 -0.0515
  836POPE   GL112451  14.140   5.957   5.407 -0.1669 -0.2671  0.0239
  836POPE   GL212452  14.064   5.698   5.480  0.1250 -0.2062 -0.0328
  836POPE   C1A12453  14.018   6.122   5.770 -0.0449 -0.2839  0.1131
  836POPE   D2A12454  13.962   6.108   6.212  0.1318 -0.2523 -0.3235
  836POPE   C3A12455  14.296   6.006   6.574  0.2562  0.1989  0.1857
  836POPE   C4A12456  14.498   6.073   6.947  0.2838 -0.1311  0.0076
  836POPE   C1B12457  14.004   5.331   5.579  0.1969  0.0375  0.0062
  836POPE   C2B12458  14.108   5.145   5.940 -0.0567  0.0314 -0.6638
  836POPE   C3B12459  14.318   4.771   6.062 -0.2596 -0.1881 -0.1286
  836POPE   C4B12460  14.589   4.531   6.394  0.0898 -0.3081  0.1717
  837POPE   NH312461  16.757  12.936   5.002  0.0958 -0.4677 -0.0169
  837POPE   PO412462  16.306  12.866   5.119 -0.0209  0.0766 -0.1414
  837POPE   GL112463  16.373  12.589   5.388 -0.2295  0.0477 -0.0706
  837POPE   GL212464  16.711  12.626   5.447  0.0113  0.0474  0.0346
  837POPE   C1A12465  16.473  12.489   5.869  0.3085  0.1323 -0.0151
  837POPE   D2A12466  16.633  12.747   6.209  0.1657  0.0386 -0.1451
  837POPE   C3A12467  16.628  12.561   6.625  0.0051  0.4063 -0.2644
  837POPE   C4A12468  16.543  12.600   7.036  0.1421 -0.1790 -0.0032
  837POPE   C1B12469  16.961  12.560   5.857 -0.1783 -0.2051 -0.0647
  837POPE   C2B12470  16.861  12.316   6.278  0.0573 -0.0525  0.0931
  837POPE   C3B12471  16.902  12.119   6.666  0.2935  0.1544 -0.0503
  837POPE   C4B12472  16.918  11.673   6.741  0.0862 -0.0085 -0.4493
  838POPE   NH312473  15.844  16.408   4.737  0.2654  0.1627 -0.2184
  838POPE   PO412474  16.205  16.373   4.969  0.1341 -0.0592  0.2059
  838POPE   GL112475  16.226  16.266   5.392 -0.0924  0.1602 -0.1440
  838POPE   GL212476  16.493  16.114   5.642 -0.3105 -0.0751  0.0002
  838POPE   C1A12477  15.956  16.162   5.672 -0.1113  0.1493 -0.0373
  838POPE   D2A12478  15.573  16.216   5.848  0.0074 -0.0786 -0.0717
  838POPE   C3A12479  15.512  16.538   6.113  0.0416  0.0314 -0.0719
  838POPE   C4A12480  15.105  16.623   6.418 -0.2843  0.1337  0.0099
  838POPE   C1B12481  16.637  16.356   5.914 -0.1303 -0.3168  0.2740
  838POPE   C2B12482  16.980  16.356   6.225  0.3428  0.1308  0.0290
  838POPE   C3B12483  16.912  16.117   6.552 -0.2462  0.2129 -0.2131
  838POPE   C4B12484  16.558  15.894   6.774 -0.0942 -0.0382 -0.0399
  839POPE   NH312485   7.376  13.864   5.138 -0.0117 -0.2913 -0.0975
  839POPE   PO412486   7.071  13.777   5.459  0.0590  0.1185 -0.2358
  839POPE   GL112487   6.998  13.735   5.872  0.0258 -0.3864 -0.0402
  839POPE   GL212488   7.306  13.830   6.080 -0.1080 -0.1395  0.1550
  839POPE   C1A12489   6.943  13.320   6.188 -0.3697 -0.1116  0.0778
  839POPE   D2A12490   7.117  13.259   6.642 -0.3421  0.1351 -0.4041
  839POPE   C3A12491   7.218  13.430   7.024  0.0095  0.1642  0.2131
  839POPE   C4A12492   7.506  13.372   7.418 -0.2174 -0.3218 -0.2176
  839POPE   C1B12493   7.593  13.630   6.368 -0.1047 -0.1289  0.1171
  839POPE   C2B12494   7.677  13.587   6.867 -0.0602  0.0296  0.0784
  839POPE   C3B12495   7.367  13.859   7.211 -0.1413 -0.1694 -0.3871
  839POPE   C4B12496   7.380  14.302   7.425 -0.1642  0.1058  0.1624
  840POPE   NH312497   9.812   4.077   4.868  0.2071 -0.2529 -0.1039
  840POPE   PO412498   9.640   4.223   5.258 -0.0217  0.0969 -0.0949
  840POPE   GL112499   9.346   4.120   5.460  0.0307  0.0259  0.1251
  840POPE   GL212500   9.535   3.919   5.648 -0.0534 -0.0912 -0.0311
  840POPE   C1A12501   9.121   4.350   5.753 -0.1990  0.0741  0.0203
  840POPE   D2A12502   9.254   4.571   6.113 -0.1266 -0.0239 -0.2469
  840POPE   C3A12503   9.224   5.042   6.151 -0.0325  0.2632 -0.5189
  840POPE   C4A12504   9.369   5.359   6.024 -0.2015 -0.0652 -0.3924
  840POPE   C1B12505   9.770   3.748   5.862 -0.3424  0.1244  0.0219
  840POPE   C2B12506   9.882   3.588   6.229 -0.1299  0.2179 -0.1213
  840POPE   C3B12507   9.709   3.488   6.636 -0.0553  0.0454  0.0066
  840POPE   C4B12508   9.325   3.488   6.956  0.2001 -0.1964 -0.0355
  841POPE   NH312509  19.075   1.738   5.358  0.1478  0.0956 -0.3227
  841POPE   PO412510  19.506   1.755   5.450  0.1546 -0.3246  0.0299
  841POPE   GL112511  19.545   2.091   5.689  0.0401 -0.3693 -0.2364
  841POPE   GL212512  19.404   2.366   5.834  0.1571  0.1963 -0.1701
  841POPE   C1A12513  19.351   1.968   6.129  0.1581 -0.1324 -0.2676
  841POPE   D2A12514  19.166   1.620   6.413  0.1934 -0.6333 -0.1628
  841POPE   C3A12515  19.039   1.783   6.863 -0.0901 -0.3945  0.1200
  841POPE   C4A12516  18.894   2.060   7.122 -0.2232 -0.0445  0.1430
  841POPE   C1B12517  19.589   2.414   6.227  0.2084  0.3294  0.2506
  841POPE   C2B12518  19.442   2.238   6.568  0.0240  0.1673  0.2046
  841POPE   C3B12519  19.141   2.336   6.778 -0.0215  0.0792 -0.3897
  841POPE   C4B12520  18.857   2.657   6.959 -0.2165 -0.0056 -0.3665
  842POPE   NH312521   7.190   7.707   5.607  0.0872 -0.0934 -0.0515
  842POPE   PO412522   7.270   7.335   5.388  0.1018 -0.0117  0.1415
  842POPE   GL112523   7.284   7.295   5.841 -0.0643 -0.1761 -0.3000
  842POPE   GL212524   7.611   7.233   5.951  0.3360 -0.0883 -0.2777
  842POPE   C1A12525   7.147   7.316   6.269  0.3321  0.0165  0.4191
  842POPE   D2A12526   6.973   7.577   6.692  0.0338  0.1012  0.1508
  842POPE   C3A12527   7.128   7.546   7.048  0.2012 -0.0457  0.0609
  842POPE   C4A12528   7.311   7.397   7.314  0.1264 -0.0506 -0.1474
  842POPE   C1B12529   7.519   6.961   6.285  0.4857  0.2623 -0.4223
  842POPE   C2B12530   7.309   7.175   6.736  0.1659  0.0822  0.0416
  842POPE   C3B12531   7.660   7.418   6.995  0.3343 -0.0066 -0.1603
  842POPE   C4B12532   7.837   7.352   7.313  0.0971 -0.0693 -0.1535
  843POPE   NH312533   5.721  17.003   4.983  0.2786  0.1934  0.0441
  843POPE   PO412534   5.284  17.069   4.959 -0.1996 -0.1546 -0.2042
  843POPE   GL112535   5.277  17.126   5.438  0.0917 -0.1795 -0.0154
  843POPE   GL212536   5.090  17.367   5.477  0.2448 -0.2587 -0.1321
  843POPE   C1A12537   5.137  17.075   5.931  0.1938  0.1478  0.0363
  843POPE   D2A12538   5.039  16.940   6.129 -0.1262 -0.1443 -0.0839
  843POPE   C3A12539   5.077  17.027   6.533 -0.0303  0.1780 -0.0147
  843POPE   C4A12540   5.363  16.839   6.792  0.1158 -0.0562  0.0760
  843POPE   C1B12541   4.834  17.400   5.822  0.1712  0.0436 -0.1783
  843POPE   C2B12542   4.710  17.282   6.311 -0.4002  0.2459 -0.0955
  843POPE   C3B12543   4.660  17.168   6.808 -0.2566 -0.1852  0.2217
  843POPE   C4B12544   5.009  17.128   7.021  0.0007 -0.1807 -0.1985
  844POPE   NH312545  11.182   6.974   5.101 -0.1619 -0.1686 -0.2703
  844POPE   PO412546  11.416   7.336   5.148  0.1690  0.0671 -0.0219
  844POPE   GL112547  11.413   7.430   5.591 -0.1379 -0.3147  0.0558
  844POPE   GL212548  11.577   7.673   5.843  0.1457 -0.0632 -0.1237
  844POPE   C1A12549  11.056   7.368   5.832 -0.2009 -0.1904  0.0813
  844POPE   D2A12550  10.925   7.494   6.323 -0.0096  0.2303 -0.0026
  844POPE   C3A12551  11.264   7.536   6.627 -0.1239 -0.0949  0.0832
  844POPE   C4A12552  11.390   8.004   6.973  0.3938 -0.1955  0.0897
  844POPE   C1B12553  11.480   7.475   6.178  0.2964  0.0941  0.2633
  844POPE   C2B12554  11.568   7.041   6.387  0.4252  0.1152 -0.3950
  844POPE   C3B12555  11.942   6.733   6.560 -0.2000  0.0933  0.1737
  844POPE   C4B12556  11.992   6.239   6.707 -0.0848  0.1573 -0.0353
  845POPE   NH312557  10.791  18.224   5.248 -0.2468 -0.4495  0.0051
  845POPE   PO412558  11.186  18.404   5.260  0.2393  0.3513  0.1213
  845POPE   GL112559  11.108  18.051   5.518 -0.1245  0.0175 -0.1203
  845POPE   GL212560  10.900  17.870   5.598 -0.0502  0.2172 -0.0243
  845POPE   C1A12561  11.125  17.929   6.018 -0.2025  0.0037 -0.1445
  845POPE   D2A12562  11.200  17.512   6.354 -0.1432 -0.1906 -0.1565
  845POPE   C3A12563  11.245  17.583   6.791  0.1285 -0.0621  0.0147
  845POPE   C4A12564  11.514  17.661   7.022  0.3095 -0.3329  0.0967
  845POPE   C1B12565  10.822  17.489   5.943  0.0146  0.3804  0.2080
  845POPE   C2B12566  10.729  17.347   6.309  0.2583  0.0223  0.4259
  845POPE   C3B12567  10.435  17.206   6.666 -0.1920  0.1410  0.1477
  845POPE   C4B12568  10.070  17.327   6.930 -0.0955 -0.0237  0.0492
  846POPE   NH312569   1.933  12.520   5.501 -0.0776 -0.2731  0.2350
  846POPE   PO412570   1.937  12.493   5.956 -0.0066 -0.3052 -0.1342
  846POPE   GL112571   2.005  12.767   6.251 -0.4656 -0.4479  0.0005
  846POPE   GL212572   2.024  13.118   6.358 -0.1737 -0.1758 -0.2310
  846POPE   C1A12573   1.947  12.805   6.706 -0.0988  0.1588 -0.0677
  846POPE   D2A12574   1.914  13.158   6.934 -0.1515  0.0874  0.3108
  846POPE   C3A12575   1.487  13.183   7.028 -0.1378  0.2909  0.2668
  846POPE   C4A12576   1.062  13.210   6.976  0.1034 -0.0556 -0.3098
  846POPE   C1B12577   2.358  13.134   6.650  0.1881 -0.0047 -0.0039
  846POPE   C2B12578   2.666  13.068   6.831  0.0421  0.0086  0.2125
  846POPE   C3B12579   2.952  13.089   7.128  0.0222  0.0662 -0.0316
  846POPE   C4B12580   3.170  12.836   7.536 -0.1303 -0.2613 -0.0856
  847POPE   NH312581  18.338  12.265   5.575  0.4015  0.1540 -0.0776
  847POPE   PO412582  18.780  12.468   5.581  0.0416 -0.0725 -0.2457
  847POPE   GL112583  18.767  12.403   5.957 -0.1172  0.0018 -0.4062
  847POPE   GL212584  18.613  12.218   5.956 -0.3975 -0.1322  0.0381
  847POPE   C1A12585  18.823  12.538   6.402 -0.0341 -0.1315 -0.1591
  847POPE   D2A12586  18.909  12.342   6.748  0.2438  0.1138 -0.0672
  847POPE   C3A12587  19.230  12.249   7.154 -0.2372  0.3451 -0.4076
  847POPE   C4A12588  19.521  11.999   7.241 -0.0231  0.1111  0.1169
  847POPE   C1B12589  18.526  11.940   6.315  0.2742  0.0022  0.0063
  847POPE   C2B12590  18.768  11.663   6.531 -0.0866 -0.1892  0.3684
  847POPE   C3B12591  18.993  11.296   6.596 -0.0026 -0.2259 -0.0484
  847POPE   C4B12592  19.183  11.142   6.946  0.2425  0.2534 -0.0728
  848POPE   NH312593  15.140  13.683   5.089 -0.1168  0.2575 -0.0777
  848POPE   PO412594  14.705  13.941   5.001  0.0466  0.1668 -0.0832
  848POPE   GL112595  14.823  14.090   5.386  0.1630 -0.0486  0.2112
  848POPE   GL212596  14.595  14.272   5.586  0.2618  0.2098 -0.0101
  848POPE   C1A12597  15.055  14.190   5.861 -0.0803 -0.2411 -0.2478
  848POPE   D2A12598  15.387  13.834   6.127 -0.1272  0.1047  0.3048
  848POPE   C3A12599  15.320  13.795   6.459  0.0353 -0.1870 -0.1930
  848POPE   C4A12600  15.266  14.010   6.847  0.1655  0.1602 -0.0331
  848POPE   C1B12601  14.563  14.206   6.030 -0.1192  0.0312 -0.1439
  848POPE   C2B12602  14.533  14.339   6.492 -0.0419  0.2773 -0.0484
  848POPE   C3B12603  14.376  14.386   6.849  0.1807  0.0311  0.1157
  848POPE   C4B12604  14.373  14.030   7.112  0.0148  0.1175  0.3267
  849POPE   NH312605   9.041   3.519   5.334  0.0698 -0.2415 -0.2087
  849POPE   PO412606   8.736   3.156   5.097  0.2447  0.0058 -0.1488
  849POPE   GL112607   8.400   3.392   5.363  0.1747 -0.1015  0.1082
  849POPE   GL212608   8.580   3.511   5.742  0.1487  0.0747 -0.0213
  849POPE   C1A12609   8.095   3.484   5.663 -0.0628 -0.1683 -0.1955
  849POPE   D2A12610   8.122   3.644   6.072 -0.0530 -0.0854 -0.3561
  849POPE   C3A12611   8.175   3.338   6.333  0.1925  0.3468 -0.1213
  849POPE   C4A12612   8.067   2.952   6.267  0.1776 -0.1950  0.1858
  849POPE   C1B12613   8.440   3.132   5.994 -0.0019 -0.1229 -0.0170
  849POPE   C2B12614   8.545   3.047   6.400 -0.0551 -0.4008  0.2680
  849POPE   C3B12615   8.773   2.922   6.614 -0.1040 -0.2690 -0.1897
  849POPE   C4B12616   8.770   2.546   6.910 -0.2645 -0.2251 -0.1718
  850POPE   NH312617   4.117  12.207   5.700  0.1402 -0.2780 -0.0077
  850POPE   PO412618   3.929  12.611   5.718  0.1215 -0.1991  0.3244
  850POPE   GL112619   3.759  12.360   6.093  0.1081 -0.1508 -0.1795
  850POPE   GL212620   3.818  12.043   6.041  0.2354  0.1644 -0.0231
  850POPE   C1A12621   3.743  12.405   6.564  0.1182  0.1054 -0.2123
  850POPE   D2A12622   3.468  12.356   6.882  0.0222 -0.0170 -0.1654
  850POPE   C3A12623   3.478  12.106   7.191 -0.1542  0.2105  0.0176
  850POPE   C4A12624   3.106  12.219   7.463  0.2649 -0.0990 -0.0760
  850POPE   C1B12625   3.865  11.937   6.489 -0.2116 -0.0625  0.1919
  850POPE   C2B12626   4.263  11.869   6.602  0.4037  0.0727  0.3742
  850POPE   C3B12627   4.618  11.685   6.374  0.2366  0.0620 -0.3669
  850POPE   C4B12628   4.957  11.419   6.466  0.2027 -0.2821  0.3198
  851YOPE   NH312629   8.337  12.312   5.537 -0.2948  0.1950  0.0772
  851YOPE   PO412630   7.971  12.147   5.461 -0.2150 -0.0827  0.1588
  851YOPE   GL112631   7.912  12.022   5.780  0.1164 -0.0983  0.1101
  851YOPE   GL212632   8.046  12.220   5.941 -0.0080 -0.0222  0.1752
  851YOPE   C1A12633   7.467  12.076   6.072  0.0367  0.2112 -0.0718
  851YOPE   D2A12634   7.428  12.206   6.486 -0.2849  0.0924 -0.0964
  851YOPE   C3A12635   7.286  11.924   6.844 -0.3304 -0.2983  0.3581
  851YOPE   C4A12636   7.032  11.592   7.006 -0.2476  0.1009  0.2719
  851YOPE   C1B12637   8.052  12.287   6.347  0.0002 -0.2065  0.2700
  851YOPE   C2B12638   7.751  12.704   6.552  0.3253 -0.1318 -0.0851
  851YOPE   D3B12639   7.813  13.095   6.692 -0.3545  0.1473 -0.0947
  851YOPE   C4B12640   8.105  13.522   6.478  0.0394 -0.0097 -0.0791
  852YOPE   NH312641  18.925  15.745   5.077  0.1251 -0.2781 -0.1902
  852YOPE   PO412642  18.999  15.337   4.977  0.0608  0.1236 -0.2919
  852YOPE   GL112643  18.950  15.389   5.393  0.1939  0.0899  0.0673
  852YOPE   GL212644  19.142  15.528   5.464  0.3944  0.0239 -0.0837
  852YOPE   C1A12645  18.904  15.358   5.834 -0.2781  0.0761  0.2229
  852YOPE   D2A12646  18.881  15.592   6.288 -0.0309  0.3256  0.0970
  852YOPE   C3A12647  18.456  15.605   6.473  0.0432  0.1241  0.0991
  852YOPE   C4A12648  18.196  15.413   6.750  0.1850 -0.1453 -0.2538
  852YOPE   C1B12649  19.197  15.764   5.867 -0.0543 -0.0726  0.0862
  852YOPE   C2B12650  19.597  15.980   6.074 -0.0712 -0.4235 -0.1239
  852YOPE   D3B12651  19.969  16.157   6.256 -0.2175  0.3845 -0.4403
  852YOPE   C4B12652  20.161  16.446   6.512  0.0249 -0.2004 -0.0938
  853YOPE   NH312653  16.794   2.643   4.936 -0.3068  0.1047  0.1695
  853YOPE   PO412654  17.008   2.232   4.825 -0.0365  0.1833  0.2361
  853YOPE   GL112655  17.006   2.373   5.336 -0.0147  0.0774  0.2131
  853YOPE   GL212656  17.325   2.653   5.302 -0.4948  0.3134  0.2636
  853YOPE   C1A12657  16.809   2.282   5.776  0.2272  0.1027 -0.1375
  853YOPE   D2A12658  16.771   2.052   6.134 -0.2240  0.3634  0.0919
  853YOPE   C3A12659  17.050   1.834   6.523 -0.0625 -0.2550 -0.2264
  853YOPE   C4A12660  17.124   1.717   6.916 -0.1188  0.1098 -0.1040
  853YOPE   C1B12661  16.950   2.838   5.572  0.0282  0.0364 -0.1857
  853YOPE   C2B12662  16.821   3.133   5.927  0.1499 -0.0551 -0.2853
  853YOPE   D3B12663  16.947   3.428   6.104 -0.0472  0.0939  0.2211
  853YOPE   C4B12664  16.886   3.812   6.119  0.1270  0.1052  0.3930
  854YOPE   NH312665   6.535   0.971   5.347 -0.2703  0.0380 -0.3634
  854YOPE   PO412666   6.546   0.567   5.182 -0.1216  0.1420  0.2476
  854YOPE   GL112667   6.440   0.487   5.553  0.1410  0.1939 -0.1189
  854YOPE   GL212668   6.256   0.197   5.612  0.3472  0.1778  0.1247
  854YOPE   C1A12669   6.380   0.668   5.968 -0.0487  0.3991  0.1709
  854YOPE   D2A12670   6.250   0.987   6.261 -0.2248 -0.1126 -0.2024
  854YOPE   C3A12671   5.944   1.303   6.362 -0.2943 -0.2178 -0.1316
  854YOPE   C4A12672   5.707   1.508   6.654 -0.2954 -0.2579  0.2069
  854YOPE   C1B12673   5.889   0.019   5.685 -0.0618  0.1022  0.1073
  854YOPE   C2B12674   5.642   0.030   5.993 -0.3210 -0.3987  0.0438
  854YOPE   D3B12675   5.448   0.526   5.976 -0.1598  0.2694  0.0440
  854YOPE   C4B12676   5.022   0.818   5.942 -0.2571 -0.4235  0.0473
  855YOPE   NH312677  12.914   2.006   4.504 -0.1258 -0.1531  0.3494
  855YOPE   PO412678  12.498   1.905   4.620  0.0203 -0.1956  0.1770
  855YOPE   GL112679  12.643   1.834   4.985  0.2406 -0.2308  0.0426
  855YOPE   GL212680  12.520   1.694   5.232  0.1241 -0.4227  0.0760
  855YOPE   C1A12681  12.941   1.705   5.417 -0.1869 -0.0612  0.0094
  855YOPE   D2A12682  13.315   1.524   5.603 -0.2459  0.0343 -0.0703
  855YOPE   C3A12683  13.670   1.236   5.430 -0.0366 -0.3201  0.0229
  855YOPE   C4A12684  14.103   1.181   5.620 -0.3719 -0.1906 -0.0538
  855YOPE   C1B12685  12.345   1.556   5.695  0.3118 -0.0141  0.1854
  855YOPE   C2B12686  12.387   1.549   6.173  0.3402  0.1204  0.0004
  855YOPE   D3B12687  12.475   1.539   6.668 -0.0142 -0.0568 -0.0150
  855YOPE   C4B12688  12.791   1.540   6.957  0.4743 -0.2512 -0.1107
  856YOPE   NH312689   5.901  14.068   5.477  0.1148  0.1564 -0.0072
  856YOPE   PO412690   5.577  14.218   5.764 -0.0951  0.0629 -0.0828
  856YOPE   GL112691   5.657  14.173   6.114 -0.0992 -0.1012 -0.2378
  856YOPE   GL212692   6.042  14.229   6.053 -0.2331 -0.2192 -0.0841
  856YOPE   C1A12693   5.835  14.193   6.588 -0.2174 -0.2653  0.0916
  856YOPE   D2A12694   5.846  14.005   6.900  0.0381  0.0270 -0.2281
  856YOPE   C3A12695   5.734  13.608   6.993 -0.2446  0.1915 -0.2416
  856YOPE   C4A12696   5.534  13.242   6.801  0.0644  0.0096  0.0121
  856YOPE   C1B12697   5.940  14.573   6.236  0.3591  0.2272  0.0121
  856YOPE   C2B12698   5.898  14.644   6.639 -0.0849  0.1512 -0.1157
  856YOPE   D3B12699   6.108  14.916   6.942  0.0070  0.0171 -0.0954
  856YOPE   C4B12700   6.157  15.238   7.210  0.1191  0.0061  0.0467
  857YOPE   NH312701   6.745   4.622   5.719 -0.0701 -0.2397 -0.1031
  857YOPE   PO412702   7.178   4.664   5.701 -0.0792 -0.2197 -0.3009
  857YOPE   GL112703   7.170   4.628   6.072 -0.3257 -0.1258 -0.1160
  857YOPE   GL212704   7.230   4.323   6.226  0.0428 -0.0809  0.0874
  857YOPE   C1A12705   7.001   4.876   6.397 -0.0225 -0.0706  0.1963
  857YOPE   D2A12706   6.876   4.893   6.840  0.0867 -0.0030 -0.0684
  857YOPE   C3A12707   7.146   4.966   7.155 -0.3139  0.3297 -0.0361
  857YOPE   C4A12708   7.492   4.838   7.462  0.1750 -0.1594 -0.3059
  857YOPE   C1B12709   7.277   4.022   6.423  0.0014  0.2855  0.2315
  857YOPE   C2B12710   7.188   3.509   6.300 -0.1803 -0.1660  0.1156
  857YOPE   D3B12711   6.995   3.186   6.218 -0.0045 -0.4231  0.0228
  857YOPE   C4B12712   6.725   2.801   6.280  0.2031 -0.0587 -0.1341
  858YOPE   NH312713  18.160   5.627   5.037  0.0384  0.2934  0.1001
  858YOPE   PO412714  18.481   5.679   5.237 -0.3171 -0.0313 -0.2201
  858YOPE   GL112715  18.573   5.869   5.661 -0.0505 -0.0790 -0.0999
  858YOPE   GL212716  18.272   6.025   5.714  0.0941 -0.0698  0.1084
  858YOPE   C1A12717  18.613   5.756   6.188 -0.1355 -0.0254 -0.1179
  858YOPE   D2A12718  18.481   5.688   6.671  0.0278  0.0062  0.0323
  858YOPE   C3A12719  18.439   5.840   7.059 -0.0331  0.0015 -0.0627
  858YOPE   C4A12720  18.264   5.633   7.495 -0.2095 -0.1417  0.1668
  858YOPE   C1B12721  18.256   6.097   6.095 -0.0380  0.0553 -0.1067
  858YOPE   C2B12722  18.204   6.084   6.632 -0.0162  0.3588 -0.2417
  858YOPE   D3B12723  18.260   6.305   6.877  0.0107 -0.0061  0.2202
  858YOPE   C4B12724  18.410   6.455   7.230  0.0697  0.1545  0.0752
  859YOPE   NH312725   4.659   4.688   6.098 -0.0885  0.4058  0.0508
  859YOPE   PO412726   5.027   4.764   6.287 -0.1122  0.2951  0.0357
  859YOPE   GL112727   4.852   4.438   6.504  0.0084  0.4085 -0.4844
  859YOPE   GL212728   4.682   4.153   6.446 -0.3029 -0.1464  0.1487
  859YOPE   C1A12729   4.905   4.232   6.918 -0.1408 -0.1095  0.1990
  859YOPE   D2A12730   4.943   4.125   7.351  0.1976 -0.3129  0.0701
  859YOPE   C3A12731   5.275   3.854   7.616  0.1537 -0.1327 -0.0565
  859YOPE   C4A12732   5.114   3.338   7.573 -0.1546  0.0446  0.2161
  859YOPE   C1B12733   4.644   3.824   6.752 -0.2829 -0.2033  0.2626
  859YOPE   C2B12734   4.767   3.671   7.180 -0.2663 -0.0360  0.1703
  859YOPE   D3B12735   4.755   3.689   7.635 -0.0403 -0.2427  0.1351
  859YOPE   C4B12736   4.891   3.541   7.988 -0.2265 -0.0462  0.0408
  860YOPE   NH312737   6.792  14.766   5.330  0.0334  0.1546  0.2174
  860YOPE   PO412738   7.050  14.493   5.375 -0.1148  0.2294 -0.2629
  860YOPE   GL112739   7.086  14.701   5.760 -0.2213 -0.1057 -0.0441
  860YOPE   GL212740   6.838  14.856   5.816 -0.3258  0.0993 -0.0652
  860YOPE   C1A12741   7.311  14.524   6.153 -0.0035 -0.1372 -0.2562
  860YOPE   D2A12742   7.378  14.272   6.604  0.1510 -0.1752  0.0793
  860YOPE   C3A12743   7.212  13.873   6.675  0.0141  0.0084  0.1513
  860YOPE   C4A12744   6.838  13.711   6.526 -0.1938  0.0072  0.5452
  860YOPE   C1B12745   6.645  15.152   6.144  0.0349  0.2821 -0.1655
  860YOPE   C2B12746   6.734  15.619   6.197 -0.0568 -0.1160  0.1959
  860YOPE   D3B12747   7.064  15.927   6.475  0.1577  0.1114  0.1638
  860YOPE   C4B12748   7.324  16.297   6.521 -0.0868 -0.0798 -0.0208
  861YOPE   NH312749  12.883  12.066   4.804  0.1887 -0.1739  0.0591
  861YOPE   PO412750  12.450  12.112   5.025  0.3688 -0.0736  0.1229
  861YOPE   GL112751  12.482  11.865   5.485 -0.2663  0.2316 -0.1225
  861YOPE   GL212752  12.191  11.818   5.473  0.2382  0.1829 -0.3848
  861YOPE   C1A12753  12.497  11.394   5.530  0.0662 -0.1900  0.0528
  861YOPE   D2A12754  12.847  11.031   5.586 -0.0418  0.1179 -0.2686
  861YOPE   C3A12755  12.671  10.643   5.886 -0.0269  0.3844 -0.0042
  861YOPE   C4A12756  12.540  10.473   6.320 -0.0066  0.0472 -0.1309
  861YOPE   C1B12757  12.182  11.591   5.874 -0.2478 -0.1961 -0.2650
  861YOPE   C2B12758  12.552  11.537   6.044 -0.2535  0.0021  0.1164
  861YOPE   D3B12759  12.578  11.427   6.461 -0.5663 -0.1529  0.0446
  861YOPE   C4B12760  12.749  11.149   6.778  0.0834 -0.1745 -0.0979
  862YOPE   NH312761   0.619   3.142   5.573 -0.4527  0.0681 -0.0350
  862YOPE   PO412762   0.831   2.928   5.826 -0.0619  0.0886 -0.1727
  862YOPE   GL112763   1.095   2.651   5.976 -0.3962 -0.2490  0.0356
  862YOPE   GL212764   1.031   2.703   6.293 -0.3316  0.0811 -0.1517
  862YOPE   C1A12765   1.332   2.255   6.221 -0.4227  0.2037 -0.1922
  862YOPE   D2A12766   1.218   2.087   6.601 -0.0421 -0.0932 -0.0772
  862YOPE   C3A12767   1.470   2.249   7.015  0.0812  0.0011  0.1168
  862YOPE   C4A12768   1.361   2.588   7.361 -0.0941 -0.0881  0.1592
  862YOPE   C1B12769   0.815   2.446   6.508  0.1466 -0.1497 -0.1903
  862YOPE   C2B12770   0.534   2.164   6.658 -0.0113  0.4665  0.1024
  862YOPE   D3B12771   0.722   1.808   6.680 -0.1160 -0.0856  0.2390
  862YOPE   C4B12772   0.862   1.444   6.872 -0.1684  0.1386 -0.0391
  863YOPE   NH312773   0.451   7.924   5.850  0.4572 -0.0154 -0.4434
  863YOPE   PO412774   0.646   7.935   5.501  0.0686  0.1420 -0.2676
  863YOPE   GL112775   0.949   8.026   5.827 -0.0231 -0.3420 -0.2641
  863YOPE   GL212776   0.799   8.304   5.981  0.0807 -0.0121  0.1783
  863YOPE   C1A12777   1.079   8.016   6.254 -0.0540 -0.2530  0.2319
  863YOPE   D2A12778   1.073   8.188   6.626  0.0138  0.0926  0.0948
  863YOPE   C3A12779   1.381   8.493   6.765  0.3073 -0.0413  0.1265
  863YOPE   C4A12780   1.713   8.710   6.627  0.1017 -0.1452  0.0654
  863YOPE   C1B12781   0.856   8.554   6.374 -0.3496  0.2161  0.1623
  863YOPE   C2B12782   0.808   8.561   6.731 -0.2840  0.1206 -0.1333
  863YOPE   D3B12783   0.928   8.482   7.154  0.0731  0.1453 -0.2337
  863YOPE   C4B12784   0.944   8.508   7.549 -0.2855  0.0847  0.0616
  864YOPE   NH312785  18.965  13.818   5.750 -0.3374  0.1440  0.1994
  864YOPE   PO412786  18.531  13.715   5.676 -0.2364 -0.1332  0.0917
  864YOPE   GL112787  18.513  14.010   5.958  0.2830  0.0731 -0.1382
  864YOPE   GL212788  18.375  14.324   5.859  0.1267  0.2272 -0.1292
  864YOPE   C1A12789  18.474  13.977   6.408  0.0311 -0.1732 -0.0137
  864YOPE   D2A12790  18.481  13.588   6.586  0.1832  0.2547 -0.1283
  864YOPE   C3A12791  18.115  13.362   6.703  0.2305  0.1014 -0.0070
  864YOPE   C4A12792  17.745  13.420   6.990 -0.0050 -0.0431 -0.0543
  864YOPE   C1B12793  18.527  14.471   6.172  0.2714  0.0058 -0.1521
  864YOPE   C2B12794  18.525  14.511   6.572 -0.1754  0.1582 -0.0098
  864YOPE   D3B12795  18.325  14.304   6.797  0.1152 -0.0069 -0.0417
  864YOPE   C4B12796  18.026  14.264   7.001 -0.3313 -0.4708  0.0847
  865YOPE   NH312797   3.893   2.757   5.835  0.2051 -0.1672 -0.1611
  865YOPE   PO412798   3.681   3.166   6.009  0.2145 -0.3838 -0.4053
  865YOPE   GL112799   3.883   3.018   6.275  0.0227  0.0693  0.2235
  865YOPE   GL212800   4.154   3.250   6.366 -0.0271  0.1779  0.2755
  865YOPE   C1A12801   4.057   3.013   6.802 -0.3435 -0.1476  0.0228
  865YOPE   D2A12802   4.228   2.955   7.232  0.1116 -0.0621  0.2718
  865YOPE   C3A12803   3.967   2.701   7.484 -0.0169  0.3365  0.0680
  865YOPE   C4A12804   3.740   2.595   7.879  0.2400 -0.1839  0.1300
  865YOPE   C1B12805   4.399   3.393   6.799 -0.2126  0.1259 -0.1549
  865YOPE   C2B12806   4.293   3.460   7.329  0.2781 -0.2158  0.1033
  865YOPE   D3B12807   4.400   3.417   7.788 -0.0347  0.1618  0.0867
  865YOPE   C4B12808   4.248   3.357   8.193 -0.0169 -0.2144  0.1799
  866YOPE   NH312809   5.189  17.567   4.986  0.4496 -0.1208 -0.0956
  866YOPE   PO412810   5.530  17.506   5.218 -0.1171 -0.0923 -0.1393
  866YOPE   GL112811   5.725  17.533   5.631 -0.4167  0.0921 -0.2906
  866YOPE   GL212812   6.014  17.609   5.615 -0.3365  0.2791  0.0602
  866YOPE   C1A12813   5.885  17.456   6.079 -0.0007 -0.3411 -0.2562
  866YOPE   D2A12814   6.235  17.295   6.349 -0.1490 -0.2374  0.1784
  866YOPE   C3A12815   6.299  17.443   6.780 -0.1404  0.0246  0.1421
  866YOPE   C4A12816   6.284  17.664   7.165 -0.0633  0.0170  0.1306
  866YOPE   C1B12817   6.347  17.487   5.959  0.1412 -0.1842 -0.0141
  866YOPE   C2B12818   6.645  17.612   6.356  0.1668 -0.3286  0.4217
  866YOPE   D3B12819   6.818  17.622   6.802 -0.3020  0.0475 -0.0687
  866YOPE   C4B12820   7.268  17.599   6.919 -0.1908 -0.1102 -0.2715
  867YOPE   NH312821  15.603  17.579   4.986 -0.0679  0.1310  0.3816
  867YOPE   PO412822  15.280  17.323   5.029  0.1266  0.2843  0.1063
  867YOPE   GL112823  15.367  17.324   5.457  0.0423 -0.1581  0.1155
  867YOPE   GL212824  15.639  17.517   5.516 -0.0786  0.4391  0.1105
  867YOPE   C1A12825  15.060  17.587   5.783 -0.1802  0.2645  0.1933
  867YOPE   D2A12826  14.778  17.631   6.033 -0.2420  0.1049 -0.1302
  867YOPE   C3A12827  14.400  17.870   5.868  0.2237 -0.1675  0.3399
  867YOPE   C4A12828  14.151  18.335   5.861 -0.0267 -0.0202 -0.0838
  867YOPE   C1B12829  15.578  17.549   5.924 -0.1143 -0.0384 -0.0220
  867YOPE   C2B12830  15.311  17.745   6.193 -0.2009  0.0183 -0.1369
  867YOPE   D3B12831  15.139  17.906   6.596  0.5355 -0.2289 -0.1808
  867YOPE   C4B12832  15.072  17.974   7.037 -0.0835 -0.2073 -0.2431
  868YOPE   NH312833   5.682  13.010   5.748  0.1857  0.0742  0.0991
  868YOPE   PO412834   5.290  12.976   5.794 -0.0777  0.2679 -0.1556
  868YOPE   GL112835   5.373  12.784   6.160  0.2439  0.1363 -0.1222
  868YOPE   GL212836   5.280  13.086   6.396 -0.1970  0.1085 -0.1187
  868YOPE   C1A12837   5.123  12.592   6.664  0.2784 -0.1091  0.5297
  868YOPE   D2A12838   5.045  12.473   7.014  0.1106  0.2889 -0.0478
  868YOPE   C3A12839   5.123  12.848   7.189  0.2868 -0.1225  0.1819
  868YOPE   C4A12840   5.194  13.270   7.217  0.1198  0.2338 -0.1415
  868YOPE   C1B12841   5.088  13.090   6.727  0.0454  0.2260 -0.1017
  868YOPE   C2B12842   4.811  13.240   6.919  0.2296  0.1137  0.2092
  868YOPE   D3B12843   4.683  13.138   7.354 -0.5386 -0.2606 -0.0105
  868YOPE   C4B12844   4.422  13.122   7.707 -0.0515 -0.0734 -0.1654
  869YOPE   NH312845   5.340   7.306   5.966 -0.2957  0.0891  0.1639
  869YOPE   PO412846   5.197   7.655   6.182 -0.0840  0.1550  0.0171
  869YOPE   GL112847   5.358   7.608   6.549  0.2508 -0.0107  0.1941
  869YOPE   GL212848   5.187   7.751   6.696  0.1531 -0.1100  0.0820
  869YOPE   C1A12849   5.571   7.515   6.865 -0.2005 -0.1192  0.0453
  869YOPE   D2A12850   5.869   7.648   7.119  0.0524  0.0234 -0.2954
  869YOPE   C3A12851   6.226   7.610   7.272 -0.3576 -0.0756 -0.1435
  869YOPE   C4A12852   6.341   7.299   7.586 -0.2290  0.0618  0.0676
  869YOPE   C1B12853   5.471   8.006   6.990 -0.0955 -0.2829  0.0819
  869YOPE   C2B12854   5.871   8.184   7.187 -0.1463 -0.2120  0.0547
  869YOPE   D3B12855   6.372   8.095   7.341 -0.0224 -0.1776  0.0392
  869YOPE   C4B12856   6.827   8.076   7.491  0.0245 -0.2352 -0.1372
  870YOPE   NH312857   3.755   9.777   5.474  0.2951 -0.0470 -0.0324
  870YOPE   PO412858   3.801   9.574   5.845 -0.3171  0.1749 -0.2861
  870YOPE   GL112859   3.822   9.559   6.241 -0.0368 -0.1317 -0.0004
  870YOPE   GL212860   3.695   9.702   6.450 -0.2546 -0.2479 -0.1329
  870YOPE   C1A12861   4.016   9.223   6.453 -0.0443  0.0632  0.2578
  870YOPE   D2A12862   4.000   8.863   6.764 -0.5882  0.3585 -0.0323
  870YOPE   C3A12863   3.970   8.826   7.255 -0.3389  0.2377 -0.3077
  870YOPE   C4A12864   3.806   8.976   7.606 -0.3735  0.0512 -0.0753
  870YOPE   C1B12865   3.755  10.053   6.773 -0.1046  0.3047 -0.2259
  870YOPE   C2B12866   3.819  10.474   7.074 -0.1142 -0.2900 -0.2472
  870YOPE   D3B12867   3.778  10.794   7.451  0.0446  0.0432  0.1016
  870YOPE   C4B12868   3.511  10.936   7.725  0.6230  0.0748  0.3135
  871YOPE   NH312869   3.701  10.688   5.801 -0.0461 -0.0211 -0.0231
  871YOPE   PO412870   3.631  10.544   6.222 -0.0260 -0.1777  0.3760
  871YOPE   GL112871   3.909  10.483   6.609  0.2783  0.0639  0.0749
  871YOPE   GL212872   4.140  10.818   6.821  0.0891  0.0147 -0.0570
  871YOPE   C1A12873   4.230  10.257   6.834 -0.1642  0.1719 -0.0737
  871YOPE   D2A12874   4.117  10.019   7.115 -0.0407  0.0379  0.1261
  871YOPE   C3A12875   4.206  10.036   7.558  0.3322  0.1079 -0.0581
  871YOPE   C4A12876   4.226  10.217   7.965 -0.4848 -0.1730  0.0102
  871YOPE   C1B12877   3.997  11.126   7.163 -0.1254 -0.2194 -0.2750
  871YOPE   C2B12878   3.845  11.354   7.498  0.1237  0.1062 -0.2864
  871YOPE   D3B12879   3.600  11.655   7.453  0.1325 -0.2246  0.0414
  871YOPE   C4B12880   3.171  11.740   7.712  0.1767  0.1464  0.2478
  872YOPE   NH312881   6.291   7.343   5.490  0.0997  0.1509  0.0536
  872YOPE   PO412882   6.471   6.918   5.554 -0.1501  0.1532  0.0681
  872YOPE   GL112883   6.697   6.643   5.848 -0.2970  0.0722 -0.0208
  872YOPE   GL212884   6.533   6.462   6.235  0.1316  0.3407 -0.0428
  872YOPE   C1A12885   6.743   7.005   6.214 -0.4626 -0.2264  0.0776
  872YOPE   D2A12886   6.635   7.292   6.493 -0.0027  0.0894  0.0923
  872YOPE   C3A12887   6.626   7.347   6.980 -0.2704  0.1438  0.1299
  872YOPE   C4A12888   6.709   7.617   7.321 -0.0116 -0.2123 -0.0884
  872YOPE   C1B12889   6.661   6.458   6.727  0.1084  0.1737  0.4314
  872YOPE   C2B12890   6.771   6.082   7.062  0.1752  0.0582  0.2035
  872YOPE   D3B12891   6.731   5.965   7.543  0.3202  0.0690 -0.1675
  872YOPE   C4B12892   6.655   5.626   7.925  0.2662  0.4749 -0.0767
  873YOPE   NH312893   8.187   9.534   5.631 -0.0282  0.6283 -0.0617
  873YOPE   PO412894   8.434  10.032   5.684  0.0415 -0.0507  0.0827
  873YOPE   GL112895   8.310   9.993   6.081  0.1867  0.0731 -0.0533
  873YOPE   GL212896   8.034   9.839   6.183  0.2677  0.2446  0.0997
  873YOPE   C1A12897   8.114  10.276   6.412  0.1063  0.3692 -0.0652
  873YOPE   D2A12898   8.008  10.593   6.649  0.1826  0.0305 -0.0575
  873YOPE   C3A12899   8.345  10.601   6.988 -0.1863  0.0266  0.2226
  873YOPE   C4A12900   8.678  10.265   7.103  0.0070 -0.0100 -0.1219
  873YOPE   C1B12901   8.191   9.766   6.617 -0.1258 -0.1271 -0.1171
  873YOPE   C2B12902   7.883   9.742   7.027  0.0365 -0.3591 -0.1116
  873YOPE   D3B12903   7.844   9.584   7.299 -0.2377 -0.1702 -0.2370
  873YOPE   C4B12904   8.152   9.560   7.628  0.1453  0.0600 -0.1191
  874YOPE   NH312905   6.052   3.822   5.637 -0.0062 -0.1542  0.0287
  874YOPE   PO412906   5.696   3.644   5.492  0.0278  0.0573 -0.0505
  874YOPE   GL112907   5.655   3.264   5.689  0.3449  0.1205 -0.0199
  874YOPE   GL212908   5.691   3.304   5.941 -0.1279 -0.2998 -0.0116
  874YOPE   C1A12909   5.335   2.961   5.919 -0.2177  0.1188  0.4025
  874YOPE   D2A12910   5.040   2.674   5.977 -0.5547  0.2353  0.2789
  874YOPE   C3A12911   5.081   2.456   6.295 -0.1640 -0.5916 -0.0577
  874YOPE   C4A12912   5.529   2.191   6.299 -0.2147 -0.0405  0.1934
  874YOPE   C1B12913   5.656   3.133   6.291  0.1669 -0.1105 -0.0111
  874YOPE   C2B12914   5.667   2.955   6.791 -0.1369 -0.0263 -0.0975
  874YOPE   D3B12915   5.346   3.100   7.116 -0.1467  0.0750  0.1399
  874YOPE   C4B12916   5.255   2.810   7.493 -0.0271  0.4130 -0.0632
  875YOPE   NH312917   2.894   5.150   5.903  0.0145 -0.0459 -0.2053
  875YOPE   PO412918   2.748   4.826   6.243 -0.0912 -0.0643  0.1132
  875YOPE   GL112919   2.555   4.791   6.678 -0.2004 -0.1424  0.1233
  875YOPE   GL212920   2.342   4.630   6.581 -0.1019  0.1931 -0.1522
  875YOPE   C1A12921   2.428   4.711   7.028  0.2128 -0.0089  0.1275
  875YOPE   D2A12922   2.505   4.575   7.491  0.1682  0.2208  0.4821
  875YOPE   C3A12923   2.518   4.919   7.846 -0.0776 -0.4396 -0.0905
  875YOPE   C4A12924   2.435   5.276   8.205 -0.2215  0.3494 -0.0372
  875YOPE   C1B12925   2.686   4.328   6.726  0.0385  0.3696 -0.2437
  875YOPE   C2B12926   2.597   4.220   7.082 -0.0049 -0.0977  0.1260
  875YOPE   D3B12927   2.944   4.276   7.486 -0.2053 -0.1838  0.0027
  875YOPE   C4B12928   2.896   4.637   7.896 -0.4692  0.0165  0.1273
  876YOPE   NH312929  17.324   7.717   5.554  0.0128  0.2221 -0.1522
  876YOPE   PO412930  17.252   7.357   5.374 -0.3786 -0.0544  0.1024
  876YOPE   GL112931  17.145   7.234   5.739  0.2119  0.2361 -0.2437
  876YOPE   GL212932  16.918   7.028   5.791  0.2270  0.0918 -0.0486
  876YOPE   C1A12933  17.303   6.922   6.021 -0.0041 -0.3163  0.1598
  876YOPE   D2A12934  17.318   6.450   6.167 -0.0424 -0.3723  0.0487
  876YOPE   C3A12935  17.282   6.529   6.621 -0.2430 -0.3402 -0.2782
  876YOPE   C4A12936  17.508   6.675   6.892 -0.0374  0.0988  0.0581
  876YOPE   C1B12937  16.851   6.764   6.196  0.0500  0.2089  0.4983
  876YOPE   C2B12938  16.492   6.554   6.225 -0.0514  0.0059 -0.0675
  876YOPE   D3B12939  16.292   6.302   6.111 -0.0717 -0.0094 -0.1665
  876YOPE   C4B12940  15.899   6.327   5.884 -0.0200  0.0766 -0.1254
  877YOPE   NH312941  15.868  12.598   5.218 -0.0499 -0.0681  0.0529
  877YOPE   PO412942  15.510  12.873   5.009 -0.0867  0.1449  0.3439
  877YOPE   GL112943  15.441  12.777   5.416 -0.3632  0.0356  0.3681
  877YOPE   GL212944  15.164  12.469   5.488 -0.2794  0.1303  0.1141
  877YOPE   C1A12945  15.372  12.892   5.799  0.0983  0.4165  0.0900
  877YOPE   D2A12946  15.140  12.795   6.127 -0.0268  0.0395 -0.2262
  877YOPE   C3A12947  14.763  12.504   6.099  0.1453  0.0391 -0.0059
  877YOPE   C4A12948  14.431  12.325   6.093 -0.0015  0.0235 -0.0491
  877YOPE   C1B12949  14.806  12.295   5.617 -0.0483 -0.1067 -0.1765
  877YOPE   C2B12950  14.352  12.085   5.629  0.2580 -0.0460 -0.0540
  877YOPE   D3B12951  13.939  11.943   5.812  0.1207 -0.2070  0.0116
  877YOPE   C4B12952  13.888  11.800   6.229  0.3474  0.1707 -0.3948
  878YOPE   NH312953   1.313   3.256   5.483 -0.1068 -0.0102 -0.2049
  878YOPE   PO412954   1.701   3.313   5.491  0.2725  0.0330 -0.3548
  878YOPE   GL112955   1.571   3.560   5.901  0.0284  0.0816  0.1574
  878YOPE   GL212956   1.275   3.523   6.009 -0.1185 -0.3395  0.1085
  878YOPE   C1A12957   1.729   3.616   6.270  0.2293 -0.4196 -0.2965
  878YOPE   D2A12958   1.603   3.819   6.605 -0.0378  0.2924  0.0053
  878YOPE   C3A12959   1.553   3.657   7.092 -0.4134 -0.1026  0.0466
  878YOPE   C4A12960   1.387   3.684   7.481  0.0200 -0.0529  0.1106
  878YOPE   C1B12961   1.097   3.591   6.461  0.1365  0.1401 -0.0485
  878YOPE   C2B12962   1.094   3.673   6.846  0.0594 -0.2008  0.1232
  878YOPE   D3B12963   0.946   3.693   7.250  0.0278  0.0806 -0.1829
  878YOPE   C4B12964   0.682   3.830   7.634  0.1206  0.0098 -0.0881
  879YOPE   NH312965  12.942   7.575   4.995  0.0246 -0.1261  0.2160
  879YOPE   PO412966  13.348   7.941   5.067 -0.1399 -0.3238  0.2253
  879YOPE   GL112967  13.736   8.029   5.300 -0.2905 -0.1414 -0.1192
  879YOPE   GL212968  13.635   8.292   5.531 -0.2757 -0.0836 -0.0355
  879YOPE   C1A12969  14.048   7.984   5.649 -0.2624  0.4065 -0.1211
  879YOPE   D2A12970  14.240   7.941   6.074  0.1375  0.0061  0.0803
  879YOPE   C3A12971  14.278   8.300   6.334 -0.0692 -0.2069  0.2540
  879YOPE   C4A12972  14.549   8.626   6.594 -0.0237  0.2254 -0.1597
  879YOPE   C1B12973  13.511   8.594   5.832 -0.0381 -0.0522  0.5847
  879YOPE   C2B12974  13.352   9.100   5.772 -0.1010  0.0594  0.1462
  879YOPE   D3B12975  13.364   9.409   6.016 -0.0052 -0.0712  0.2754
  879YOPE   C4B12976  13.446   9.588   5.672  0.0070  0.1578 -0.0650
  880YOPE   NH312977  18.754   7.330   5.692  0.4241 -0.0285 -0.1074
  880YOPE   PO412978  19.184   7.375   5.656  0.1656 -0.0543  0.0440
  880YOPE   GL112979  18.908   7.446   6.149 -0.1675  0.0607  0.1560
  880YOPE   GL212980  18.688   7.216   6.166  0.0509  0.1245 -0.1854
  880YOPE   C1A12981  18.978   7.729   6.309  0.4705 -0.0996 -0.1348
  880YOPE   D2A12982  19.072   8.022   6.387  0.1266 -0.2797 -0.0187
  880YOPE   C3A12983  18.859   8.317   6.717 -0.1875  0.4270  0.3000
  880YOPE   C4A12984  18.524   8.458   6.846 -0.0280  0.0115 -0.0762
  880YOPE   C1B12985  18.696   7.287   6.569  0.0296  0.0313  0.3747
  880YOPE   C2B12986  18.842   7.590   6.760  0.0586 -0.0753  0.0308
  880YOPE   D3B12987  18.819   7.917   6.990  0.2367  0.0610 -0.1232
  880YOPE   C4B12988  18.505   7.789   7.354 -0.1483  0.0796 -0.0432
  881YOPE   NH312989   0.335  13.422   5.302  0.0941 -0.0846  0.0318
  881YOPE   PO412990   0.154  13.674   5.703  0.2056 -0.0691  0.2148
  881YOPE   GL112991   0.262  13.588   6.092 -0.1359  0.2896 -0.1734
  881YOPE   GL212992   0.344  13.815   6.161 -0.0934  0.1704 -0.0563
  881YOPE   C1A12993   0.082  13.573   6.518  0.0154  0.0775 -0.1825
  881YOPE   D2A12994   0.146  13.267   6.702 -0.1745  0.2052 -0.1681
  881YOPE   C3A12995   0.100  13.099   7.027  0.3238  0.2504  0.5278
  881YOPE   C4A12996  -0.005  12.705   7.124  0.0731 -0.2307  0.1571
  881YOPE   C1B12997   0.514  13.891   6.454 -0.0900 -0.0601 -0.3400
  881YOPE   C2B12998   0.675  13.863   6.799  0.2332 -0.0247  0.0343
  881YOPE   D3B12999   0.842  13.749   7.130 -0.0230 -0.0220  0.1509
  881YOPE   C4B13000   1.204  13.607   7.263  0.1250 -0.3898  0.2859
  882YOPE   NH313001   7.988   8.014   5.537 -0.0961  0.0944  0.0381
  882YOPE   PO413002   8.239   7.675   5.482  0.1621  0.2720 -0.2372
  882YOPE   GL113003   8.158   7.313   5.807 -0.0143 -0.2805 -0.0878
  882YOPE   GL213004   8.393   7.088   5.762 -0.2125  0.0081 -0.1714
  882YOPE   C1A13005   8.055   6.948   6.090  0.1195  0.2241 -0.1355
  882YOPE   D2A13006   8.003   6.744   6.447  0.2080 -0.1121  0.1277
  882YOPE   C3A13007   7.637   6.765   6.750 -0.2283 -0.1215  0.1119
  882YOPE   C4A13008   7.295   6.570   6.876 -0.3018  0.0471 -0.0015
  882YOPE   C1B13009   8.571   7.027   6.197  0.2019 -0.2710 -0.0549
  882YOPE   C2B13010   8.555   6.986   6.665 -0.2915  0.2943  0.0210
  882YOPE   D3B13011   8.587   7.077   7.032 -0.1107  0.2207 -0.2632
  882YOPE   C4B13012   8.264   7.199   7.433  0.1978  0.0035 -0.4173
  883YOPE   NH313013   2.455  11.928   5.984 -0.1568 -0.1696 -0.1847
  883YOPE   PO413014   2.776  11.594   5.988  0.2496  0.1377 -0.0251
  883YOPE   GL113015   3.024  11.810   6.284  0.1165  0.0360  0.1481
  883YOPE   GL213016   3.038  11.542   6.555 -0.3700 -0.1249  0.0544
  883YOPE   C1A13017   3.347  11.902   6.672 -0.2372 -0.0759 -0.1531
  883YOPE   D2A13018   3.311  11.684   6.990 -0.2312 -0.1432 -0.0609
  883YOPE   C3A13019   2.962  11.584   7.024 -0.0975 -0.0710  0.0358
  883YOPE   C4A13020   2.610  11.658   6.850 -0.2000  0.2485  0.1718
  883YOPE   C1B13021   2.641  11.328   6.527 -0.0010 -0.0134  0.0457
  883YOPE   C2B13022   2.205  11.385   6.718  0.2762  0.0428 -0.3422
  883YOPE   D3B13023   1.753  11.274   6.910 -0.4771 -0.0205 -0.1936
  883YOPE   C4B13024   1.365  11.116   7.043 -0.0826  0.1022  0.2554
  884YOPE   NH313025  15.873  13.442   4.614  0.3315 -0.0964  0.2198
  884YOPE   PO413026  16.164  13.619   4.915  0.0760 -0.0673 -0.1299
  884YOPE   GL113027  16.142  13.449   5.411  0.0181  0.2115 -0.0044
  884YOPE   GL213028  16.191  13.119   5.497  0.1522 -0.1119 -0.3242
  884YOPE   C1A13029  16.137  13.468   5.854  0.0537 -0.0569  0.0783
  884YOPE   D2A13030  16.310  13.450   6.204  0.0846  0.4464 -0.2763
  884YOPE   C3A13031  16.268  13.696   6.579 -0.2034  0.1144 -0.2519
  884YOPE   C4A13032  16.082  13.570   6.956 -0.3560  0.5301 -0.2485
  884YOPE   C1B13033  15.784  13.046   5.680 -0.2905 -0.0407  0.1340
  884YOPE   C2B13034  15.538  13.296   6.012 -0.0331 -0.3920 -0.0298
  884YOPE   D3B13035  15.158  13.254   6.302  0.4163  0.0061  0.1320
  884YOPE   C4B13036  14.977  13.467   6.640 -0.0379 -0.0508 -0.0837
  885YOPE   NH313037  10.763   7.435   4.643 -0.2211 -0.3481 -0.2990
  885YOPE   PO413038  10.727   7.148   5.007 -0.0768  0.0325  0.3030
  885YOPE   GL113039  10.630   7.077   5.338 -0.0413 -0.0987 -0.1756
  885YOPE   GL213040  10.766   6.856   5.450 -0.1393  0.1681 -0.0851
  885YOPE   C1A13041  10.599   7.243   5.842 -0.3005 -0.1768  0.1531
  885YOPE   D2A13042  10.603   7.088   6.351 -0.2019 -0.0050  0.0257
  885YOPE   C3A13043  10.437   7.006   6.777 -0.1573  0.3998  0.2935
  885YOPE   C4A13044  10.543   7.004   7.235 -0.0904 -0.1209  0.2252
  885YOPE   C1B13045  10.667   6.751   5.811 -0.0924 -0.1077  0.1195
  885YOPE   C2B13046  10.748   6.458   6.093 -0.2233 -0.1359  0.1259
  885YOPE   D3B13047  10.781   6.093   6.124 -0.2969 -0.0795  0.0775
  885YOPE   C4B13048  10.579   5.724   6.277 -0.0420 -0.0461 -0.2401
  886YOPE   NH313049  15.514   1.039   4.777 -0.1103  0.1552 -0.0478
  886YOPE   PO413050  15.819   1.069   5.084 -0.3178 -0.1690  0.0432
  886YOPE   GL113051  15.615   1.017   5.368  0.0492  0.2294  0.0071
  886YOPE   GL213052  15.719   1.360   5.557  0.0848 -0.0089 -0.0554
  886YOPE   C1A13053  15.398   1.006   5.751  0.0513  0.4609 -0.3293
  886YOPE   D2A13054  15.081   1.005   6.143 -0.2794  0.2896  0.0867
  886YOPE   C3A13055  14.861   1.249   6.089 -0.3890  0.0507 -0.3010
  886YOPE   C4A13056  14.693   1.503   6.281  0.2192  0.2092  0.1777
  886YOPE   C1B13057  15.448   1.502   5.883 -0.1797 -0.0550  0.0232
  886YOPE   C2B13058  15.493   1.855   6.115  0.1898 -0.1760 -0.0800
  886YOPE   D3B13059  15.652   1.997   6.547  0.1135 -0.3939 -0.1800
  886YOPE   C4B13060  15.472   1.825   6.833  0.0811  0.0985 -0.1059
  887YOPE   NH313061   0.865   4.009   5.611 -0.4529  0.3691  0.1885
  887YOPE   PO413062   0.842   3.584   5.709  0.0426  0.1304  0.2123
  887YOPE   GL113063   0.759   3.733   6.137  0.0291 -0.1124 -0.3537
  887YOPE   GL213064   0.822   3.988   6.148 -0.3264 -0.2213 -0.0734
  887YOPE   C1A13065   0.633   3.545   6.533 -0.0396  0.1375 -0.0296
  887YOPE   D2A13066   0.605   3.680   6.908 -0.0823  0.3743 -0.2829
  887YOPE   C3A13067   0.333   3.761   7.300 -0.0097  0.1853  0.0475
  887YOPE   C4A13068  -0.102   3.805   7.443  0.1090  0.2098 -0.2276
  887YOPE   C1B13069   0.761   4.052   6.571 -0.0852 -0.0744 -0.0528
  887YOPE   C2B13070   0.716   4.151   7.085 -0.2373  0.2481  0.1661
  887YOPE   D3B13071   0.867   4.328   7.444  0.4462 -0.2182  0.0307
  887YOPE   C4B13072   1.045   4.455   7.847 -0.3490 -0.3025 -0.0442
  888YOPE   NH313073   3.573   9.046   5.879  0.0655  0.2926 -0.0495
  888YOPE   PO413074   3.382   8.665   6.044  0.0499  0.0874 -0.2324
  888YOPE   GL113075   3.229   8.586   6.446 -0.2125 -0.0069 -0.0682
  888YOPE   GL213076   3.029   8.338   6.393  0.0266 -0.0745  0.3007
  888YOPE   C1A13077   3.071   8.937   6.754 -0.0375 -0.0702 -0.2988
  888YOPE   D2A13078   3.138   9.062   7.281  0.2954  0.0597  0.0755
  888YOPE   C3A13079   3.138   8.796   7.568  0.0138  0.2123  0.2456
  888YOPE   C4A13080   3.253   8.606   7.850 -0.1263 -0.3089  0.1294
  888YOPE   C1B13081   3.294   8.175   6.791 -0.1227 -0.1290  0.0541
  888YOPE   C2B13082   3.739   8.172   7.119  0.0920 -0.4420  0.1743
  888YOPE   D3B13083   4.129   8.288   7.322  0.0688  0.0605 -0.0100
  888YOPE   C4B13084   4.279   8.718   7.610 -0.0637 -0.1536  0.1479
  889YOPE   NH313085   5.982  17.812   5.155 -0.1001 -0.0187 -0.2482
  889YOPE   PO413086   5.661  18.078   4.984 -0.0210 -0.3819  0.1810
  889YOPE   GL113087   5.702  18.056   5.514  0.3140 -0.2186  0.0931
  889YOPE   GL213088   5.416  18.263   5.535 -0.2103 -0.3226  0.0817
  889YOPE   C1A13089   5.806  17.921   5.936 -0.1249 -0.1166 -0.0074
  889YOPE   D2A13090   5.682  17.974   6.338  0.0956 -0.1058 -0.0593
  889YOPE   C3A13091   5.917  18.103   6.712  0.1455 -0.1380  0.3482
  889YOPE   C4A13092   5.842  17.991   7.191 -0.0283  0.1401 -0.0534
  889YOPE   C1B13093   5.790  18.482   5.828 -0.2290 -0.0060 -0.2179
  889YOPE   C2B13094   5.686  18.558   6.289  0.1319  0.3176 -0.0521
  889YOPE   D3B13095   5.492  18.780   6.616  0.0369 -0.1179 -0.1961
  889YOPE   C4B13096   5.368  19.172   6.888  0.0855  0.0285  0.3836
  890YOPE   NH313097   5.712   4.165   5.389  0.2371  0.3137 -0.0779
  890YOPE   PO413098   5.281   4.049   5.439  0.0215 -0.0188 -0.0114
  890YOPE   GL113099   5.475   3.830   5.939  0.1454 -0.1879  0.1326
  890YOPE   GL213100   5.676   4.068   5.926 -0.3322  0.1730 -0.0319
  890YOPE   C1A13101   5.517   3.651   6.258  0.5022  0.0521  0.0727
  890YOPE   D2A13102   5.367   3.447   6.645 -0.0835  0.0819  0.1502
  890YOPE   C3A13103   5.282   3.697   6.901  0.0326 -0.0120  0.2071
  890YOPE   C4A13104   5.410   3.999   7.121 -0.1228 -0.1555 -0.0862
  890YOPE   C1B13105   5.802   4.042   6.312 -0.1806 -0.0678 -0.4400
  890YOPE   C2B13106   5.845   4.041   6.792  0.1574 -0.0681  0.0690
  890YOPE   D3B13107   6.002   4.049   7.227 -0.1968  0.0136 -0.2063
  890YOPE   C4B13108   6.453   4.017   7.460 -0.0331  0.2617 -0.0363
  891YOPE   NH313109  17.894   9.230   5.188  0.3301  0.0267  0.1777
  891YOPE   PO413110  17.957   8.934   5.467  0.0568  0.2401  0.0642
  891YOPE   GL113111  17.804   8.671   5.748 -0.0770  0.0661 -0.0771
  891YOPE   GL213112  17.762   8.953   6.011  0.1219  0.2914 -0.3617
  891YOPE   C1A13113  17.567   8.436   6.005  0.2043  0.1123  0.3251
  891YOPE   D2A13114  17.449   8.518   6.414 -0.1169 -0.2148  0.0243
  891YOPE   C3A13115  17.327   8.111   6.647  0.1241 -0.0431  0.0378
  891YOPE   C4A13116  16.934   7.999   6.719 -0.0481  0.3015 -0.0426
  891YOPE   C1B13117  17.836   8.868   6.506 -0.1113  0.0467  0.2736
  891YOPE   C2B13118  17.803   9.010   6.919  0.0193 -0.1390  0.0026
  891YOPE   D3B13119  18.046   9.207   7.220  0.5558  0.0069 -0.3894
  891YOPE   C4B13120  18.421   9.157   7.507  0.4506  0.1720 -0.0033
  892YOPE   NH313121   7.042   9.830   5.788  0.2414 -0.0826  0.0963
  892YOPE   PO413122   6.956  10.197   5.910 -0.0061 -0.2801  0.0215
  892YOPE   GL113123   6.938  10.094   6.232 -0.0916  0.0654 -0.2622
  892YOPE   GL213124   6.773   9.755   6.240 -0.2780  0.1150  0.1262
  892YOPE   C1A13125   7.124  10.122   6.551  0.3108 -0.0696 -0.2496
  892YOPE   D2A13126   7.132  10.175   7.026 -0.0516 -0.1503  0.0800
  892YOPE   C3A13127   6.857   9.930   7.175 -0.3632  0.0243 -0.1355
  892YOPE   C4A13128   6.974   9.414   7.328 -0.1156 -0.2402  0.5609
  892YOPE   C1B13129   6.593   9.929   6.574  0.0422  0.0726 -0.3269
  892YOPE   C2B13130   6.282  10.175   6.849 -0.0295 -0.0093  0.5535
  892YOPE   D3B13131   6.428  10.362   7.287  0.1505 -0.3142 -0.0283
  892YOPE   C4B13132   6.580  10.032   7.750  0.2731  0.1438  0.2239
  893YOPE   NH313133   7.748   8.739   5.629  0.1632  0.0506 -0.2315
  893YOPE   PO413134   8.128   8.595   5.758 -0.0846  0.4083  0.0666
  893YOPE   GL113135   8.333   8.660   6.122 -0.5352  0.2069 -0.2031
  893YOPE   GL213136   8.606   8.560   5.994 -0.2231  0.2655  0.1022
  893YOPE   C1A13137   8.261   8.769   6.524 -0.0173 -0.1897  0.1331
  893YOPE   D2A13138   8.280   8.836   6.956 -0.1389 -0.0666 -0.1064
  893YOPE   C3A13139   8.127   8.609   7.377  0.0032 -0.2100 -0.0032
  893YOPE   C4A13140   8.181   8.587   7.736 -0.1755  0.0156 -0.1439
  893YOPE   C1B13141   8.720   8.463   6.426 -0.1466 -0.1144 -0.2862
  893YOPE   C2B13142   8.696   8.456   6.755 -0.0429  0.0011 -0.0578
  893YOPE   D3B13143   8.636   8.426   7.235  0.1892  0.0750  0.0762
  893YOPE   C4B13144   8.687   8.655   7.560 -0.1653 -0.0526  0.0537
  894YOPE   NH313145   5.030   7.921   5.701 -0.0358  0.5878  0.0504
  894YOPE   PO413146   4.969   8.329   5.872 -0.1403 -0.1598 -0.0261
  894YOPE   GL113147   5.002   8.211   6.350 -0.4578  0.1236  0.2908
  894YOPE   GL213148   4.770   8.185   6.519 -0.1175 -0.2819 -0.3694
  894YOPE   C1A13149   5.172   8.328   6.742 -0.2260  0.3841 -0.2417
  894YOPE   D2A13150   5.485   8.581   6.930  0.2157 -0.1034  0.0911
  894YOPE   C3A13151   5.430   8.499   7.376  0.3127 -0.1957  0.1225
  894YOPE   C4A13152   5.429   8.426   7.817 -0.1902  0.2120 -0.0452
  894YOPE   C1B13153   4.727   7.786   6.626  0.0058  0.1384 -0.2583
  894YOPE   C2B13154   4.824   7.392   6.684  0.0143  0.1103 -0.0797
  894YOPE   D3B13155   4.608   7.369   7.028 -0.1001 -0.4053 -0.0439
  894YOPE   C4B13156   4.301   7.067   7.129 -0.0651 -0.0598  0.0466
  895YOPE   NH313157  17.044  18.324   5.315 -0.0905  0.0289  0.1735
  895YOPE   PO413158  17.266  17.939   5.138  0.2030 -0.3712  0.0520
  895YOPE   GL113159  17.224  17.653   5.490 -0.0539 -0.0010 -0.0502
  895YOPE   GL213160  17.483  17.567   5.611  0.1039  0.1318 -0.3112
  895YOPE   C1A13161  17.066  17.478   5.871  0.1721  0.3931 -0.0903
  895YOPE   D2A13162  17.158  17.187   6.161  0.1391 -0.1706  0.0330
  895YOPE   C3A13163  17.497  17.271   6.261  0.4030  0.0335 -0.1620
  895YOPE   C4A13164  17.758  17.110   6.448  0.0931  0.0646  0.0616
  895YOPE   C1B13165  17.485  17.747   6.021 -0.0161  0.3039 -0.0299
  895YOPE   C2B13166  17.638  18.109   6.185  0.1428 -0.1882  0.2584
  895YOPE   D3B13167  17.768  18.460   6.483 -0.0422  0.0019 -0.1173
  895YOPE   C4B13168  17.923  18.249   6.879 -0.1386  0.2967  0.2159
  896YOPE   NH313169  11.007  14.108   5.208 -0.2386 -0.4365 -0.0104
  896YOPE   PO413170  11.248  13.905   5.180 -0.1739  0.0847  0.1376
  896YOPE   GL113171  11.040  13.685   5.436  0.0415  0.0240  0.0289
  896YOPE   GL213172  11.179  13.367   5.632  0.0778  0.1414 -0.1070
  896YOPE   C1A13173  11.144  13.845   5.935 -0.3684 -0.2815  0.3575
  896YOPE   D2A13174  11.398  13.755   6.256  0.1780 -0.1789  0.0421
  896YOPE   C3A13175  11.561  13.979   6.631  0.0360 -0.0116  0.0648
  896YOPE   C4A13176  11.660  14.131   6.997  0.0821  0.2547  0.0502
  896YOPE   C1B13177  11.339  13.302   5.983  0.1090  0.1178 -0.2387
  896YOPE   C2B13178  11.702  13.098   6.055 -0.1728 -0.1886 -0.0263
  896YOPE   D3B13179  12.158  12.982   6.096 -0.2374 -0.2108 -0.3836
  896YOPE   C4B13180  12.346  12.618   6.156  0.0656 -0.1200  0.0204
  897YOPE   NH313181   4.481  14.724   5.888  0.4946  0.3973 -0.0986
  897YOPE   PO413182   4.253  15.150   5.911 -0.1853  0.2903  0.0325
  897YOPE   GL113183   3.936  14.967   6.016  0.4997 -0.2646  0.2129
  897YOPE   GL213184   3.951  14.511   6.079  0.1885  0.0516 -0.0448
  897YOPE   C1A13185   3.658  15.219   6.295 -0.0760 -0.2018  0.0590
  897YOPE   D2A13186   3.880  15.607   6.422  0.2115 -0.0286 -0.0668
  897YOPE   C3A13187   3.984  15.763   6.876  0.2693 -0.0951  0.0920
  897YOPE   C4A13188   4.018  15.883   7.277  0.3814  0.1242 -0.1399
  897YOPE   C1B13189   3.654  14.535   6.347  0.0902 -0.2951  0.2519
  897YOPE   C2B13190   3.643  14.425   6.753 -0.2221 -0.1232  0.2475
  897YOPE   D3B13191   3.467  14.363   7.114  0.0445  0.0039  0.2119
  897YOPE   C4B13192   3.070  14.202   7.158  0.2785 -0.1278 -0.0672
  898YOPE   NH313193  19.240  12.265   5.611  0.0278  0.3262 -0.1802
  898YOPE   PO413194  19.689  12.506   5.584 -0.0655  0.0867 -0.3479
  898YOPE   GL113195  19.567  12.471   5.906  0.0260  0.1869  0.0488
  898YOPE   GL213196  19.812  12.710   6.013  0.1332  0.1161  0.0109
  898YOPE   C1A13197  19.458  12.190   6.251  0.2183 -0.3464  0.1283
  898YOPE   D2A13198  19.064  12.071   6.424  0.0287 -0.3464  0.2874
  898YOPE   C3A13199  19.167  11.924   6.825  0.0178  0.0005 -0.0305
  898YOPE   C4A13200  19.083  11.729   7.142 -0.0103  0.2912 -0.0234
  898YOPE   C1B13201  19.510  12.736   6.431 -0.0652 -0.1371  0.1368
  898YOPE   C2B13202  19.165  12.859   6.589  0.0853  0.1153 -0.3753
  898YOPE   D3B13203  18.968  12.963   6.941 -0.2869 -0.3392 -0.0023
  898YOPE   C4B13204  18.540  13.235   6.982 -0.3748 -0.2222  0.1911
  899YOPE   NH313205   5.703  11.070   5.674  0.1347 -0.2457 -0.3897
  899YOPE   PO413206   5.933  10.739   5.830 -0.1385  0.0669 -0.2067
  899YOPE   GL113207   5.927  11.052   6.164  0.0339  0.0871  0.2478
  899YOPE   GL213208   6.206  11.232   6.262 -0.2513  0.2096  0.2347
  899YOPE   C1A13209   5.726  11.372   6.378 -0.1443  0.2188 -0.2522
  899YOPE   D2A13210   5.376  11.702   6.392  0.0867 -0.0049 -0.2216
  899YOPE   C3A13211   5.543  11.968   6.672 -0.0428 -0.0587 -0.1359
  899YOPE   C4A13212   5.743  12.028   7.101 -0.1102  0.2230 -0.2315
  899YOPE   C1B13213   6.028  11.085   6.694 -0.1454 -0.1308  0.1034
  899YOPE   C2B13214   6.059  11.240   7.005  0.0291 -0.1782  0.1717
  899YOPE   D3B13215   6.234  11.505   7.411 -0.1514 -0.0678  0.3555
  899YOPE   C4B13216   5.889  11.601   7.797  0.0935  0.3474 -0.1656
  900YOPE   NH313217  16.649   8.356   5.142 -0.0919  0.3459  0.0642
  900YOPE   PO413218  16.565   7.931   5.167 -0.0253  0.0380  0.1528
  900YOPE   GL113219  16.418   7.738   5.511  0.2941 -0.2176 -0.2792
  900YOPE   GL213220  16.198   7.729   5.863 -0.0923 -0.2945 -0.2753
  900YOPE   C1A13221  16.358   7.302   5.775 -0.0113 -0.2737  0.0959
  900YOPE   D2A13222  16.487   7.058   6.110 -0.0186  0.0681 -0.0336
  900YOPE   C3A13223  16.806   7.131   6.444  0.0361 -0.0132 -0.0390
  900YOPE   C4A13224  16.735   6.916   6.853  0.1538 -0.0018 -0.0058
  900YOPE   C1B13225  16.383   7.961   6.054  0.0837 -0.1418 -0.0996
  900YOPE   C2B13226  16.369   8.061   6.529  0.0480 -0.1381 -0.3342
  900YOPE   D3B13227  16.444   8.044   6.930 -0.0187 -0.2511  0.2455
  900YOPE   C4B13228  16.630   7.814   7.256 -0.1395  0.2376  0.1103
  901YOPE   NH313229  13.463  10.309   4.786 -0.2988 -0.0021  0.0586
  901YOPE   PO413230  13.586  10.732   4.860 -0.0426 -0.1739  0.2982
  901YOPE   GL113231  13.676  10.930   5.111 -0.0653  0.0037 -0.1873
  901YOPE   GL213232  13.530  11.220   5.255  0.1921  0.3075 -0.0639
  901YOPE   C1A13233  13.859  11.015   5.519  0.1485 -0.2586 -0.1079
  901YOPE   D2A13234  14.146  11.093   5.923 -0.1476 -0.5185  0.2195
  901YOPE   C3A13235  14.620  11.284   5.872 -0.3422 -0.2871 -0.0712
  901YOPE   C4A13236  15.132  11.227   5.796 -0.1648  0.0411  0.0997
  901YOPE   C1B13237  13.244  11.275   5.558 -0.1146  0.0181 -0.3346
  901YOPE   C2B13238  13.065  11.429   5.905 -0.3050  0.0280  0.0208
  901YOPE   D3B13239  12.847  11.160   6.117 -0.1188 -0.1432  0.0999
  901YOPE   C4B13240  12.449  11.080   5.877  0.1911 -0.0567  0.0568
  902YOPE   NH313241   2.563  16.810   5.314  0.0929 -0.6047  0.0801
  902YOPE   PO413242   2.584  16.301   5.377  0.0895  0.1687 -0.1231
  902YOPE   GL113243   2.523  16.598   5.742  0.2827 -0.2273 -0.0039
  902YOPE   GL213244   2.168  16.633   5.587 -0.4861 -0.1250 -0.1962
  902YOPE   C1A13245   2.666  16.912   5.984 -0.3515 -0.1520 -0.0555
  902YOPE   D2A13246   2.827  16.931   6.406  0.2872  0.2851  0.2639
  902YOPE   C3A13247   2.784  16.626   6.720 -0.1667 -0.0344 -0.1419
  902YOPE   C4A13248   2.609  16.416   7.140  0.2725  0.1960  0.2397
  902YOPE   C1B13249   2.234  16.767   6.112  0.1208 -0.4413  0.0717
  902YOPE   C2B13250   1.943  16.973   6.403 -0.1773 -0.2485 -0.3632
  902YOPE   D3B13251   1.902  17.180   6.732 -0.0346 -0.0140 -0.0215
  902YOPE   C4B13252   1.944  17.495   6.910  0.0131 -0.0543  0.2047
  903YOPE   NH313253  17.505   4.373   4.604  0.2566  0.0862 -0.2836
  903YOPE   PO413254  17.465   4.734   4.967 -0.3767 -0.0745  0.0598
  903YOPE   GL113255  17.186   4.746   5.387  0.1454 -0.1002  0.2587
  903YOPE   GL213256  17.261   4.802   5.664 -0.0177 -0.1298 -0.0681
  903YOPE   C1A13257  16.824   4.565   5.546  0.3434 -0.1140 -0.1813
  903YOPE   D2A13258  16.577   4.422   5.767 -0.1820  0.0896  0.1763
  903YOPE   C3A13259  16.359   4.471   6.146  0.1096 -0.3378  0.1924
  903YOPE   C4A13260  16.265   4.607   6.585 -0.1335  0.0803 -0.0926
  903YOPE   C1B13261  16.987   4.706   6.055 -0.1670 -0.1674 -0.0576
  903YOPE   C2B13262  16.762   4.793   6.438  0.2208 -0.0560 -0.4005
  903YOPE   D3B13263  16.735   4.750   6.866 -0.1534  0.2982  0.1915
  903YOPE   C4B13264  16.913   5.099   7.127 -0.1958 -0.0142  0.2805
  904YOPE   NH313265   1.488  18.608   4.785  0.3399 -0.4549  0.0926
  904YOPE   PO413266   1.200  18.638   5.115 -0.0772 -0.0357 -0.1396
  904YOPE   GL113267   1.366  18.372   5.500  0.0143  0.1193  0.2731
  904YOPE   GL213268   1.121  18.284   5.669  0.0748  0.0432 -0.2379
  904YOPE   C1A13269   1.580  18.504   5.931 -0.1527  0.1535  0.3061
  904YOPE   D2A13270   1.979  18.272   6.074 -0.1720 -0.1842 -0.2540
  904YOPE   C3A13271   2.207  18.044   6.384 -0.0893  0.1079  0.0215
  904YOPE   C4A13272   1.966  17.952   6.751  0.1376  0.6271 -0.1763
  904YOPE   C1B13273   0.901  18.402   6.028  0.2604 -0.0313 -0.0998
  904YOPE   C2B13274   1.099  18.325   6.414 -0.1828  0.5065 -0.0251
  904YOPE   D3B13275   1.180  18.047   6.726  0.2198  0.3684  0.1944
  904YOPE   C4B13276   1.539  17.913   6.998 -0.4371  0.0481  0.0962
  905YOPE   NH313277  17.823  11.061   5.486  0.0225 -0.0807 -0.1331
  905YOPE   PO413278  18.316  11.333   5.572  0.3699  0.1280  0.4605
  905YOPE   GL113279  18.442  11.097   5.920  0.0456 -0.1883  0.0579
  905YOPE   GL213280  18.536  10.699   6.047  0.0456  0.1331 -0.2671
  905YOPE   C1A13281  18.491  11.136   6.386 -0.2708  0.0506 -0.0799
  905YOPE   D2A13282  18.463  11.082   6.793 -0.2527  0.1137 -0.0961
  905YOPE   C3A13283  18.727  11.153   7.096  0.0256  0.0286  0.0223
  905YOPE   C4A13284  18.848  10.885   7.385 -0.2839  0.0919 -0.0565
  905YOPE   C1B13285  18.567  10.505   6.499 -0.0910  0.0176 -0.1705
  905YOPE   C2B13286  18.504  10.266   6.787 -0.1381  0.0566 -0.2830
  905YOPE   D3B13287  18.247  10.181   7.071  0.0406  0.1330 -0.0248
  905YOPE   C4B13288  17.876  10.167   6.915  0.2742 -0.0232 -0.2413
  906YOPE   NH313289   7.741   0.368   5.407  0.1606  0.2827 -0.2449
  906YOPE   PO413290   8.222   0.298   5.219 -0.2692  0.1996  0.1378
  906YOPE   GL113291   8.364   0.336   5.616 -0.3258  0.1052  0.0235
  906YOPE   GL213292   8.732   0.249   5.631 -0.0800 -0.0972  0.4507
  906YOPE   C1A13293   8.364   0.600   5.937  0.2847 -0.2633  0.2816
  906YOPE   D2A13294   8.547   0.910   6.239 -0.0058 -0.1394 -0.0885
  906YOPE   C3A13295   8.290   0.990   6.656 -0.0818  0.2062 -0.2729
  906YOPE   C4A13296   8.117   1.223   7.004  0.2073 -0.3260  0.0096
  906YOPE   C1B13297   8.830   0.500   5.917 -0.2080  0.2395 -0.3185
  906YOPE   C2B13298   9.042   0.461   6.297 -0.5291  0.0424 -0.1628
  906YOPE   D3B13299   9.246   0.214   6.606 -0.1525 -0.2146 -0.1692
  906YOPE   C4B13300   9.446  -0.157   6.645 -0.3749 -0.0606  0.3292
  907YOPE   NH313301  15.522   9.336   5.492  0.0728 -0.0398 -0.0318
  907YOPE   PO413302  15.654   9.872   5.580  0.1158 -0.2008  0.0224
  907YOPE   GL113303  15.753   9.625   5.857 -0.1748 -0.0483 -0.1418
  907YOPE   GL213304  15.482   9.656   6.037 -0.2079 -0.3678  0.0239
  907YOPE   C1A13305  15.802   9.239   6.064 -0.3072 -0.4972  0.2360
  907YOPE   D2A13306  15.734   8.857   5.979  0.0160  0.0763  0.2018
  907YOPE   C3A13307  15.731   8.502   6.152 -0.1262  0.0178 -0.2750
  907YOPE   C4A13308  15.906   8.175   6.104  0.1610 -0.0524  0.0970
  907YOPE   C1B13309  15.177   9.457   6.148 -0.0504  0.4547  0.0619
  907YOPE   C2B13310  14.890   9.438   6.384 -0.0960 -0.1485 -0.0705
  907YOPE   D3B13311  14.700   9.468   6.683  0.0108  0.1593 -0.0006
  907YOPE   C4B13312  14.564   9.169   6.966  0.0800 -0.1915 -0.3417
  908YOPE   NH313313  14.479   5.385   4.689 -0.2020 -0.2101 -0.0529
  908YOPE   PO413314  14.452   5.200   5.157 -0.0936  0.2539  0.0492
  908YOPE   GL113315  14.479   5.456   5.442 -0.0722 -0.0073  0.1009
  908YOPE   GL213316  14.642   5.505   5.762 -0.1538  0.1933 -0.1492
  908YOPE   C1A13317  14.205   5.670   5.933 -0.4067  0.4667  0.1254
  908YOPE   D2A13318  13.744   5.697   5.977 -0.5084 -0.1068 -0.0971
  908YOPE   C3A13319  13.512   5.842   5.562 -0.2080  0.0276  0.2032
  908YOPE   C4A13320  13.069   5.947   5.402 -0.0985 -0.2137 -0.1169
  908YOPE   C1B13321  14.601   5.219   6.098  0.1974 -0.1262  0.0634
  908YOPE   C2B13322  14.725   4.978   6.396  0.0572  0.1266  0.0147
  908YOPE   D3B13323  14.904   4.916   6.763 -0.0152  0.0960  0.0588
  908YOPE   C4B13324  15.226   4.811   6.997 -0.2967  0.0624  0.0212
  909YOPE   NH313325  12.225   5.329   5.062  0.0608  0.1012 -0.0312
  909YOPE   PO413326  12.230   5.718   4.762 -0.0355  0.0681  0.1070
  909YOPE   GL113327  12.236   5.944   5.095 -0.2522 -0.2004 -0.0562
  909YOPE   GL213328  12.537   5.841   5.235 -0.2071  0.4820  0.0201
  909YOPE   C1A13329  12.426   6.336   5.214 -0.2442 -0.2854  0.0664
  909YOPE   D2A13330  12.589   6.501   5.673  0.2233  0.0270 -0.1952
  909YOPE   C3A13331  13.022   6.234   5.877  0.0469  0.3812  0.0123
  909YOPE   C4A13332  13.445   6.102   6.023  0.1316  0.0122 -0.2977
  909YOPE   C1B13333  12.705   5.837   5.687  0.1520  0.0680  0.1505
  909YOPE   C2B13334  12.864   5.807   6.142 -0.3136  0.1247  0.0347
  909YOPE   D3B13335  13.142   6.012   6.391 -0.2901 -0.2542 -0.1654
  909YOPE   C4B13336  13.226   5.806   6.846 -0.2384 -0.1511  0.3168
  910YOPE   NH313337  11.782  15.144   4.965  0.0474 -0.1960 -0.1138
  910YOPE   PO413338  11.463  15.071   5.299  0.1180 -0.1157  0.2093
  910YOPE   GL113339  11.137  15.047   5.549 -0.5099  0.1092  0.3543
  910YOPE   GL213340  11.006  14.780   5.490  0.1332 -0.0769  0.2194
  910YOPE   C1A13341  11.245  14.950   5.963  0.1021 -0.0919 -0.0192
  910YOPE   D2A13342  11.442  14.731   6.229  0.1424 -0.0944 -0.0745
  910YOPE   C3A13343  11.216  14.758   6.676 -0.3184 -0.2971  0.0003
  910YOPE   C4A13344  11.319  14.924   7.085 -0.1554 -0.0972 -0.0746
  910YOPE   C1B13345  11.102  14.400   5.871  0.1923 -0.0728  0.0997
  910YOPE   C2B13346  11.305  14.264   6.324  0.1709  0.3182 -0.0898
  910YOPE   D3B13347  11.668  14.433   6.610 -0.0181  0.0445  0.2198
  910YOPE   C4B13348  12.024  14.518   6.924  0.2198  0.0653 -0.4111
  911YOPE   NH313349  19.344  13.253   6.006 -0.1711 -0.0713  0.5269
  911YOPE   PO413350  19.104  13.344   5.579 -0.0410  0.1080 -0.2537
  911YOPE   GL113351  18.826  13.344   5.945 -0.0157  0.2946 -0.2013
  911YOPE   GL213352  18.753  13.595   6.159  0.0661  0.3203  0.1527
  911YOPE   C1A13353  18.468  13.171   6.297 -0.0604  0.1141  0.3697
  911YOPE   D2A13354  18.532  12.901   6.513  0.0796  0.1515 -0.2956
  911YOPE   C3A13355  18.197  12.876   6.748  0.1425  0.0041 -0.2623
  911YOPE   C4A13356  18.120  12.970   7.125  0.3881 -0.0691 -0.0716
  911YOPE   C1B13357  18.915  13.325   6.477  0.0850 -0.1116 -0.1587
  911YOPE   C2B13358  19.082  13.443   6.880  0.2503 -0.2402 -0.0754
  911YOPE   D3B13359  19.180  13.395   7.237  0.0338 -0.1940  0.2274
  911YOPE   C4B13360  18.962  13.147   7.537 -0.3403 -0.1369  0.0826
  912YOPE   NH313361   2.523   2.010   5.634  0.1504 -0.4022 -0.2105
  912YOPE   PO413362   2.457   1.567   5.547 -0.1156 -0.0498  0.4132
  912YOPE   GL113363   2.653   1.231   5.721 -0.1253  0.3171  0.1006
  912YOPE   GL213364   2.709   0.850   5.744  0.2416  0.1741 -0.0257
  912YOPE   C1A13365   2.889   1.160   6.192 -0.3283  0.1699 -0.1500
  912YOPE   D2A13366   3.106   1.004   6.547  0.1320 -0.3730 -0.0949
  912YOPE   C3A13367   3.199   1.153   7.064 -0.1562  0.0277 -0.1478
  912YOPE   C4A13368   3.585   1.072   7.397  0.3070  0.2841  0.3749
  912YOPE   C1B13369   2.654   0.719   6.066  0.0605  0.0476 -0.2965
  912YOPE   C2B13370   2.676   0.672   6.548  0.2439 -0.2001  0.3193
  912YOPE   D3B13371   2.482   0.447   6.954 -0.0896 -0.1420 -0.0575
  912YOPE   C4B13372   2.329   0.314   7.314 -0.2029  0.0684 -0.3565
  913YOPE   NH313373  10.281  15.046   5.137 -0.2049  0.2020 -0.2356
  913YOPE   PO413374  10.531  15.387   5.113  0.0538 -0.1456  0.1847
  913YOPE   GL113375  10.646  15.209   5.490 -0.2669 -0.0947 -0.2659
  913YOPE   GL213376  10.486  14.927   5.581  0.0708 -0.0075  0.1992
  913YOPE   C1A13377  10.741  15.343   5.843  0.0664  0.0209 -0.0428
  913YOPE   D2A13378  10.601  15.611   6.159 -0.1544 -0.0531  0.1711
  913YOPE   C3A13379  10.541  15.475   6.632 -0.0948  0.1630 -0.0159
  913YOPE   C4A13380  10.441  15.340   6.999  0.1166  0.1244  0.2805
  913YOPE   C1B13381  10.725  14.828   5.912 -0.2265 -0.0998  0.1120
  913YOPE   C2B13382  10.732  14.645   6.366  0.1811  0.1291 -0.0778
  913YOPE   D3B13383  10.901  14.359   6.630  0.1562 -0.1338  0.1088
  913YOPE   C4B13384  11.225  14.284   6.871  0.3113 -0.1850  0.0487
  914YOPE   NH313385  18.460  14.135   5.402 -0.4002 -0.0305  0.3606
  914YOPE   PO413386  18.544  14.567   5.477 -0.2632  0.1794  0.0704
  914YOPE   GL113387  18.820  14.822   5.672 -0.0577 -0.0325 -0.1161
  914YOPE   GL213388  18.539  15.061   5.705  0.1330  0.1410 -0.1397
  914YOPE   C1A13389  18.869  14.975   6.136  0.1478 -0.1631 -0.3064
  914YOPE   D2A13390  19.165  15.110   6.421 -0.0081  0.4027 -0.1645
  914YOPE   C3A13391  19.491  15.067   6.608 -0.1412  0.2809 -0.1698
  914YOPE   C4A13392  19.879  15.258   6.549 -0.3371 -0.1103  0.0100
  914YOPE   C1B13393  18.438  15.234   6.083  0.0633  0.0966 -0.2390
  914YOPE   C2B13394  18.079  15.244   6.338 -0.2939  0.1002 -0.0312
  914YOPE   D3B13395  17.708  15.197   6.632  0.0930  0.0253 -0.0398
  914YOPE   C4B13396  17.398  15.056   6.795 -0.0785 -0.1363 -0.1192
  915YOPE   NH313397  18.863   4.705   5.497 -0.2822 -0.0191 -0.0364
  915YOPE   PO413398  18.441   4.920   5.518  0.3043  0.3103 -0.0471
  915YOPE   GL113399  18.175   4.972   5.852 -0.1649  0.2603  0.1423
  915YOPE   GL213400  17.820   5.180   5.687 -0.1364  0.0346 -0.0998
  915YOPE   C1A13401  18.095   4.940   6.295  0.2063 -0.0204 -0.1435
  915YOPE   D2A13402  17.769   4.844   6.648  0.1733 -0.1330  0.0195
  915YOPE   C3A13403  17.991   5.049   7.054  0.1738 -0.0047  0.0149
  915YOPE   C4A13404  17.762   5.275   7.419 -0.0826 -0.2452 -0.0860
  915YOPE   C1B13405  17.674   4.967   6.094  0.0844  0.0385  0.2210
  915YOPE   C2B13406  17.399   4.828   6.328 -0.1049  0.1035  0.2624
  915YOPE   D3B13407  17.235   4.648   6.678  0.2136  0.2361 -0.3491
  915YOPE   C4B13408  17.115   4.262   6.791 -0.1292 -0.3038 -0.0586
  916YOPE   NH313409  11.367  10.908   4.918 -0.0432 -0.3430 -0.3216
  916YOPE   PO413410  11.004  11.237   4.803  0.0617 -0.1545  0.0891
  916YOPE   GL113411  11.083  11.095   5.290 -0.1112 -0.1547 -0.2779
  916YOPE   GL213412  11.314  10.814   5.452 -0.1553  0.2517 -0.2363
  916YOPE   C1A13413  11.261  11.379   5.554 -0.0404  0.1338 -0.0520
  916YOPE   D2A13414  11.213  11.598   5.883 -0.4530 -0.1890 -0.1198
  916YOPE   C3A13415  11.527  11.440   6.222 -0.0829  0.2820  0.0549
  916YOPE   C4A13416  11.975  11.501   6.373  0.1039  0.2441 -0.0025
  916YOPE   C1B13417  11.301  10.994   5.939  0.2425  0.0906  0.0927
  916YOPE   C2B13418  11.336  11.025   6.416  0.2775 -0.3957  0.1633
  916YOPE   D3B13419  11.394  10.847   6.763 -0.0140  0.0073  0.3342
  916YOPE   C4B13420  11.543  11.096   7.022 -0.3214  0.1427 -0.1889
  917YOPE   NH313421  16.578  13.474   5.111  0.3301 -0.2117 -0.4435
  917YOPE   PO413422  16.993  13.359   5.104 -0.0888 -0.0006 -0.1830
  917YOPE   GL113423  17.288  13.551   5.296  0.5080  0.2111  0.2223
  917YOPE   GL213424  17.521  13.683   5.592  0.3315 -0.0942 -0.0433
  917YOPE   C1A13425  17.213  13.363   5.739  0.0018  0.0449  0.2897
  917YOPE   D2A13426  16.791  13.256   6.047 -0.3579 -0.0161 -0.1479
  917YOPE   C3A13427  16.579  12.993   5.790 -0.0021  0.2006  0.0681
  917YOPE   C4A13428  16.202  12.901   5.985  0.1301  0.2540 -0.2468
  917YOPE   C1B13429  17.670  13.967   6.029 -0.0898 -0.0961 -0.0776
  917YOPE   C2B13430  17.547  14.373   6.302  0.0590  0.0342 -0.0427
  917YOPE   D3B13431  17.497  14.777   6.386 -0.1594  0.1797  0.1053
  917YOPE   C4B13432  17.647  15.064   6.129  0.3712  0.0310 -0.0102
  918YOPE   NH313433   7.809   0.770   5.076  0.0713 -0.1268 -0.1333
  918YOPE   PO413434   7.890   1.302   5.106 -0.2254  0.1689  0.1713
  918YOPE   GL113435   7.948   1.252   5.569  0.3433  0.1921 -0.0586
  918YOPE   GL213436   7.754   1.124   5.908  0.1682  0.0152 -0.0384
  918YOPE   C1A13437   8.318   1.168   5.742 -0.2662 -0.0000  0.0790
  918YOPE   D2A13438   8.687   0.975   5.796 -0.1031  0.1958 -0.0634
  918YOPE   C3A13439   9.039   0.953   5.989  0.1878 -0.3175  0.0988
  918YOPE   C4A13440   9.343   1.219   5.950 -0.0158  0.3950 -0.1671
  918YOPE   C1B13441   8.001   0.873   6.237 -0.0311 -0.0597 -0.1333
  918YOPE   C2B13442   8.044   0.495   6.547 -0.1010 -0.1609 -0.2695
  918YOPE   D3B13443   8.169   0.067   6.757  0.1702 -0.1589  0.0772
  918YOPE   C4B13444   8.275   0.022   7.111 -0.1758 -0.0758  0.1511
  919YOPE   NH313445   9.404  17.511   4.931  0.0720  0.2874  0.1168
  919YOPE   PO413446   9.787  17.685   5.086  0.2878  0.4274  0.1435
  919YOPE   GL113447   9.941  17.667   5.459 -0.1078  0.1596 -0.1204
  919YOPE   GL213448   9.867  18.075   5.433 -0.0398  0.2457 -0.2635
  919YOPE   C1A13449   9.866  17.614   5.834 -0.0427  0.0012 -0.1466
  919YOPE   D2A13450   9.690  17.818   6.099  0.1687 -0.0174 -0.2246
  919YOPE   C3A13451   9.660  17.925   6.478 -0.2861 -0.0885 -0.1168
  919YOPE   C4A13452  10.030  17.890   6.792  0.2149  0.0310 -0.1081
  919YOPE   C1B13453  10.137  18.102   5.789  0.3821 -0.3028 -0.0447
  919YOPE   C2B13454  10.319  18.454   6.052 -0.2055 -0.0440  0.2740
  919YOPE   D3B13455  10.466  18.455   6.423  0.0592 -0.2968  0.1344
  919YOPE   C4B13456  10.231  18.347   6.787 -0.0378 -0.1791  0.0344
  920YOPE   NH313457   2.274   7.501   5.529 -0.0603  0.1320  0.0688
  920YOPE   PO413458   1.899   7.518   5.588 -0.1500 -0.0809 -0.1253
  920YOPE   GL113459   1.815   7.508   6.004  0.0602  0.0565 -0.0636
  920YOPE   GL213460   1.896   7.844   5.995  0.4919 -0.0726 -0.4306
  920YOPE   C1A13461   1.930   7.431   6.395  0.1914  0.2380 -0.3018
  920YOPE   D2A13462   2.051   7.553   6.869 -0.1634  0.1177  0.0352
  920YOPE   C3A13463   1.842   7.643   7.140  0.0842 -0.0996  0.0014
  920YOPE   C4A13464   1.923   7.978   7.458 -0.1889 -0.1466  0.0100
  920YOPE   C1B13465   2.227   7.778   6.437  0.1042 -0.1443 -0.2565
  920YOPE   C2B13466   2.389   7.934   6.881 -0.0177  0.0996  0.1830
  920YOPE   D3B13467   2.266   8.235   7.149  0.1447  0.3323 -0.1000
  920YOPE   C4B13468   2.113   8.487   7.484 -0.2458 -0.0773  0.0076
  921POPC   NC313469  13.923   2.393   5.186  0.0223  0.0898  0.1125
  921POPC   PO413470  14.161   2.043   5.030 -0.0432  0.0464 -0.2331
  921POPC   GL113471  13.776   1.873   5.208  0.2753  0.0924 -0.0786
  921POPC   GL213472  13.900   1.660   5.383  0.2080  0.0379  0.1546
  921POPC   C1A13473  13.612   1.989   5.620  0.1119 -0.1658  0.3749
  921POPC   D2A13474  13.686   2.270   5.982 -0.1474  0.3758 -0.2266
  921POPC   C3A13475  13.733   2.152   6.427  0.0428  0.0506  0.1159
  921POPC   C4A13476  13.705   2.084   6.811 -0.0487 -0.4966  0.1375
  921POPC   C1B13477  13.821   1.600   5.819 -0.4355  0.0564 -0.0624
  921POPC   C2B13478  13.478   1.834   6.071  0.0347 -0.1699 -0.1203
  921POPC   C3B13479  13.061   1.860   5.907 -0.0538 -0.2389 -0.2355
  921POPC   C4B13480  12.862   1.583   6.022  0.1521  0.0230 -0.0371
  922POPC   NC313481   0.237  10.503   5.706  0.2009 -0.0415 -0.1240
  922POPC   PO413482  -0.123  10.601   5.644 -0.0360 -0.1084  0.0087
  922POPC   GL113483  -0.337  10.724   6.021  0.1871  0.0383 -0.0945
  922POPC   GL213484  -0.448  11.013   6.164  0.1334  0.0835 -0.1453
  922POPC   C1A13485  -0.313  10.768   6.529  0.1197  0.1589 -0.0666
  922POPC   D2A13486   0.035  10.678   6.903 -0.3180 -0.0624  0.0717
  922POPC   C3A13487   0.180  10.248   6.816 -0.3632 -0.3386 -0.3844
  922POPC   C4A13488   0.498  10.041   6.572 -0.2795 -0.1524 -0.0929
  922POPC   C1B13489  -0.041  11.050   6.216  0.0212 -0.3668 -0.1201
  922POPC   C2B13490   0.267  11.144   6.602 -0.3489  0.0978 -0.0880
  922POPC   C3B13491   0.556  11.133   6.930 -0.1609  0.1263  0.0209
  922POPC   C4B13492   0.928  10.933   6.929 -0.2477  0.1051  0.3775
  923POPC   NC313493  14.313  18.509   4.648 -0.2933 -0.0468  0.0758
  923POPC   PO413494  14.150  18.172   5.008 -0.3298 -0.0128  0.0504
  923POPC   GL113495  13.906  18.069   5.360  0.1581 -0.0359  0.0229
  923POPC   GL213496  13.992  17.827   5.567  0.0928  0.1201  0.3253
  923POPC   C1A13497  13.516  18.031   5.653 -0.2649 -0.5585  0.2731
  923POPC   D2A13498  13.222  18.012   6.092  0.2656  0.3966 -0.1863
  923POPC   C3A13499  13.242  18.243   6.434  0.3142  0.2337  0.1304
  923POPC   C4A13500  12.949  18.408   6.722  0.6406  0.0784 -0.2472
  923POPC   C1B13501  13.856  17.821   5.999 -0.2119 -0.0517  0.3500
  923POPC   C2B13502  14.135  18.018   6.283 -0.1156 -0.1508  0.0905
  923POPC   C3B13503  14.405  18.419   6.374  0.2261  0.0898 -0.2464
  923POPC   C4B13504  14.408  18.852   6.462 -0.2038  0.1411  0.0635
  924POPC   NC313505   2.095   4.861   5.665 -0.1802 -0.1177 -0.0274
  924POPC   PO413506   2.095   4.768   6.085 -0.1406  0.1639 -0.0583
  924POPC   GL113507   1.857   4.775   6.496  0.3504  0.3140  0.0311
  924POPC   GL213508   2.009   5.115   6.581 -0.2693 -0.0902  0.3216
  924POPC   C1A13509   1.433   4.779   6.671  0.2731 -0.0497 -0.4081
  924POPC   D2A13510   1.267   4.689   7.069 -0.0490 -0.1046  0.2013
  924POPC   C3A13511   1.064   4.895   7.419  0.1875 -0.1702 -0.3313
  924POPC   C4A13512   0.693   5.036   7.402 -0.2658 -0.1293 -0.0632
  924POPC   C1B13513   1.949   5.022   7.039 -0.3960 -0.0994  0.1130
  924POPC   C2B13514   1.705   4.904   7.263  0.0275  0.2793 -0.3448
  924POPC   C3B13515   1.627   4.991   7.695 -0.4156  0.0215  0.2246
  924POPC   C4B13516   1.396   4.768   7.977  0.1524 -0.1669 -0.2265
  925POPC   NC313517   3.969  15.723   5.471  0.0841 -0.0647 -0.0330
  925POPC   PO413518   4.244  15.481   5.219 -0.1108  0.1967  0.1976
  925POPC   GL113519   4.465  15.530   5.666 -0.2350 -0.0999 -0.2621
  925POPC   GL213520   4.795  15.316   5.717  0.2997  0.2081  0.2595
  925POPC   C1A13521   4.413  15.685   6.145 -0.3138 -0.1438 -0.1539
  925POPC   D2A13522   4.351  15.498   6.521 -0.1854  0.1019 -0.4585
  925POPC   C3A13523   4.541  15.208   6.776 -0.3006 -0.4402 -0.0008
  925POPC   C4A13524   4.854  15.177   6.938 -0.0641  0.1211  0.1284
  925POPC   C1B13525   4.908  15.321   6.112 -0.0362  0.0324  0.0865
  925POPC   C2B13526   4.806  15.511   6.444 -0.4859 -0.2254  0.1101
  925POPC   C3B13527   4.816  15.695   6.912 -0.0916  0.0912  0.1122
  925POPC   C4B13528   4.776  16.011   7.103  0.1388  0.0053  0.0343
  926POPC   NC313529   3.858  16.401   4.949  0.1994  0.2309  0.1103
  926POPC   PO413530   3.778  16.133   5.163  0.0979  0.0181  0.2459
  926POPC   GL113531   3.521  16.099   5.601 -0.1462  0.0895  0.1332
  926POPC   GL213532   3.356  16.389   5.679 -0.3364 -0.2746 -0.2983
  926POPC   C1A13533   3.299  15.847   5.917 -0.0788  0.0927 -0.2230
  926POPC   D2A13534   3.394  15.741   6.331 -0.0497 -0.1956  0.0268
  926POPC   C3A13535   3.637  16.088   6.532 -0.0497  0.1132 -0.0298
  926POPC   C4A13536   3.667  16.462   6.801 -0.1099  0.1733  0.1031
  926POPC   C1B13537   3.399  16.302   6.173  0.0569 -0.1572 -0.0629
  926POPC   C2B13538   3.303  16.513   6.528  0.2591  0.0316  0.1179
  926POPC   C3B13539   3.276  16.691   6.987  0.1727 -0.4852 -0.3318
  926POPC   C4B13540   3.234  17.073   7.393 -0.1221 -0.1574 -0.2890
  927POPC   NC313541  15.674   5.819   4.752 -0.1039 -0.0998  0.1186
  927POPC   PO413542  15.764   6.193   5.098  0.0138 -0.2648 -0.0304
  927POPC   GL113543  15.591   6.481   5.468 -0.0004 -0.2501 -0.2786
  927POPC   GL213544  15.305   6.232   5.468  0.0727  0.0485 -0.2214
  927POPC   C1A13545  15.540   6.756   5.821 -0.1053  0.0447 -0.3603
  927POPC   D2A13546  15.472   6.825   6.250  0.0581 -0.0948 -0.0218
  927POPC   C3A13547  15.605   6.664   6.599 -0.2122  0.0598  0.6453
  927POPC   C4A13548  15.560   6.354   6.979  0.0792  0.4057  0.1728
  927POPC   C1B13549  15.429   6.266   5.885 -0.1779 -0.1635 -0.2487
  927POPC   C2B13550  15.613   6.184   6.298 -0.1383 -0.3612  0.0277
  927POPC   C3B13551  15.701   5.963   6.741  0.0642 -0.0932 -0.0831
  927POPC   C4B13552  16.010   5.685   6.868  0.1486  0.1160 -0.0054
  928POPC   NC313553   7.837  12.696   5.868  0.1221  0.2351 -0.3010
  928POPC   PO413554   8.341  12.653   5.879  0.1151  0.0575  0.1279
  928POPC   GL113555   8.499  12.384   6.145  0.3821  0.0559  0.4246
  928POPC   GL213556   8.789  12.530   6.155 -0.0049 -0.2150  0.1724
  928POPC   C1A13557   8.380  11.865   6.152  0.3252 -0.1286 -0.2770
  928POPC   D2A13558   8.697  11.684   6.061  0.1246 -0.0472  0.2921
  928POPC   C3A13559   8.870  11.320   6.285  0.0582  0.0739 -0.0942
  928POPC   C4A13560   9.094  11.021   6.483 -0.0956  0.0081 -0.3105
  928POPC   C1B13561   8.990  12.317   6.386 -0.2376 -0.2209  0.0772
  928POPC   C2B13562   9.226  12.279   6.716  0.3134 -0.0753 -0.0835
  928POPC   C3B13563   9.155  12.281   7.198  0.0839  0.0890 -0.0889
  928POPC   C4B13564   9.167  12.405   7.642  0.1137  0.0133 -0.2224
  929POPC   NC313565  15.169   5.043   4.801  0.1540 -0.1313  0.1694
  929POPC   PO413566  15.503   4.783   4.856 -0.0337 -0.1827  0.1151
  929POPC   GL113567  15.681   4.707   5.240  0.1129 -0.0146 -0.1824
  929POPC   GL213568  15.609   4.409   5.278  0.0063  0.0777 -0.1668
  929POPC   C1A13569  15.851   5.057   5.458 -0.0976 -0.4577  0.0833
  929POPC   D2A13570  16.175   5.212   5.422  0.2897 -0.1421  0.0759
  929POPC   C3A13571  16.442   5.371   5.756  0.0603 -0.1127 -0.1575
  929POPC   C4A13572  16.708   5.341   6.151 -0.3136  0.0884  0.2125
  929POPC   C1B13573  15.451   4.589   5.706 -0.1547 -0.1658  0.1393
  929POPC   C2B13574  15.619   4.959   5.856 -0.0049 -0.2020 -0.3271
  929POPC   C3B13575  15.530   5.315   6.151  0.0825  0.2000 -0.2166
  929POPC   C4B13576  15.647   5.481   6.529 -0.1498  0.0058  0.2094
  930POPC   NC313577  16.544   0.146   5.149  0.2141 -0.1346  0.0663
  930POPC   PO413578  16.791   0.479   5.143 -0.0630 -0.1896 -0.1958
  930POPC   GL113579  16.868   0.760   5.445 -0.1597 -0.1552 -0.0432
  930POPC   GL213580  17.090   0.941   5.357  0.0912  0.0966  0.2600
  930POPC   C1A13581  16.968   0.712   5.842 -0.1394  0.1163  0.2410
  930POPC   D2A13582  16.821   0.544   6.183 -0.1833 -0.1761 -0.0080
  930POPC   C3A13583  16.933   0.845   6.428 -0.1962  0.0849  0.4263
  930POPC   C4A13584  16.630   0.919   6.757  0.0899  0.2140 -0.0303
  930POPC   C1B13585  17.370   0.930   5.631  0.2202 -0.3590  0.1843
  930POPC   C2B13586  17.360   0.887   6.070 -0.1687 -0.0185 -0.5434
  930POPC   C3B13587  17.441   0.942   6.472  0.0983 -0.1813 -0.0229
  930POPC   C4B13588  17.330   1.251   6.758  0.1991  0.2281  0.3904
  931POPC   NC313589  12.385  13.359   4.577  0.3871  0.1557  0.1235
  931POPC   PO413590  12.412  12.968   4.790 -0.2195 -0.0164  0.4135
  931POPC   GL113591  12.601  13.064   5.185  0.2368 -0.0297 -0.1333
  931POPC   GL213592  12.722  12.812   5.359 -0.3141  0.0036 -0.0505
  931POPC   C1A13593  12.678  13.287   5.565 -0.1352 -0.1041  0.1658
  931POPC   D2A13594  12.674  13.149   5.943 -0.3349 -0.1227  0.0175
  931POPC   C3A13595  12.883  13.292   6.256  0.1597 -0.0432 -0.2808
  931POPC   C4A13596  13.060  13.114   6.620 -0.1317  0.4873 -0.0197
  931POPC   C1B13597  12.783  12.668   5.756 -0.1860  0.3739 -0.2053
  931POPC   C2B13598  12.780  12.326   6.105  0.1171  0.1538 -0.2029
  931POPC   C3B13599  12.717  12.162   6.479  0.2723 -0.3180  0.0017
  931POPC   C4B13600  12.627  12.093   6.882  0.2179  0.3671  0.0817
  932POPC   NC313601  14.912   9.446   4.481  0.2118  0.1225 -0.1594
  932POPC   PO413602  14.798   9.634   4.850 -0.0006 -0.1975 -0.1731
  932POPC   GL113603  14.681   9.800   5.237 -0.0818  0.0730 -0.1279
  932POPC   GL213604  14.739  10.023   5.421 -0.2394 -0.0800 -0.0055
  932POPC   C1A13605  14.473   9.565   5.444 -0.0222 -0.3327 -0.2169
  932POPC   D2A13606  14.357   9.317   5.509  0.2730  0.0137 -0.2368
  932POPC   C3A13607  14.395   9.288   5.995 -0.2548 -0.4005  0.1482
  932POPC   C4A13608  14.287   9.174   6.387 -0.1001 -0.3035 -0.3634
  932POPC   C1B13609  14.714  10.281   5.767  0.1029 -0.2412 -0.5931
  932POPC   C2B13610  14.760  10.358   6.200  0.3150 -0.0064 -0.2786
  932POPC   C3B13611  14.443  10.467   6.507  0.1480  0.1581 -0.3321
  932POPC   C4B13612  13.978  10.564   6.500  0.1521 -0.1831  0.4061
  933POPC   NC313613   2.744   3.147   6.149  0.0417 -0.0828  0.0383
  933POPC   PO413614   2.836   3.522   6.084  0.2586 -0.0399 -0.1709
  933POPC   GL113615   2.475   3.561   6.448 -0.3146 -0.0049  0.3673
  933POPC   GL213616   2.194   3.727   6.353 -0.0121 -0.1662 -0.2553
  933POPC   C1A13617   2.466   3.810   6.795  0.2481 -0.0380  0.3991
  933POPC   D2A13618   2.537   3.725   7.244 -0.2056  0.0826  0.0762
  933POPC   C3A13619   2.714   3.444   7.482 -0.0772 -0.1315  0.0995
  933POPC   C4A13620   2.725   3.514   7.902 -0.1619  0.1150 -0.1790
  933POPC   C1B13621   2.026   3.579   6.790 -0.0456  0.3768  0.0957
  933POPC   C2B13622   2.113   3.406   7.133 -0.0236  0.2025  0.2868
  933POPC   C3B13623   2.215   3.368   7.524 -0.0690  0.2812 -0.1931
  933POPC   C4B13624   2.356   3.159   7.824  0.1841 -0.1536  0.0753
  934POPC   NC313625   2.265  17.607   4.824  0.4776  0.2569 -0.3935
  934POPC   PO413626   2.505  17.309   5.225 -0.0459  0.0216 -0.0905
  934POPC   GL113627   2.735  17.470   5.438  0.0130  0.1016 -0.1659
  934POPC   GL213628   2.516  17.509   5.709 -0.0061  0.2382  0.4335
  934POPC   C1A13629   3.127  17.728   5.737  0.0936 -0.0899  0.1261
  934POPC   D2A13630   3.459  17.892   5.685 -0.0188 -0.1573  0.0344
  934POPC   C3A13631   3.996  17.849   5.898 -0.0059 -0.3760 -0.2123
  934POPC   C4A13632   4.340  17.978   5.770 -0.4839 -0.0696 -0.2733
  934POPC   C1B13633   2.439  17.384   6.176  0.3707  0.1824 -0.1939
  934POPC   C2B13634   2.413  17.230   6.624  0.2998  0.0243 -0.2515
  934POPC   C3B13635   2.414  17.375   7.055  0.0226 -0.1850 -0.0192
  934POPC   C4B13636   2.765  17.383   7.363 -0.0211  0.3518  0.0638
  935POPC   NC313637   8.056  15.678   5.032 -0.2509  0.1024  0.1507
  935POPC   PO413638   8.441  15.659   5.318  0.1537  0.1186 -0.1600
  935POPC   GL113639   8.700  15.817   5.676  0.1134  0.0025  0.2195
  935POPC   GL213640   8.753  15.509   5.885 -0.1378 -0.3432  0.0056
  935POPC   C1A13641   9.146  15.842   5.978  0.2098 -0.0957  0.1225
  935POPC   D2A13642   9.606  15.873   5.854 -0.1181  0.1927 -0.0819
  935POPC   C3A13643   9.893  16.212   5.925  0.4689 -0.3948  0.1423
  935POPC   C4A13644   9.856  16.638   5.905 -0.0339 -0.0581  0.0702
  935POPC   C1B13645   8.722  15.793   6.216  0.1412  0.2500  0.2765
  935POPC   C2B13646   9.035  15.863   6.511 -0.1205 -0.0871 -0.1606
  935POPC   C3B13647   9.211  16.144   6.869  0.0672 -0.1751 -0.0120
  935POPC   C4B13648   9.549  16.538   6.861 -0.1348  0.5407  0.0339
  936POPC   NC313649   9.924  13.735   5.589  0.1207 -0.2891  0.0778
  936POPC   PO413650   9.403  13.717   5.673  0.0422 -0.0835  0.1850
  936POPC   GL113651   9.571  13.601   6.115 -0.2383  0.1516 -0.0118
  936POPC   GL213652   9.561  13.815   6.392  0.0131  0.0426  0.2858
  936POPC   C1A13653   9.951  13.376   6.157  0.0133 -0.1905  0.0886
  936POPC   D2A13654  10.264  13.184   6.260  0.0979 -0.1323  0.2809
  936POPC   C3A13655  10.514  13.523   6.418  0.1431 -0.6007  0.2228
  936POPC   C4A13656  10.485  13.994   6.584 -0.0970 -0.0310 -0.0165
  936POPC   C1B13657   9.264  13.749   6.639 -0.1320 -0.0188  0.2521
  936POPC   C2B13658   8.837  13.813   6.887  0.0751 -0.1812 -0.0780
  936POPC   C3B13659   8.890  14.053   7.243 -0.0247 -0.2402  0.2053
  936POPC   C4B13660   8.567  14.027   7.479  0.1845  0.1187  0.3474
  937POPC   NC313661   8.122  19.232   5.234  0.1212  0.1637 -0.2423
  937POPC   PO413662   8.179  18.811   5.290 -0.2506  0.2299 -0.1688
  937POPC   GL113663   7.741  19.153   5.577 -0.0543  0.3827 -0.1908
  937POPC   GL213664   7.912  19.404   5.716 -0.2211  0.1682 -0.0631
  937POPC   C1A13665   7.545  19.356   6.039  0.1183 -0.1101  0.1617
  937POPC   D2A13666   7.468  19.519   6.486 -0.0377  0.0058  0.0385
  937POPC   C3A13667   7.210  19.743   6.716 -0.1427 -0.2040  0.3288
  937POPC   C4A13668   6.807  19.778   6.905 -0.0064  0.0292  0.0015
  937POPC   C1B13669   7.984  19.609   6.017 -0.0531  0.1584  0.1813
  937POPC   C2B13670   7.754  19.832   6.133  0.0318 -0.2828  0.2277
  937POPC   C3B13671   7.509  20.068   6.421 -0.1186 -0.1484  0.2305
  937POPC   C4B13672   7.116  20.230   6.582  0.2150 -0.0926  0.2261
  938POPC   NC313673  18.204  11.821   5.402 -0.0543  0.1240  0.0124
  938POPC   PO413674  17.846  11.621   5.557  0.0064 -0.1595 -0.4662
  938POPC   GL113675  17.751  11.402   5.899  0.0129  0.0529  0.2675
  938POPC   GL213676  17.894  11.123   5.997  0.2584 -0.0039  0.0852
  938POPC   C1A13677  17.583  11.343   6.371  0.0265 -0.2306 -0.2426
  938POPC   D2A13678  17.571  11.493   6.805 -0.4274 -0.2380 -0.2290
  938POPC   C3A13679  17.258  11.477   7.207 -0.2106  0.0586  0.1529
  938POPC   C4A13680  17.419  11.445   7.678 -0.0297  0.0370 -0.2931
  938POPC   C1B13681  18.017  10.990   6.395  0.3125 -0.0984 -0.0861
  938POPC   C2B13682  17.931  11.029   6.938  0.0814  0.0347 -0.3210
  938POPC   C3B13683  17.792  11.085   7.422 -0.0685  0.2335 -0.3057
  938POPC   C4B13684  17.909  10.955   7.835 -0.1243 -0.0611  0.1231
  939POPC   NC313685  16.028   0.999   4.550 -0.4176  0.0935 -0.1061
  939POPC   PO413686  16.302   1.082   4.909 -0.2897  0.0138  0.1825
  939POPC   GL113687  16.384   0.784   5.313 -0.1287 -0.0644  0.3016
  939POPC   GL213688  16.069   0.653   5.370 -0.2851 -0.2903 -0.0363
  939POPC   C1A13689  16.492   0.625   5.761  0.1120 -0.0700 -0.4242
  939POPC   D2A13690  16.295   0.524   6.171  0.2265  0.0832  0.2636
  939POPC   C3A13691  16.201   0.402   6.616  0.0219  0.2256 -0.0310
  939POPC   C4A13692  16.040   0.591   6.987  0.0920 -0.1018  0.0497
  939POPC   C1B13693  16.053   0.923   5.751 -0.2406  0.1006 -0.1360
  939POPC   C2B13694  15.762   0.998   6.052  0.0478 -0.3854  0.3135
  939POPC   C3B13695  15.577   1.175   6.258 -0.4724  0.1097 -0.3918
  939POPC   C4B13696  15.220   1.517   6.381  0.2381  0.3239  0.2746
  940POPC   NC313697  18.901  17.267   5.230 -0.4203  0.1538 -0.2120
  940POPC   PO413698  18.575  16.931   5.045 -0.2719 -0.2496  0.0970
  940POPC   GL113699  18.535  16.833   5.506 -0.0341  0.1328 -0.1357
  940POPC   GL213700  18.294  16.956   5.720  0.1339  0.1031  0.2058
  940POPC   C1A13701  18.768  16.839   5.862 -0.1587 -0.1871 -0.2169
  940POPC   D2A13702  18.683  16.739   6.380  0.2268 -0.0678 -0.2127
  940POPC   C3A13703  18.387  16.462   6.499  0.0267 -0.1927  0.0248
  940POPC   C4A13704  18.282  16.066   6.691  0.3422  0.0633  0.2299
  940POPC   C1B13705  18.364  17.011   6.130 -0.3565  0.1185  0.0774
  940POPC   C2B13706  18.222  16.938   6.608  0.1899 -0.2441 -0.0890
  940POPC   C3B13707  18.444  16.745   6.893  0.0647  0.0401 -0.2287
  940POPC   C4B13708  18.700  16.441   7.017  0.0963 -0.4566  0.1478
  941POPC   NC313709  18.758  14.916   5.184 -0.0136 -0.0410  0.3716
  941POPC   PO413710  19.188  14.855   4.997  0.2978  0.3675 -0.0146
  941POPC   GL113711  19.237  15.011   5.454  0.1753  0.0464  0.1889
  941POPC   GL213712  19.394  14.795   5.605  0.1098  0.1765  0.0186
  941POPC   C1A13713  19.359  15.159   5.955  0.2698  0.0919 -0.4150
  941POPC   D2A13714  19.716  15.456   6.002  0.0318 -0.2480  0.1882
  941POPC   C3A13715  20.145  15.524   6.260 -0.2574 -0.0768  0.2364
  941POPC   C4A13716  20.313  15.820   6.404  0.0289  0.1335  0.0001
  941POPC   C1B13717  19.259  14.636   5.958 -0.0801 -0.2037 -0.0404
  941POPC   C2B13718  19.095  14.572   6.367  0.0759  0.0328  0.0763
  941POPC   C3B13719  19.252  14.642   6.644 -0.0564 -0.1330 -0.1740
  941POPC   C4B13720  19.331  14.890   7.043 -0.0998 -0.0480  0.0357
  942POPC   NC313721   6.435  17.404   5.165 -0.2582 -0.1867  0.0782
  942POPC   PO413722   6.064  17.291   5.222  0.3059 -0.0724  0.0090
  942POPC   GL113723   6.298  17.073   5.575 -0.1215 -0.1659 -0.2947
  942POPC   GL213724   6.079  17.113   5.734  0.0793  0.0703  0.0688
  942POPC   C1A13725   6.282  16.692   5.641 -0.1829 -0.1026  0.0730
  942POPC   D2A13726   6.241  16.394   5.948  0.1280  0.0255  0.0821
  942POPC   C3A13727   6.085  16.297   6.371  0.0717  0.1425 -0.0901
  942POPC   C4A13728   5.887  16.041   6.739  0.1264 -0.1523  0.4831
  942POPC   C1B13729   5.628  17.093   5.917  0.1076 -0.1270  0.2530
  942POPC   C2B13730   5.529  17.073   6.270 -0.1234  0.2826 -0.0018
  942POPC   C3B13731   5.861  17.094   6.556 -0.0735 -0.0633 -0.0094
  942POPC   C4B13732   6.240  16.765   6.753  0.2093 -0.0181  0.1503
  943POPC   NC313733  13.652   7.195   4.899 -0.1722  0.0752  0.3389
  943POPC   PO413734  13.514   6.793   4.868  0.1832 -0.0908  0.1565
  943POPC   GL113735  13.692   6.850   5.288  0.4207  0.2528 -0.0287
  943POPC   GL213736  13.971   6.917   5.430  0.3177  0.0587 -0.2262
  943POPC   C1A13737  13.529   6.949   5.687  0.0346  0.2408 -0.1247
  943POPC   D2A13738  13.391   6.831   6.083  0.1942 -0.2476  0.1567
  943POPC   C3A13739  13.194   6.548   6.414  0.1366  0.0783  0.1328
  943POPC   C4A13740  13.027   6.272   6.814  0.2052 -0.0093  0.0571
  943POPC   C1B13741  13.913   7.032   5.942 -0.1325  0.0771  0.2509
  943POPC   C2B13742  14.057   7.150   6.404 -0.4944  0.2183 -0.1948
  943POPC   C3B13743  13.887   7.136   6.829  0.0333 -0.0072  0.2037
  943POPC   C4B13744  13.602   7.355   6.911  0.0067 -0.1983 -0.1489
  944POPC   NC313745   3.140  10.522   6.273 -0.2169 -0.4208  0.0388
  944POPC   PO413746   3.109  10.979   6.315  0.1473 -0.1352  0.1198
  944POPC   GL113747   3.037  10.885   6.720  0.0178 -0.0060  0.1011
  944POPC   GL213748   3.075  11.085   6.951 -0.0038 -0.1445  0.0965
  944POPC   C1A13749   2.873  10.566   7.025 -0.1672 -0.0273 -0.1925
  944POPC   D2A13750   2.665  10.706   7.361  0.0970 -0.0256  0.0102
  944POPC   C3A13751   2.484  10.985   7.589 -0.0595  0.3555  0.0730
  944POPC   C4A13752   2.402  11.140   8.018 -0.1848 -0.1473 -0.1362
  944POPC   C1B13753   2.713  11.175   7.051  0.0275 -0.0225  0.1784
  944POPC   C2B13754   2.454  11.441   7.270  0.1854 -0.1062  0.1718
  944POPC   C3B13755   2.227  11.854   7.461 -0.4838  0.0460  0.0040
  944POPC   C4B13756   2.191  12.180   7.748  0.1492 -0.0077 -0.0452
  945POPC   NC313757   5.798   9.330   5.608  0.5014 -0.0302  0.2328
  945POPC   PO413758   6.104   9.641   5.744 -0.2243  0.1468 -0.0056
  945POPC   GL113759   6.106   9.722   6.128 -0.4283 -0.1114  0.1108
  945POPC   GL213760   6.267   9.607   6.342  0.2938  0.0013 -0.1263
  945POPC   C1A13761   6.183  10.168   6.297  0.0915 -0.3152  0.2234
  945POPC   D2A13762   6.199  10.610   6.485  0.2874 -0.0242  0.2196
  945POPC   C3A13763   6.026  10.638   6.955 -0.2465  0.0972  0.2583
  945POPC   C4A13764   5.904  10.928   7.314  0.1405 -0.3351 -0.4794
  945POPC   C1B13765   5.996   9.825   6.635 -0.7254 -0.2303 -0.1466
  945POPC   C2B13766   5.710   9.679   6.934  0.4587 -0.1582  0.2491
  945POPC   C3B13767   5.601   9.688   7.266  0.0024 -0.4185 -0.1034
  945POPC   C4B13768   5.704  10.060   7.590  0.2739 -0.0562  0.0857
  946POPC   NC313769  10.943   0.760   4.882  0.0819  0.3321 -0.0567
  946POPC   PO413770  11.249   0.666   5.051 -0.2492 -0.0798  0.0904
  946POPC   GL113771  11.489   0.535   5.409 -0.4303  0.1273 -0.1659
  946POPC   GL213772  11.296   0.397   5.595  0.0917 -0.1989 -0.0529
  946POPC   C1A13773  11.957   0.561   5.748 -0.0185  0.1500 -0.1957
  946POPC   D2A13774  12.021   0.829   6.159  0.1548 -0.0038 -0.1158
  946POPC   C3A13775  11.726   0.648   6.375  0.0603 -0.0277  0.1392
  946POPC   C4A13776  11.472   0.837   6.735  0.0859  0.1846  0.0573
  946POPC   C1B13777  11.300   0.568   5.969  0.1594 -0.0743 -0.2508
  946POPC   C2B13778  11.245   0.418   6.471 -0.2997  0.0923 -0.4809
  946POPC   C3B13779  11.162   0.068   6.751 -0.1302  0.4552 -0.1624
  946POPC   C4B13780  11.108  -0.348   6.898 -0.0826  0.0854  0.0876
  947POPC   NC313781  10.161   5.455   4.583  0.0471 -0.1915 -0.1192
  947POPC   PO413782  10.184   5.478   5.067 -0.2698  0.2443 -0.1028
  947POPC   GL113783  10.230   5.516   5.537 -0.1647  0.4943 -0.1283
  947POPC   GL213784  10.063   5.305   5.718 -0.3794  0.2049  0.0940
  947POPC   C1A13785  10.122   5.777   5.978  0.1711  0.1298 -0.1587
  947POPC   D2A13786  10.083   5.917   6.396  0.2319 -0.0367 -0.0239
  947POPC   C3A13787   9.818   5.941   6.710 -0.0391 -0.1416  0.1075
  947POPC   C4A13788   9.414   6.052   6.989  0.2437  0.0084 -0.2791
  947POPC   C1B13789   9.858   5.328   6.115 -0.0746 -0.2867  0.1602
  947POPC   C2B13790   9.838   5.449   6.586 -0.0695  0.0002 -0.2396
  947POPC   C3B13791   9.793   5.497   6.974  0.2587  0.3366 -0.3328
  947POPC   C4B13792   9.437   5.555   7.119  0.0491 -0.0850  0.0014
  948POPC   NC313793   6.611  13.672   5.495  0.0773 -0.0130  0.0623
  948POPC   PO413794   6.323  13.914   5.736  0.1595 -0.1726 -0.1874
  948POPC   GL113795   6.584  14.113   6.164  0.1238 -0.1772  0.0230
  948POPC   GL213796   6.874  14.088   6.149 -0.2788 -0.6115  0.0444
  948POPC   C1A13797   6.339  14.285   6.444  0.1157 -0.1545 -0.1956
  948POPC   D2A13798   6.331  14.464   6.752 -0.1178 -0.0226  0.1587
  948POPC   C3A13799   6.726  14.671   6.872  0.2709 -0.0105  0.0133
  948POPC   C4A13800   7.055  15.082   7.039  0.2890  0.0020 -0.1442
  948POPC   C1B13801   6.782  14.284   6.571  0.1765  0.2711  0.2409
  948POPC   C2B13802   6.689  14.175   6.974  0.0996 -0.4028 -0.2004
  948POPC   C3B13803   6.319  14.254   7.194 -0.2780 -0.3640 -0.2101
  948POPC   C4B13804   5.925  14.093   7.441  0.1670  0.0712  0.0531
  949POPC   NC313805   3.442   4.112   5.912 -0.0693 -0.5290  0.0215
  949POPC   PO413806   2.939   3.998   5.984 -0.2208 -0.1243  0.3253
  949POPC   GL113807   3.129   3.861   6.345  0.0350 -0.1710  0.0744
  949POPC   GL213808   2.912   3.869   6.523  0.2070 -0.0585  0.1463
  949POPC   C1A13809   3.390   3.824   6.801  0.0476 -0.0200  0.1726
  949POPC   D2A13810   3.460   3.640   7.101 -0.0855 -0.0407 -0.0938
  949POPC   C3A13811   3.719   3.852   7.348 -0.0064  0.1357  0.3159
  949POPC   C4A13812   3.948   3.810   7.591  0.2804  0.0857  0.1904
  949POPC   C1B13813   2.943   3.855   6.952  0.1967 -0.0103 -0.2611
  949POPC   C2B13814   3.039   3.807   7.301  0.1685 -0.0216 -0.0174
  949POPC   C3B13815   3.277   3.675   7.663  0.0377 -0.5644  0.1468
  949POPC   C4B13816   3.550   3.634   7.915  0.1293 -0.3582  0.1573
  950POPC   NC313817   7.256  10.538   5.722  0.0869  0.0904  0.2693
  950POPC   PO413818   7.702  10.516   5.876 -0.2322  0.2807 -0.1081
  950POPC   GL113819   7.790  10.752   6.216 -0.3196 -0.0129 -0.4984
  950POPC   GL213820   7.974  11.085   6.205  0.1188  0.2044 -0.0004
  950POPC   C1A13821   7.613  10.943   6.536  0.0838  0.0095  0.0812
  950POPC   D2A13822   7.858  10.992   6.982 -0.2194  0.1694 -0.0166
  950POPC   C3A13823   7.891  10.721   7.230  0.1175  0.1272  0.2504
  950POPC   C4A13824   8.188  10.428   7.452  0.0863 -0.4953 -0.2810
  950POPC   C1B13825   8.059  11.220   6.632  0.0662  0.0064  0.1445
  950POPC   C2B13826   8.100  11.512   6.985  0.3756  0.0068  0.0690
  950POPC   C3B13827   8.156  11.825   7.299 -0.0045  0.1006 -0.0778
  950POPC   C4B13828   7.920  12.048   7.631 -0.1131 -0.1934 -0.1623
  951POPC   NC313829   0.005   7.001   5.440 -0.0682 -0.1095 -0.1485
  951POPC   PO413830  -0.347   6.868   5.529  0.0364  0.0655 -0.0927
  951POPC   GL113831  -0.476   6.873   5.915 -0.1485  0.3645 -0.1364
  951POPC   GL213832  -0.170   6.662   6.208 -0.2529  0.1102 -0.0102
  951POPC   C1A13833  -0.754   6.785   6.312 -0.0064  0.0086 -0.1141
  951POPC   D2A13834  -0.866   6.675   6.682 -0.0629 -0.2083  0.3088
  951POPC   C3A13835  -0.955   6.963   7.100 -0.1896 -0.3032  0.0460
  951POPC   C4A13836  -0.822   7.087   7.565  0.3178 -0.1985  0.0275
  951POPC   C1B13837  -0.280   6.647   6.633  0.1633 -0.2388  0.1690
  951POPC   C2B13838  -0.081   6.664   6.899 -0.0206 -0.5183  0.1294
  951POPC   C3B13839   0.040   6.609   7.279  0.1464 -0.1268  0.0954
  951POPC   C4B13840   0.251   6.851   7.446  0.0177 -0.2885 -0.2136
  952POPC   NC313841  13.020   6.199   4.449 -0.1096 -0.1434  0.2412
  952POPC   PO413842  13.199   6.347   4.849  0.1201 -0.0044  0.2092
  952POPC   GL113843  13.236   6.488   5.204  0.2231  0.2963  0.0511
  952POPC   GL213844  13.196   6.857   5.300 -0.1388 -0.0216  0.1273
  952POPC   C1A13845  13.401   6.439   5.651  0.0045 -0.2207 -0.1063
  952POPC   D2A13846  13.711   6.493   5.948 -0.1902 -0.0612 -0.1115
  952POPC   C3A13847  14.099   6.611   5.774  0.0512  0.1141 -0.1988
  952POPC   C4A13848  14.304   6.515   5.405  0.2110  0.0715 -0.1031
  952POPC   C1B13849  12.983   6.831   5.609  0.0653  0.2822  0.0841
  952POPC   C2B13850  12.851   6.672   6.071  0.2665 -0.0156 -0.0401
  952POPC   C3B13851  12.725   6.382   6.405  0.0456  0.1020  0.0382
  952POPC   C4B13852  12.490   6.359   6.835 -0.1634 -0.1312 -0.3137
  953POPC   NC313853   8.991   7.832   5.412  0.0335  0.1383  0.0576
  953POPC   PO413854   8.782   8.223   5.216 -0.1307  0.3208 -0.0214
  953POPC   GL113855   9.054   8.257   5.718 -0.0658 -0.0606  0.0652
  953POPC   GL213856   9.345   8.363   5.714  0.0230 -0.1901  0.2530
  953POPC   C1A13857   9.124   8.577   6.116 -0.0923  0.0663 -0.1701
  953POPC   D2A13858   9.523   8.732   6.165 -0.0379 -0.2918  0.0432
  953POPC   C3A13859   9.559   9.115   6.114 -0.4033 -0.1703  0.1971
  953POPC   C4A13860   9.756   9.346   6.416 -0.1096  0.0931 -0.0936
  953POPC   C1B13861   9.358   8.176   6.098 -0.3381 -0.0894 -0.2240
  953POPC   C2B13862   8.990   8.060   6.197 -0.0364  0.0105 -0.0539
  953POPC   C3B13863   8.806   7.987   6.630  0.2289 -0.0731  0.0458
  953POPC   C4B13864   8.625   7.915   7.112  0.1371 -0.2638 -0.1210
  954POPC   NC313865   5.110   6.158   5.564 -0.2138 -0.0392  0.0404
  954POPC   PO413866   4.839   6.176   5.993 -0.1614  0.0645  0.1593
  954POPC   GL113867   4.840   6.025   6.346  0.2359  0.2441  0.3288
  954POPC   GL213868   4.702   5.766   6.287 -0.1257  0.2208  0.0262
  954POPC   C1A13869   5.003   5.915   6.772 -0.0885 -0.3223 -0.0684
  954POPC   D2A13870   5.046   5.794   7.175 -0.3394 -0.1533 -0.0898
  954POPC   C3A13871   5.002   5.795   7.572 -0.0483 -0.2468 -0.2865
  954POPC   C4A13872   4.924   6.107   7.908  0.0880  0.0263  0.2041
  954POPC   C1B13873   4.374   5.923   6.555  0.2288 -0.0750 -0.1075
  954POPC   C2B13874   4.191   6.214   6.744  0.1462  0.0518  0.1385
  954POPC   C3B13875   4.096   6.237   7.158  0.0957  0.3105  0.2836
  954POPC   C4B13876   4.087   6.378   7.615 -0.2514  0.2034  0.0712
  955POPC   NC313877   4.257   5.033   6.094 -0.0981 -0.0303  0.3693
  955POPC   PO413878   4.134   4.744   6.109  0.0047  0.0840  0.0876
  955POPC   GL113879   4.023   4.530   6.509 -0.0595  0.0840 -0.1923
  955POPC   GL213880   4.374   4.571   6.587  0.1391  0.1040 -0.4177
  955POPC   C1A13881   4.205   4.118   6.600 -0.2182  0.0922 -0.4584
  955POPC   D2A13882   4.129   3.883   6.960  0.5357  0.0646  0.1033
  955POPC   C3A13883   4.405   3.982   7.346  0.1001 -0.3066  0.2793
  955POPC   C4A13884   4.558   4.140   7.673  0.0663  0.0568 -0.1994
  955POPC   C1B13885   4.254   4.835   6.909 -0.0194 -0.0295 -0.2830
  955POPC   C2B13886   4.480   5.160   7.130  0.1962  0.1343  0.0556
  955POPC   C3B13887   4.685   5.430   7.426 -0.0101  0.1841  0.2899
  955POPC   C4B13888   4.486   5.623   7.743  0.1812  0.3777  0.1855
  956POPC   NC313889  14.063  17.206   4.786 -0.5030  0.0525 -0.4462
  956POPC   PO413890  14.536  17.332   4.845  0.3879  0.0317  0.4743
  956POPC   GL113891  14.677  17.220   5.182  0.0953  0.0542 -0.0208
  956POPC   GL213892  14.932  17.063   5.340 -0.1219  0.0862 -0.3415
  956POPC   C1A13893  14.572  17.378   5.606  0.3476 -0.2836 -0.1782
  956POPC   D2A13894  14.564  17.175   6.088 -0.1093  0.2390  0.0116
  956POPC   C3A13895  14.352  16.806   5.982 -0.1091 -0.5492  0.2205
  956POPC   C4A13896  14.413  16.554   6.388  0.0558  0.0209 -0.0494
  956POPC   C1B13897  14.784  16.893   5.721  0.0490 -0.2227  0.0769
  956POPC   C2B13898  14.837  16.655   6.046  0.0824 -0.1352 -0.1026
  956POPC   C3B13899  14.701  16.912   6.472 -0.0896 -0.0240 -0.2138
  956POPC   C4B13900  14.592  17.217   6.932  0.0760  0.0914  0.3718
  957POPC   NC313901   0.562   2.644   4.993  0.2052 -0.0391 -0.2906
  957POPC   PO413902   0.915   2.329   5.141  0.2408  0.3091 -0.2676
  957POPC   GL113903   0.755   2.524   5.572 -0.3331  0.0275  0.2201
  957POPC   GL213904   0.518   2.450   5.828  0.0333 -0.3336 -0.1189
  957POPC   C1A13905   0.887   2.216   5.933 -0.0888 -0.2540 -0.0278
  957POPC   D2A13906   1.039   1.884   6.206 -0.1579 -0.2453 -0.0119
  957POPC   C3A13907   1.162   1.464   6.110 -0.1695 -0.0859  0.0044
  957POPC   C4A13908   1.315   1.085   6.095 -0.2443  0.1494  0.3124
  957POPC   C1B13909   0.487   2.024   6.137  0.0970  0.2261  0.1735
  957POPC   C2B13910   0.268   1.809   6.479  0.3650 -0.0667  0.1372
  957POPC   C3B13911   0.224   1.891   6.893 -0.1234  0.0203 -0.0442
  957POPC   C4B13912   0.052   2.234   7.146 -0.1212 -0.0873 -0.3624
  958POPC   NC313913  11.946  14.078   4.778 -0.0565  0.0453  0.2296
  958POPC   PO413914  12.288  13.824   4.775  0.2221 -0.0434  0.0096
  958POPC   GL113915  12.303  13.889   5.167 -0.2239  0.1873  0.3036
  958POPC   GL213916  12.589  13.841   5.310 -0.4606  0.1778 -0.2988
  958POPC   C1A13917  12.201  13.589   5.480  0.1962 -0.1840 -0.1420
  958POPC   D2A13918  12.238  13.416   5.928 -0.1800 -0.0747 -0.2730
  958POPC   C3A13919  11.858  13.590   6.015 -0.0727 -0.0863 -0.2478
  958POPC   C4A13920  11.626  13.714   5.691  0.2048  0.0285 -0.4790
  958POPC   C1B13921  12.655  13.771   5.758  0.0172  0.0933 -0.2411
  958POPC   C2B13922  12.860  13.866   6.127 -0.0199 -0.1746 -0.2693
  958POPC   C3B13923  12.679  14.162   6.501 -0.1049 -0.0816 -0.1178
  958POPC   C4B13924  12.542  14.456   6.853  0.2035 -0.2125 -0.1281
  959POPC   NC313925   3.219  14.416   4.915  0.1007 -0.1581  0.1500
  959POPC   PO413926   3.127  14.428   5.325  0.0063  0.1628 -0.1258
  959POPC   GL113927   3.134  14.301   5.760  0.1528 -0.1056  0.1715
  959POPC   GL213928   3.124  14.652   5.869 -0.0252  0.2419  0.1640
  959POPC   C1A13929   3.060  14.017   6.012 -0.1788 -0.0904 -0.0116
  959POPC   D2A13930   2.723  13.937   6.337  0.4913  0.2298 -0.0262
  959POPC   C3A13931   2.283  13.992   6.531 -0.0983 -0.2293 -0.1955
  959POPC   C4A13932   2.236  14.226   6.818  0.2435  0.0387  0.1314
  959POPC   C1B13933   3.268  14.900   6.265 -0.4350 -0.2921  0.2074
  959POPC   C2B13934   3.356  14.927   6.729  0.0354 -0.3134  0.2857
  959POPC   C3B13935   3.350  15.153   7.094  0.2969 -0.3527 -0.0983
  959POPC   C4B13936   3.454  15.517   7.422 -0.0769 -0.1501  0.0168
  960POPC   NC313937   5.976   6.896   5.521  0.0816  0.0585 -0.1017
  960POPC   PO413938   5.872   7.253   5.751 -0.0835  0.1380  0.1612
  960POPC   GL113939   5.732   7.022   6.179 -0.1286  0.0744  0.0417
  960POPC   GL213940   5.768   6.615   6.156  0.1158  0.1836 -0.2390
  960POPC   C1A13941   5.766   7.022   6.768 -0.3188 -0.2267  0.1408
  960POPC   D2A13942   5.969   7.087   7.119 -0.3666  0.1863 -0.1715
  960POPC   C3A13943   5.884   7.273   7.451  0.1407  0.2315 -0.1328
  960POPC   C4A13944   5.863   7.521   7.703  0.3787  0.0337 -0.0901
  960POPC   C1B13945   5.732   6.570   6.705  0.0308 -0.3010 -0.1738
  960POPC   C2B13946   5.704   6.668   7.084 -0.1401  0.1830 -0.0643
  960POPC   C3B13947   5.933   6.747   7.445 -0.1446 -0.0316  0.0056
  960POPC   C4B13948   6.468   6.833   7.632  0.2710 -0.2609 -0.1512
  961YOPC   NC313949  11.163   0.117   5.164  0.0803 -0.5081  0.1007
  961YOPC   PO413950  10.799   0.312   5.105  0.1359 -0.1415  0.1843
  961YOPC   GL113951  10.789   0.150   5.519  0.0718 -0.1654  0.2628
  961YOPC   GL213952  10.632  -0.058   5.579 -0.2098 -0.0233 -0.1744
  961YOPC   C1A13953  10.989   0.166   5.861  0.2446 -0.0692 -0.1657
  961YOPC   D2A13954  11.007  -0.047   6.252 -0.3034  0.0143  0.0727
  961YOPC   C3A13955  11.145  -0.477   6.383 -0.1517 -0.0566 -0.0629
  961YOPC   C4A13956  11.459  -0.721   6.338  0.4198 -0.1639 -0.2692
  961YOPC   C1B13957  10.699  -0.313   5.894 -0.2475  0.0281  0.3942
  961YOPC   C2B13958  10.484  -0.452   6.162  0.1133  0.0165 -0.1092
  961YOPC   D3B13959  10.306  -0.474   6.589 -0.1806  0.1048  0.0263
  961YOPC   C4B13960  10.515  -0.284   7.031 -0.1519  0.3526 -0.0311
  962YOPC   NC313961   9.197  14.503   5.516 -0.0518 -0.0194 -0.0799
  962YOPC   PO413962   9.573  14.188   5.520 -0.0779 -0.3536  0.2032
  962YOPC   GL113963   9.658  14.089   5.975  0.1570 -0.0002 -0.0761
  962YOPC   GL213964   9.678  14.447   6.071  0.0257 -0.1758  0.1870
  962YOPC   C1A13965   9.760  14.225   6.465 -0.1251 -0.1739  0.1639
  962YOPC   D2A13966   9.915  13.938   6.786 -0.2142  0.0446  0.1338
  962YOPC   C3A13967   9.614  13.609   6.959 -0.0437 -0.3364 -0.2131
  962YOPC   C4A13968   9.236  13.712   7.162 -0.0462 -0.4459 -0.3014
  962YOPC   C1B13969   9.716  14.711   6.365  0.1147  0.0090  0.0678
  962YOPC   C2B13970   9.842  14.782   6.718 -0.1388  0.0397 -0.1372
  962YOPC   D3B13971   9.703  14.458   6.895 -0.0294 -0.1211  0.2409
  962YOPC   C4B13972   9.439  14.099   6.960  0.1856  0.1904 -0.3016
  963YOPC   NC313973   6.287   4.624   5.332 -0.0987 -0.0591 -0.1889
  963YOPC   PO413974   6.065   4.299   5.704 -0.1017 -0.1922  0.2182
  963YOPC   GL113975   6.241   4.071   6.053 -0.0800 -0.1029 -0.1692
  963YOPC   GL213976   6.552   3.875   6.021  0.1705 -0.1592 -0.1257
  963YOPC   C1A13977   6.307   4.032   6.443 -0.2781  0.1253  0.3429
  963YOPC   D2A13978   6.262   3.879   6.832 -0.0327  0.2051 -0.1385
  963YOPC   C3A13979   6.568   3.932   7.013  0.0638 -0.1293 -0.1570
  963YOPC   C4A13980   6.775   3.704   7.341 -0.0159 -0.1100 -0.2261
  963YOPC   C1B13981   6.740   3.818   6.330  0.0273  0.0376  0.2867
  963YOPC   C2B13982   6.906   3.658   6.746  0.0104  0.0683 -0.1048
  963YOPC   D3B13983   7.050   3.284   6.858 -0.0503 -0.0845  0.0596
  963YOPC   C4B13984   7.342   2.991   7.046  0.0996 -0.1045 -0.3105
  964YOPC   NC313985  14.922  14.388   4.933 -0.2335 -0.3676 -0.0089
  964YOPC   PO413986  14.547  14.635   4.765 -0.1330 -0.1020  0.1330
  964YOPC   GL113987  14.520  14.721   5.313  0.0378 -0.0945 -0.0960
  964YOPC   GL213988  14.392  14.995   5.312 -0.3020  0.1155 -0.1174
  964YOPC   C1A13989  14.756  14.711   5.679  0.0289  0.0419  0.0012
  964YOPC   D2A13990  14.819  14.622   6.152  0.2711  0.1615  0.2779
  964YOPC   C3A13991  15.021  14.400   6.412 -0.2878 -0.0426  0.0472
  964YOPC   C4A13992  14.893  14.007   6.430 -0.1099  0.0589 -0.0281
  964YOPC   C1B13993  14.244  15.045   5.735 -0.1025 -0.4420  0.2304
  964YOPC   C2B13994  14.078  15.117   6.196 -0.2363  0.2184  0.3831
  964YOPC   D3B13995  13.757  15.029   6.008 -0.0491 -0.0478  0.1120
  964YOPC   C4B13996  13.416  14.858   5.747  0.1849  0.0975  0.2499
  965YOPC   NC313997  15.599  18.376   4.967  0.1018 -0.0793  0.2861
  965YOPC   PO413998  15.336  17.995   5.117 -0.1140  0.1528  0.3841
  965YOPC   GL113999  15.332  18.360   5.362 -0.0165  0.1777 -0.1878
  965YOPC   GL214000  15.649  18.521   5.421  0.3965 -0.0953 -0.1215
  965YOPC   C1A14001  15.148  18.499   5.756  0.1180 -0.1675 -0.0580
  965YOPC   D2A14002  15.116  18.820   5.992 -0.1078 -0.0888 -0.0837
  965YOPC   C3A14003  14.883  18.779   6.357  0.0139 -0.3946 -0.1381
  965YOPC   C4A14004  14.842  18.450   6.681 -0.0016  0.0403 -0.1007
  965YOPC   C1B14005  15.790  18.597   5.809 -0.0235 -0.1215  0.1607
  965YOPC   C2B14006  15.611  18.730   6.188 -0.2116  0.2632  0.0082
  965YOPC   D3B14007  15.762  19.074   6.496 -0.0316  0.1095  0.1798
  965YOPC   C4B14008  15.673  19.480   6.578  0.0324  0.2050 -0.1092
  966YOPC   NC314009  19.292   9.482   5.492  0.1610  0.2877 -0.2161
  966YOPC   PO414010  19.055   9.909   5.601 -0.5428  0.2047  0.0588
  966YOPC   GL114011  19.107   9.707   5.990 -0.1390  0.1743  0.0535
  966YOPC   GL214012  18.745   9.827   6.030 -0.0240 -0.1919 -0.1835
  966YOPC   C1A14013  18.950   9.540   6.444  0.1443 -0.0225 -0.1035
  966YOPC   D2A14014  18.861   9.222   6.701  0.2625 -0.2788  0.0135
  966YOPC   C3A14015  18.752   9.333   7.162  0.1301 -0.3177  0.2192
  966YOPC   C4A14016  18.829   9.553   7.426 -0.3429  0.0533 -0.0993
  966YOPC   C1B14017  18.810  10.025   6.395  0.0897  0.0009 -0.0056
  966YOPC   C2B14018  19.063  10.303   6.514  0.1977 -0.2057  0.0895
  966YOPC   D3B14019  19.014  10.371   6.915  0.4074  0.0986  0.0407
  966YOPC   C4B14020  18.758  10.674   6.920 -0.3296 -0.1593 -0.1117
  967YOPC   NC314021   8.495  13.344   4.869  0.0778 -0.2071 -0.0436
  967YOPC   PO414022   8.740  13.201   5.298  0.0554  0.0472  0.0578
  967YOPC   GL114023   8.816  13.128   5.708  0.1782 -0.4339  0.0303
  967YOPC   GL214024   8.977  12.992   5.915 -0.1299 -0.1805  0.1589
  967YOPC   C1A14025   8.613  13.229   6.116 -0.2588 -0.0057  0.1839
  967YOPC   D2A14026   8.309  12.979   6.437 -0.2092  0.2666 -0.0913
  967YOPC   C3A14027   8.442  12.543   6.599  0.0338  0.0898  0.0668
  967YOPC   C4A14028   8.734  12.393   6.832 -0.3080  0.0030 -0.0727
  967YOPC   C1B14029   8.989  12.945   6.351 -0.2293  0.2500  0.0557
  967YOPC   C2B14030   8.813  12.903   6.725  0.0266  0.0535  0.2809
  967YOPC   D3B14031   8.992  12.772   7.095  0.0228 -0.0608 -0.2517
  967YOPC   C4B14032   8.678  12.571   7.322  0.0339 -0.0856  0.2552
  968YOPC   NC314033   1.378   5.960   5.840 -0.1421 -0.1790 -0.0275
  968YOPC   PO414034   1.540   5.623   6.139 -0.2287  0.0953 -0.3289
  968YOPC   GL114035   1.426   5.739   6.528 -0.4510 -0.0705  0.0792
  968YOPC   GL214036   1.483   6.094   6.466  0.0005  0.0475 -0.2612
  968YOPC   C1A14037   1.666   5.488   6.880  0.0470 -0.0012 -0.2033
  968YOPC   D2A14038   1.567   5.381   7.384  0.1142 -0.1082 -0.3813
  968YOPC   C3A14039   1.199   5.556   7.519 -0.1369 -0.1761 -0.1256
  968YOPC   C4A14040   0.894   5.734   7.225  0.4428 -0.1194 -0.1825
  968YOPC   C1B14041   1.512   6.160   6.930  0.1727 -0.1396 -0.2655
  968YOPC   C2B14042   1.890   6.285   7.219 -0.2874 -0.0615 -0.1666
  968YOPC   D3B14043   2.047   6.663   7.293  0.2267 -0.0705  0.0155
  968YOPC   C4B14044   1.831   7.113   7.352  0.0757  0.0102  0.0210
  969YOPC   NC314045   7.654  15.406   5.050  0.0695  0.0632  0.1756
  969YOPC   PO414046   7.968  15.293   5.283 -0.4662 -0.0841 -0.2074
  969YOPC   GL114047   8.193  15.443   5.694  0.1822  0.2605  0.2820
  969YOPC   GL214048   8.264  15.673   5.822  0.1474 -0.0982  0.0095
  969YOPC   C1A14049   8.379  15.173   6.018  0.0282  0.2156 -0.0202
  969YOPC   D2A14050   8.643  15.234   6.342 -0.3085 -0.4094 -0.0162
  969YOPC   C3A14051   8.575  15.547   6.640 -0.0678  0.3129 -0.1731
  969YOPC   C4A14052   8.300  15.664   7.034  0.3126 -0.2269 -0.1302
  969YOPC   C1B14053   8.283  15.672   6.251  0.0848  0.2424  0.1015
  969YOPC   C2B14054   7.984  15.705   6.579  0.2834 -0.1838 -0.0660
  969YOPC   D3B14055   7.608  15.446   6.633  0.1280  0.1646  0.0396
  969YOPC   C4B14056   7.392  15.526   6.346  0.3411 -0.5075 -0.0060
  970YOPC   NC314057  19.283  18.335   5.184  0.0427  0.2192 -0.2645
  970YOPC   PO414058  18.882  18.242   5.349 -0.5263  0.1319  0.0582
  970YOPC   GL114059  18.844  18.006   5.744  0.2085 -0.1093  0.2183
  970YOPC   GL214060  18.497  17.998   5.822  0.0851 -0.1160  0.2370
  970YOPC   C1A14061  19.041  17.796   6.007 -0.0244  0.0163  0.3696
  970YOPC   D2A14062  19.085  17.844   6.389  0.0659  0.0584 -0.0673
  970YOPC   C3A14063  19.061  17.509   6.650 -0.1649 -0.1204 -0.1150
  970YOPC   C4A14064  19.445  17.312   6.818 -0.1186  0.0584 -0.0012
  970YOPC   C1B14065  18.572  17.960   6.255  0.2367  0.1599  0.1707
  970YOPC   C2B14066  18.674  17.878   6.664  0.0073  0.2784 -0.1323
  970YOPC   D3B14067  18.546  18.251   6.853  0.0525  0.2854 -0.1893
  970YOPC   C4B14068  18.277  18.529   7.122 -0.3776 -0.0008  0.3168
  971YOPC   NC314069   0.779  18.899   5.073  0.0947  0.1135 -0.0069
  971YOPC   PO414070   0.457  19.251   5.178 -0.0502  0.0036 -0.0797
  971YOPC   GL114071   0.541  19.299   5.611  0.1191  0.1727 -0.0508
  971YOPC   GL214072   0.825  19.513   5.740  0.2846 -0.0108 -0.0160
  971YOPC   C1A14073   0.526  19.321   6.088 -0.0907  0.0642 -0.1214
  971YOPC   D2A14074   0.583  19.277   6.498  0.1743  0.0246  0.1197
  971YOPC   C3A14075   0.297  19.256   6.712  0.1756  0.4302  0.0563
  971YOPC   C4A14076  -0.064  19.105   6.949  0.3403  0.2094 -0.3347
  971YOPC   C1B14077   1.039  19.480   6.001  0.0776 -0.1196  0.1095
  971YOPC   C2B14078   1.033  19.211   6.251 -0.0685 -0.3168  0.4767
  971YOPC   D3B14079   1.253  19.231   6.566  0.2211 -0.2942 -0.0902
  971YOPC   C4B14080   1.769  19.179   6.668  0.1968  0.1683 -0.0582
  972YOPC   NC314081  12.373   0.527   4.328 -0.1804  0.2124 -0.0077
  972YOPC   PO414082  12.079   0.376   4.616  0.1681  0.3938  0.1574
  972YOPC   GL114083  12.138   0.319   5.102 -0.0330 -0.2245  0.0090
  972YOPC   GL214084  11.760   0.084   5.251  0.0631 -0.0873 -0.1031
  972YOPC   C1A14085  12.284   0.271   5.548  0.3017  0.3957 -0.0285
  972YOPC   D2A14086  12.343   0.399   5.988 -0.4439  0.0375  0.1818
  972YOPC   C3A14087  12.545   0.104   6.290 -0.1713  0.4508 -0.1716
  972YOPC   C4A14088  12.812  -0.207   6.443  0.2909 -0.3396  0.1280
  972YOPC   C1B14089  11.729   0.142   5.610 -0.0715  0.1150 -0.1801
  972YOPC   C2B14090  11.891   0.190   6.023  0.3652 -0.1960  0.2964
  972YOPC   D3B14091  11.968   0.202   6.463  0.0352  0.2453  0.0578
  972YOPC   C4B14092  12.201   0.534   6.493 -0.3013 -0.0891 -0.0254
  973YOPC   NC314093   1.324   4.819   5.381  0.0471 -0.1147 -0.2606
  973YOPC   PO414094   1.090   4.903   5.757  0.0032 -0.1336  0.0340
  973YOPC   GL114095   1.158   4.932   6.172  0.1769  0.2155  0.0781
  973YOPC   GL214096   1.448   5.102   6.299  0.2626 -0.1637 -0.0223
  973YOPC   C1A14097   1.493   4.573   6.221 -0.0446 -0.3968  0.0628
  973YOPC   D2A14098   1.636   4.299   6.678 -0.2465 -0.1345 -0.0677
  973YOPC   C3A14099   1.710   4.424   7.094 -0.2303  0.0534 -0.4087
  973YOPC   C4A14100   1.417   4.576   7.517 -0.2250 -0.0983 -0.1001
  973YOPC   C1B14101   1.229   5.309   6.605  0.0879 -0.1142 -0.2605
  973YOPC   C2B14102   1.190   5.322   7.041 -0.1102 -0.1043  0.0406
  973YOPC   D3B14103   1.376   5.762   7.118  0.0517 -0.4642 -0.1052
  973YOPC   C4B14104   1.443   6.093   7.413 -0.1042 -0.0112  0.0478
  974YOPC   NC314105  18.024   6.030   5.290 -0.1454  0.0441  0.0199
  974YOPC   PO414106  17.677   6.406   5.216 -0.2824 -0.0632  0.0148
  974YOPC   GL114107  17.767   6.373   5.649  0.2125  0.0045  0.0606
  974YOPC   GL214108  17.853   6.588   5.767 -0.1465 -0.1042 -0.1253
  974YOPC   C1A14109  17.808   6.230   6.087 -0.0226 -0.0260  0.0511
  974YOPC   D2A14110  17.499   5.999   6.357 -0.2109  0.0102 -0.4041
  974YOPC   C3A14111  17.643   6.023   6.755  0.1645  0.4140 -0.0430
  974YOPC   C4A14112  17.857   6.084   7.152 -0.3763 -0.0122  0.0443
  974YOPC   C1B14113  17.805   6.741   6.129 -0.0139 -0.1170 -0.2901
  974YOPC   C2B14114  17.666   6.936   6.494 -0.0156 -0.1237 -0.1478
  974YOPC   D3B14115  17.235   7.150   6.715  0.0380 -0.1885 -0.0799
  974YOPC   C4B14116  16.968   7.510   6.858  0.1040  0.1859 -0.3441
  975YOPC   NC314117   5.077   3.629   5.602  0.1627 -0.0310 -0.0499
  975YOPC   PO414118   4.671   3.751   5.792 -0.1457 -0.0243  0.2757
  975YOPC   GL114119   4.659   3.709   6.115 -0.1653  0.2988 -0.2264
  975YOPC   GL214120   4.982   3.768   6.299  0.2407 -0.1583 -0.2334
  975YOPC   C1A14121   4.652   3.419   6.419  0.1941  0.1202  0.2821
  975YOPC   D2A14122   4.872   3.339   6.780 -0.3294 -0.0345  0.1007
  975YOPC   C3A14123   4.881   3.121   7.020  0.1105 -0.4538 -0.0662
  975YOPC   C4A14124   4.718   3.023   7.392  0.1119 -0.0574 -0.0670
  975YOPC   C1B14125   5.189   3.974   6.524 -0.1048  0.2369  0.4762
  975YOPC   C2B14126   5.362   4.261   6.705  0.0394  0.1393  0.1131
  975YOPC   D3B14127   5.541   4.645   6.624  0.1506  0.2500 -0.1395
  975YOPC   C4B14128   5.650   5.011   6.292  0.4409  0.0277  0.2882
  976YOPC   NC314129  18.428   3.117   5.007 -0.1076  0.3855 -0.2272
  976YOPC   PO414130  18.234   3.042   5.409 -0.1669 -0.0456 -0.2557
  976YOPC   GL114131  18.018   3.132   5.693  0.2917 -0.2138  0.0256
  976YOPC   GL214132  18.142   3.444   5.791  0.0803  0.2722  0.0181
  976YOPC   C1A14133  17.803   2.923   6.032  0.1077  0.1494  0.0922
  976YOPC   D2A14134  17.694   3.040   6.512  0.1965  0.1815 -0.2167
  976YOPC   C3A14135  17.406   3.431   6.618 -0.0315  0.2668 -0.0394
  976YOPC   C4A14136  17.234   3.827   6.547  0.1551 -0.2481 -0.2047
  976YOPC   C1B14137  18.006   3.395   6.263 -0.1914  0.1090 -0.1898
  976YOPC   C2B14138  17.884   3.421   6.795  0.3486  0.1058  0.2460
  976YOPC   D3B14139  18.157   3.699   7.052  0.1060  0.0857 -0.1218
  976YOPC   C4B14140  18.519   3.991   7.159  0.0949 -0.4224  0.1750
  977YOPC   NC314141  10.694  13.733   5.063  0.2182  0.0998  0.2006
  977YOPC   PO414142  10.526  13.492   5.386 -0.0354  0.3228  0.3470
  977YOPC   GL114143  10.672  13.479   5.769  0.0216 -0.0057  0.2962
  977YOPC   GL214144  10.648  13.769   5.937 -0.0961 -0.3616  0.0685
  977YOPC   C1A14145  10.808  13.230   6.090  0.0245  0.3118  0.0318
  977YOPC   D2A14146  11.103  12.981   6.264  0.0116  0.3489  0.1929
  977YOPC   C3A14147  11.035  12.649   6.616  0.2308  0.0905  0.0938
  977YOPC   C4A14148  10.601  12.482   6.714 -0.0624  0.2371 -0.3504
  977YOPC   C1B14149  10.755  14.146   6.193  0.0703 -0.2618 -0.0738
  977YOPC   C2B14150  10.991  13.910   6.510  0.1945 -0.0852  0.0270
  977YOPC   D3B14151  11.041  13.399   6.552  0.1824 -0.2029  0.3058
  977YOPC   C4B14152  11.473  13.305   6.526  0.1775  0.1131  0.2331
  978YOPC   NC314153   1.699   9.610   5.859 -0.2031  0.2576 -0.0418
  978YOPC   PO414154   2.185   9.532   5.921 -0.0299  0.0644  0.1694
  978YOPC   GL114155   2.164   9.378   6.277 -0.0354 -0.0173  0.0873
  978YOPC   GL214156   2.417   9.151   6.259  0.1810  0.0812 -0.1828
  978YOPC   C1A14157   2.123   9.640   6.617  0.2438  0.1266  0.2524
  978YOPC   D2A14158   2.008  10.043   6.799 -0.0039 -0.0194  0.1131
  978YOPC   C3A14159   1.878  10.466   6.912 -0.0022  0.0012  0.0818
  978YOPC   C4A14160   1.908  10.830   6.694 -0.0278 -0.0893  0.1034
  978YOPC   C1B14161   2.161   8.922   6.551 -0.2435  0.1245 -0.0223
  978YOPC   C2B14162   2.172   8.742   7.004 -0.0681  0.1049  0.1116
  978YOPC   D3B14163   1.892   8.523   7.045 -0.1124 -0.3439 -0.0843
  978YOPC   C4B14164   1.469   8.415   7.233 -0.2729 -0.2651 -0.2547
  979YOPC   NC314165   2.299  14.161   5.219  0.0942 -0.3342 -0.0382
  979YOPC   PO414166   2.127  14.595   5.510 -0.0996 -0.0585 -0.0093
  979YOPC   GL114167   2.245  14.768   5.803  0.3933  0.2008  0.1533
  979YOPC   GL214168   2.607  14.922   5.754  0.1949  0.0158 -0.5334
  979YOPC   C1A14169   2.352  15.065   6.184 -0.3037 -0.2328 -0.2294
  979YOPC   D2A14170   2.415  15.046   6.661 -0.1507  0.1904  0.0202
  979YOPC   C3A14171   2.631  14.805   6.965 -0.1245 -0.1025 -0.1561
  979YOPC   C4A14172   2.988  14.666   7.012 -0.3127 -0.1453 -0.1526
  979YOPC   C1B14173   2.846  15.080   6.049 -0.2362 -0.1005  0.0771
  979YOPC   C2B14174   2.877  14.919   6.536  0.0207  0.1196 -0.0370
  979YOPC   D3B14175   3.195  14.501   6.580  0.0493  0.1882  0.3709
  979YOPC   C4B14176   3.120  14.010   6.595 -0.0348 -0.0500 -0.1287
  980YOPC   NC314177   9.401  13.149   4.999 -0.4985  0.3001 -0.4838
  980YOPC   PO414178   9.689  13.316   5.347  0.0853 -0.1720 -0.0562
  980YOPC   GL114179   9.619  13.143   5.738 -0.0514 -0.3577 -0.1572
  980YOPC   GL214180   9.739  12.889   5.746  0.2034 -0.0541  0.0337
  980YOPC   C1A14181   9.376  13.163   6.081 -0.0438  0.0644  0.3083
  980YOPC   D2A14182   9.109  13.480   6.261  0.0975 -0.1037  0.2108
  980YOPC   C3A14183   8.718  13.483   6.513 -0.1222 -0.2480 -0.0024
  980YOPC   C4A14184   8.420  13.255   6.847  0.0116 -0.0373  0.1610
  980YOPC   C1B14185   9.896  12.876   6.068  0.0668  0.1621  0.0312
  980YOPC   C2B14186   9.833  12.997   6.475 -0.0904  0.0148 -0.2824
  980YOPC   D3B14187   9.432  13.121   6.592 -0.0159 -0.1004  0.0994
  980YOPC   C4B14188   9.078  13.311   6.862  0.3076  0.0419 -0.0237
  981YOPC   NC314189   7.712   1.565   4.671 -0.1861  0.2189 -0.0599
  981YOPC   PO414190   7.443   1.732   5.074 -0.0863 -0.3443  0.4376
  981YOPC   GL114191   7.406   2.029   5.510 -0.2128 -0.1450  0.1762
  981YOPC   GL214192   7.539   2.140   5.718  0.0330  0.2158 -0.4170
  981YOPC   C1A14193   7.088   1.923   5.841  0.1299 -0.2127  0.3988
  981YOPC   D2A14194   6.731   1.870   6.011  0.1835  0.1769  0.2044
  981YOPC   C3A14195   6.555   2.064   6.313  0.0196 -0.2268 -0.0860
  981YOPC   C4A14196   6.472   2.421   6.634  0.2830  0.2254  0.0831
  981YOPC   C1B14197   7.341   2.197   6.192  0.1313 -0.0018 -0.0051
  981YOPC   C2B14198   7.365   2.444   6.566  0.1310  0.2174  0.1137
  981YOPC   D3B14199   6.971   2.654   6.702 -0.0422  0.1389 -0.2776
  981YOPC   C4B14200   6.622   2.936   6.939  0.1998 -0.1479 -0.3685
  982YOPC   NC314201  12.323  14.909   5.036 -0.2951 -0.3287  0.2538
  982YOPC   PO414202  12.253  15.333   4.866 -0.1221  0.0718  0.2457
  982YOPC   GL114203  12.444  15.603   5.128  0.1562  0.1197 -0.4297
  982YOPC   GL214204  12.377  15.516   5.537 -0.2095  0.0639 -0.1653
  982YOPC   C1A14205  12.577  16.004   5.292 -0.0357  0.0689 -0.1025
  982YOPC   D2A14206  12.898  16.303   5.408 -0.0524  0.1605 -0.0731
  982YOPC   C3A14207  12.956  16.455   5.779  0.0873  0.0263 -0.2930
  982YOPC   C4A14208  13.089  16.722   6.087  0.1531 -0.2247 -0.2283
  982YOPC   C1B14209  12.411  15.543   5.945 -0.0300  0.0561 -0.3978
  982YOPC   C2B14210  12.374  15.618   6.336  0.0064  0.4687 -0.1724
  982YOPC   D3B14211  12.577  15.870   6.628 -0.1970  0.2940 -0.1417
  982YOPC   C4B14212  12.958  15.910   6.809  0.0389  0.2448 -0.3360
  983YOPC   NC314213   7.457   2.980   5.012  0.1693  0.1771 -0.1695
  983YOPC   PO414214   7.412   2.597   5.266 -0.0590 -0.6124  0.0492
  983YOPC   GL114215   7.759   2.610   5.634 -0.0521 -0.0766 -0.0900
  983YOPC   GL214216   8.051   2.874   5.632  0.1467  0.0625 -0.2528
  983YOPC   C1A14217   7.769   2.583   6.111  0.3513  0.1504 -0.1318
  983YOPC   D2A14218   7.837   2.618   6.514 -0.0559  0.1829  0.1122
  983YOPC   C3A14219   8.244   2.842   6.735 -0.4557  0.0186 -0.2126
  983YOPC   C4A14220   8.414   3.160   6.867 -0.3373  0.0327  0.0207
  983YOPC   C1B14221   7.775   3.046   5.888  0.2352  0.1132  0.1185
  983YOPC   C2B14222   7.756   3.314   6.062 -0.0351 -0.0685  0.0292
  983YOPC   D3B14223   7.664   3.580   6.412 -0.2178 -0.0220 -0.1345
  983YOPC   C4B14224   7.860   3.825   6.708 -0.0900  0.4311 -0.1626
  984YOPC   NC314225  11.966   8.467   4.996 -0.4140  0.3405  0.5443
  984YOPC   PO414226  11.944   8.136   5.349 -0.1121 -0.3624  0.2090
  984YOPC   GL114227  12.330   8.210   5.633  0.1335 -0.3244 -0.1545
  984YOPC   GL214228  12.450   8.414   5.400 -0.2849  0.2453  0.1529
  984YOPC   C1A14229  12.661   8.262   5.887 -0.0988 -0.2956  0.1365
  984YOPC   D2A14230  12.784   8.187   6.234 -0.1152  0.1422  0.0690
  984YOPC   C3A14231  13.185   8.506   6.197  0.0543 -0.0752  0.2069
  984YOPC   C4A14232  13.334   8.918   6.287  0.0856  0.1887 -0.3950
  984YOPC   C1B14233  12.368   8.673   5.686  0.0786 -0.0071  0.1778
  984YOPC   C2B14234  12.027   8.766   5.999  0.0605  0.1365 -0.1418
  984YOPC   D3B14235  11.675   8.532   6.314 -0.0000  0.3664 -0.1596
  984YOPC   C4B14236  11.316   8.366   6.200  0.1435 -0.0101 -0.1904
  985YOPC   NC314237  13.710  17.924   4.841 -0.1254 -0.0182  0.1425
  985YOPC   PO414238  13.612  17.468   4.999 -0.0105  0.1212  0.1559
  985YOPC   GL114239  13.560  17.575   5.342 -0.3632  0.0409  0.0825
  985YOPC   GL214240  13.524  17.175   5.505  0.2750 -0.0632  0.0131
  985YOPC   C1A14241  13.274  17.617   5.706 -0.1454 -0.0717 -0.2471
  985YOPC   D2A14242  13.216  17.504   6.136 -0.0741  0.0812  0.3404
  985YOPC   C3A14243  13.383  17.661   6.502 -0.0460 -0.1181 -0.0254
  985YOPC   C4A14244  13.639  17.704   7.020  0.1090  0.3382  0.2501
  985YOPC   C1B14245  13.440  17.051   5.866 -0.2790  0.4956 -0.2846
  985YOPC   C2B14246  13.456  16.975   6.297  0.1189  0.4627 -0.0579
  985YOPC   D3B14247  13.109  17.094   6.493 -0.0250 -0.0121 -0.2080
  985YOPC   C4B14248  12.928  17.401   6.619  0.1078  0.2530 -0.0374
  986YOPC   NC314249   8.182  16.994   4.390 -0.0493 -0.2389 -0.0447
  986YOPC   PO414250   8.125  17.174   4.777 -0.2071  0.2648  0.3405
  986YOPC   GL114251   8.249  17.198   5.193  0.3466 -0.4510  0.1521
  986YOPC   GL214252   8.089  17.326   5.281 -0.3609 -0.0496  0.3164
  986YOPC   C1A14253   8.434  17.089   5.517 -0.0110 -0.2129 -0.3563
  986YOPC   D2A14254   8.675  17.183   5.828 -0.2400  0.1403  0.0216
  986YOPC   C3A14255   8.574  17.401   6.283 -0.2934 -0.3040 -0.1281
  986YOPC   C4A14256   8.342  17.676   6.503 -0.0634 -0.4263 -0.1137
  986YOPC   C1B14257   7.796  17.370   5.580  0.0778 -0.3126  0.0287
  986YOPC   C2B14258   7.755  17.252   5.913  0.2461 -0.2981  0.0487
  986YOPC   D3B14259   7.420  17.336   6.133 -0.0281  0.0176  0.3631
  986YOPC   C4B14260   7.101  17.349   6.520 -0.0747 -0.0775 -0.3314
  987YOPC   NC314261  18.462   7.722   5.153  0.4919  0.1984  0.1417
  987YOPC   PO414262  18.428   7.700   5.662 -0.0448  0.0185 -0.0530
  987YOPC   GL114263  18.285   7.317   5.753  0.1869 -0.1406 -0.5876
  987YOPC   GL214264  17.992   7.239   5.901 -0.0978 -0.1699 -0.1963
  987YOPC   C1A14265  18.367   6.878   5.860 -0.3846  0.1225  0.3738
  987YOPC   D2A14266  18.360   6.530   5.967  0.0322  0.5622 -0.0544
  987YOPC   C3A14267  18.187   6.469   6.365  0.0881 -0.0702  0.1797
  987YOPC   C4A14268  17.864   6.383   6.540  0.1527 -0.2671  0.0057
  987YOPC   C1B14269  18.176   7.078   6.305 -0.1267 -0.2459  0.5287
  987YOPC   C2B14270  18.143   7.300   6.633 -0.0429  0.2655 -0.1512
  987YOPC   D3B14271  17.824   7.227   6.914  0.2735 -0.1315  0.1188
  987YOPC   C4B14272  17.592   7.024   7.211 -0.0612  0.2375 -0.0203
  988YOPC   NC314273   3.208  11.382   6.005 -0.4119  0.1307 -0.1669
  988YOPC   PO414274   3.568  11.192   5.957  0.1551  0.2715 -0.1413
  988YOPC   GL114275   3.861  11.030   6.361 -0.2403 -0.1491 -0.0943
  988YOPC   GL214276   3.582  10.821   6.605  0.1122 -0.0718 -0.2711
  988YOPC   C1A14277   4.180  11.245   6.433 -0.1207  0.1338  0.0409
  988YOPC   D2A14278   4.383  11.320   6.857 -0.4062 -0.2941  0.3279
  988YOPC   C3A14279   4.604  11.765   6.917  0.0648 -0.0127  0.1833
  988YOPC   C4A14280   4.611  12.223   6.960 -0.0247 -0.1759  0.2078
  988YOPC   C1B14281   3.516  10.868   6.977  0.3550  0.2502  0.1023
  988YOPC   C2B14282   3.463  11.217   7.187  0.3369 -0.0196 -0.0021
  988YOPC   D3B14283   3.209  11.373   7.426  0.1779  0.1203 -0.0883
  988YOPC   C4B14284   2.837  11.378   7.538 -0.0117  0.0621 -0.0844
  989YOPC   NC314285  18.945   4.560   4.879 -0.1008 -0.0416 -0.0058
  989YOPC   PO414286  18.608   4.451   5.140  0.1685  0.0948 -0.0155
  989YOPC   GL114287  18.851   4.237   5.578 -0.0470 -0.2136  0.4342
  989YOPC   GL214288  18.888   3.876   5.654 -0.1304  0.0353 -0.0593
  989YOPC   C1A14289  19.111   4.288   5.960 -0.1560  0.1154 -0.0356
  989YOPC   D2A14290  19.184   4.263   6.323  0.1022  0.0196 -0.2402
  989YOPC   C3A14291  19.412   4.483   6.644 -0.0858 -0.0512  0.1796
  989YOPC   C4A14292  19.800   4.486   6.780 -0.2110  0.2648  0.0735
  989YOPC   C1B14293  18.876   3.804   6.160 -0.5466  0.0109  0.1936
  989YOPC   C2B14294  18.937   3.788   6.586  0.0431  0.0586 -0.0643
  989YOPC   D3B14295  19.110   4.116   6.799 -0.0513  0.2877 -0.4625
  989YOPC   C4B14296  19.069   4.220   7.272  0.0991  0.0813 -0.1027
  990YOPC   NC314297  16.569   2.190   4.979  0.1199 -0.0916  0.3232
  990YOPC   PO414298  16.257   2.590   5.021 -0.1698  0.1713 -0.0596
  990YOPC   GL114299  16.473   2.917   5.205  0.1932  0.2443 -0.3415
  990YOPC   GL214300  16.492   2.629   5.482  0.2709 -0.0244 -0.4083
  990YOPC   C1A14301  16.344   3.192   5.376 -0.0235 -0.2527  0.2330
  990YOPC   D2A14302  15.868   3.291   5.364  0.0764 -0.0263  0.2116
  990YOPC   C3A14303  15.621   2.951   5.666 -0.2108 -0.0490  0.3426
  990YOPC   C4A14304  15.696   2.863   6.088  0.2358  0.3245  0.2213
  990YOPC   C1B14305  16.371   2.944   5.795  0.0260 -0.1091 -0.1730
  990YOPC   C2B14306  15.961   3.213   5.936  0.1454  0.2061 -0.2660
  990YOPC   D3B14307  15.998   3.236   6.325  0.2563 -0.2043 -0.0824
  990YOPC   C4B14308  16.145   3.212   6.730  0.2741  0.3046 -0.0335
  991YOPC   NC314309   8.199  17.706   4.971  0.1466  0.0404  0.0732
  991YOPC   PO414310   7.963  17.874   5.065  0.0541 -0.0797  0.1390
  991YOPC   GL114311   7.863  18.013   5.581 -0.0264 -0.2428  0.2567
  991YOPC   GL214312   8.115  18.193   5.411  0.4966  0.1989 -0.1482
  991YOPC   C1A14313   7.966  18.193   5.891  0.1577  0.2437 -0.0323
  991YOPC   D2A14314   8.071  18.067   6.347 -0.0614  0.1989  0.1665
  991YOPC   C3A14315   8.017  18.376   6.631  0.2230  0.0067  0.3084
  991YOPC   C4A14316   7.969  18.794   6.730 -0.2151 -0.1771 -0.1250
  991YOPC   C1B14317   8.481  18.077   5.705 -0.2821  0.1258  0.3520
  991YOPC   C2B14318   8.631  17.961   6.119  0.2897 -0.1603 -0.0807
  991YOPC   D3B14319   8.884  17.849   6.418  0.5080  0.2207 -0.0396
  991YOPC   C4B14320   8.793  17.766   6.817 -0.1980 -0.1312  0.1993
  992YOPC   NC314321   5.169   2.168   5.015  0.2134 -0.2436  0.0969
  992YOPC   PO414322   4.989   1.753   5.037 -0.2660  0.1570  0.0725
  992YOPC   GL114323   5.071   1.882   5.472  0.1816  0.4505  0.0138
  992YOPC   GL214324   5.149   1.547   5.616 -0.2040  0.2385  0.1345
  992YOPC   C1A14325   5.092   2.049   5.868 -0.0539  0.0465  0.1994
  992YOPC   D2A14326   4.855   2.024   6.236  0.2920  0.3251  0.1928
  992YOPC   C3A14327   4.735   1.708   6.419 -0.0367  0.3015  0.0493
  992YOPC   C4A14328   4.652   1.449   6.673 -0.2033 -0.0817 -0.3494
  992YOPC   C1B14329   5.068   1.442   6.073 -0.1717  0.0745  0.0324
  992YOPC   C2B14330   4.972   1.214   6.281  0.2323  0.1324  0.1854
  992YOPC   D3B14331   5.013   1.055   6.631 -0.1132 -0.0331  0.0385
  992YOPC   C4B14332   4.850   0.759   7.026 -0.2522  0.0454  0.0924
  993YOPC   NC314333  12.434   3.865   5.219 -0.2528 -0.0678 -0.0292
  993YOPC   PO414334  12.521   3.446   5.325 -0.0912 -0.0390  0.0745
  993YOPC   GL114335  12.305   3.238   5.641 -0.4063 -0.2248 -0.0433
  993YOPC   GL214336  12.433   2.966   5.846  0.3802 -0.1487  0.0382
  993YOPC   C1A14337  12.022   3.294   5.852  0.1231 -0.3256  0.1611
  993YOPC   D2A14338  11.610   3.174   6.046  0.1304 -0.1592 -0.0695
  993YOPC   C3A14339  11.490   3.089   6.413 -0.1989 -0.3645 -0.3134
  993YOPC   C4A14340  11.699   3.132   6.795  0.1328  0.0512 -0.0715
  993YOPC   C1B14341  12.446   2.939   6.160 -0.2439 -0.0262 -0.0700
  993YOPC   C2B14342  12.569   2.884   6.548 -0.0939 -0.1411 -0.0727
  993YOPC   D3B14343  12.737   2.544   6.913 -0.2170 -0.4444  0.1990
  993YOPC   C4B14344  12.560   2.281   7.218  0.0739  0.0863  0.1508
  994YOPC   NC314345  13.512  14.183   4.982 -0.3467  0.0602 -0.3268
  994YOPC   PO414346  13.883  14.105   5.000 -0.4894  0.1187 -0.2105
  994YOPC   GL114347  14.000  14.030   5.434 -0.2121  0.0846 -0.0158
  994YOPC   GL214348  13.674  14.040   5.586  0.2771  0.2940 -0.0626
  994YOPC   C1A14349  14.102  13.993   5.861 -0.1325  0.0740 -0.2731
  994YOPC   D2A14350  14.126  13.962   6.328  0.0220 -0.1155  0.2824
  994YOPC   C3A14351  14.455  13.890   6.629  0.0028  0.0409  0.2483
  994YOPC   C4A14352  14.760  13.838   6.884  0.2255  0.0991 -0.1242
  994YOPC   C1B14353  13.651  14.316   6.018 -0.4246 -0.1169  0.0878
  994YOPC   C2B14354  13.578  14.694   6.351  0.1095 -0.1304  0.0962
  994YOPC   D3B14355  13.729  15.079   6.525  0.3093 -0.1171 -0.2240
  994YOPC   C4B14356  13.577  15.384   6.851  0.0998  0.2322 -0.0596
  995YOPC   NC314357   4.025   3.417   5.753  0.0852  0.0132  0.0693
  995YOPC   PO414358   3.797   3.685   5.931 -0.1813 -0.2009 -0.3867
  995YOPC   GL114359   3.644   3.748   6.373  0.3687  0.1574 -0.1606
  995YOPC   GL214360   3.580   4.082   6.402 -0.3207  0.2317 -0.1435
  995YOPC   C1A14361   3.726   3.490   6.637 -0.3118 -0.1560 -0.2102
  995YOPC   D2A14362   3.881   3.364   7.029  0.1885  0.0301 -0.0327
  995YOPC   C3A14363   3.817   3.352   7.383  0.0445 -0.2156 -0.0009
  995YOPC   C4A14364   3.913   3.345   7.840  0.0108  0.2173 -0.0347
  995YOPC   C1B14365   3.711   4.199   6.779  0.0020 -0.1800 -0.1432
  995YOPC   C2B14366   4.021   4.357   7.001  0.0205  0.1403  0.2359
  995YOPC   D3B14367   3.939   4.255   7.483  0.2057 -0.2934 -0.0209
  995YOPC   C4B14368   4.112   4.240   7.951 -0.3475 -0.0527 -0.1811
  996YOPC   NC314369   3.741   2.130   5.308 -0.0985 -0.2631  0.5104
  996YOPC   PO414370   3.653   2.314   5.736  0.0552  0.1528 -0.1780
  996YOPC   GL114371   3.712   2.314   6.105  0.1048  0.0793 -0.0092
  996YOPC   GL214372   4.025   2.293   6.136  0.2686 -0.3084 -0.1941
  996YOPC   C1A14373   3.875   2.095   6.525 -0.1884  0.0031 -0.1706
  996YOPC   D2A14374   4.005   2.056   6.955 -0.2102 -0.0737  0.2973
  996YOPC   C3A14375   4.392   1.958   7.230 -0.1113 -0.1868 -0.0966
  996YOPC   C4A14376   4.684   2.158   7.704 -0.0725 -0.0969  0.0646
  996YOPC   C1B14377   4.334   2.041   6.446 -0.2214 -0.0096 -0.0559
  996YOPC   C2B14378   4.632   1.945   6.808  0.0746 -0.2736 -0.2680
  996YOPC   D3B14379   5.117   2.108   6.720  0.1658  0.0665 -0.3216
  996YOPC   C4B14380   5.529   2.048   6.789  0.0565  0.2474  0.1636
  997YOPC   NC314381   3.134  17.444   4.426 -0.2821  0.3335  0.0396
  997YOPC   PO414382   3.275  17.341   4.925  0.0048 -0.0218  0.1196
  997YOPC   GL114383   3.309  17.120   5.274 -0.1669  0.0607  0.2212
  997YOPC   GL214384   3.008  17.121   5.613 -0.3020  0.0269  0.0037
  997YOPC   C1A14385   3.421  17.410   5.573 -0.0449  0.4809 -0.1007
  997YOPC   D2A14386   3.425  17.413   6.084 -0.1797 -0.0054  0.1343
  997YOPC   C3A14387   3.944  17.220   6.078  0.1624  0.2272  0.1911
  997YOPC   C4A14388   4.193  16.993   6.266 -0.2789  0.0789 -0.3420
  997YOPC   C1B14389   2.956  17.310   5.984  0.1758 -0.2256 -0.3821
  997YOPC   C2B14390   2.888  17.469   6.396  0.0286 -0.0260  0.2294
  997YOPC   D3B14391   3.229  17.691   6.522 -0.0682  0.0978  0.2555
  997YOPC   C4B14392   3.602  17.883   6.402 -0.2003 -0.0718  0.3842
  998YOPC   NC314393  12.953  19.188   5.110  0.0859  0.0258 -0.0892
  998YOPC   PO414394  13.060  19.575   4.850 -0.2907 -0.4720  0.0056
  998YOPC   GL114395  13.250  19.556   5.306  0.0599 -0.0392 -0.0240
  998YOPC   GL214396  13.424  19.382   5.320  0.2765  0.0859  0.2775
  998YOPC   C1A14397  13.246  19.606   5.762  0.0559 -0.2437 -0.1228
  998YOPC   D2A14398  13.278  19.910   6.129 -0.0296 -0.0652  0.0835
  998YOPC   C3A14399  13.127  20.258   6.186 -0.2935 -0.3797 -0.0788
  998YOPC   C4A14400  12.944  20.665   6.421 -0.0763  0.0893  0.3518
  998YOPC   C1B14401  13.658  19.103   5.530  0.2108 -0.1329 -0.1945
  998YOPC   C2B14402  14.040  18.930   5.812  0.4245 -0.0879  0.1602
  998YOPC   D3B14403  13.888  18.695   6.215  0.1590 -0.2388 -0.1860
  998YOPC   C4B14404  13.693  18.635   6.677  0.0595  0.0224 -0.1081
  999YOPC   NC314405   4.691   2.974   5.866  0.0139 -0.2542 -0.0197
  999YOPC   PO414406   4.325   3.105   5.949 -0.0299  0.2426 -0.1104
  999YOPC   GL114407   4.480   2.831   6.369  0.0919 -0.2325  0.2119
  999YOPC   GL214408   4.199   2.649   6.429  0.0551  0.1654  0.2116
  999YOPC   C1A14409   4.569   2.840   6.838 -0.1085 -0.1283  0.0640
  999YOPC   D2A14410   4.855   2.502   7.231  0.0638 -0.3795  0.0799
  999YOPC   C3A14411   4.856   2.076   7.230 -0.2179 -0.0975 -0.0369
  999YOPC   C4A14412   4.718   1.570   7.198  0.1897  0.0990  0.1170
  999YOPC   C1B14413   3.851   2.599   6.644 -0.0274 -0.1356 -0.3809
  999YOPC   C2B14414   3.479   2.909   6.609  0.0130  0.1112 -0.2200
  999YOPC   D3B14415   3.419   3.074   6.956 -0.1225  0.2586 -0.0015
  999YOPC   C4B14416   3.169   3.290   7.298 -0.0995 -0.1983  0.1162
 1000YOPC   NC314417   2.381   0.120   5.211 -0.0777  0.2926  0.2040
 1000YOPC   PO414418   2.262  -0.236   5.331  0.1594 -0.0267  0.2007
 1000YOPC   GL114419   2.205  -0.253   5.781 -0.0589  0.0269 -0.1916
 1000YOPC   GL214420   1.947  -0.116   5.903 -0.0087 -0.3137  0.1456
 1000YOPC   C1A14421   2.215  -0.526   6.167 -0.1428 -0.2313 -0.1724
 1000YOPC   D2A14422   2.293  -0.355   6.612  0.2012  0.0844  0.0570
 1000YOPC   C3A14423   2.693  -0.285   6.800 -0.0460 -0.0799 -0.3045
 1000YOPC   C4A14424   3.151  -0.219   6.717  0.3589 -0.0101 -0.4030
 1000YOPC   C1B14425   2.019   0.054   6.248  0.1822  0.2272 -0.0223
 1000YOPC   C2B14426   1.945   0.286   6.604 -0.1470 -0.0582 -0.0434
 1000YOPC   D3B14427   1.472   0.292   6.805 -0.2613  0.0756  0.0874
 1000YOPC   C4B14428   1.208   0.194   7.178  0.1709  0.2479  0.1744
 1001YOPC   NC314429   5.654  15.231   4.979  0.2214 -0.1093  0.0180
 1001YOPC   PO414430   6.096  15.337   5.218 -0.1037 -0.0031 -0.0614
 1001YOPC   GL114431   5.715  15.505   5.491  0.0394  0.1637  0.2451
 1001YOPC   GL214432   5.422  15.673   5.393 -0.0820 -0.0738  0.0414
 1001YOPC   C1A14433   5.574  15.592   5.922  0.1950 -0.0469 -0.0436
 1001YOPC   D2A14434   5.314  15.620   6.283  0.1114  0.1177 -0.0049
 1001YOPC   C3A14435   5.533  15.703   6.696  0.0325  0.0705 -0.2124
 1001YOPC   C4A14436   5.732  15.435   6.978 -0.4519  0.1829 -0.2736
 1001YOPC   C1B14437   5.155  15.720   5.748  0.0465 -0.4258  0.0035
 1001YOPC   C2B14438   4.932  15.914   6.129 -0.1573  0.2539 -0.3844
 1001YOPC   D3B14439   5.088  16.020   6.478 -0.1978  0.2734 -0.2295
 1001YOPC   C4B14440   5.274  16.220   6.907 -0.0675 -0.1938 -0.3852
 1002YOPC   NC314441   5.179  12.513   5.710  0.4141 -0.1079 -0.0859
 1002YOPC   PO414442   5.609  12.519   5.809 -0.0762 -0.0535 -0.0827
 1002YOPC   GL114443   5.742  12.149   6.195 -0.2463  0.3182 -0.0974
 1002YOPC   GL214444   5.554  12.371   6.433 -0.0215 -0.3066 -0.4039
 1002YOPC   C1A14445   6.026  12.177   6.581  0.3769 -0.1058 -0.1598
 1002YOPC   D2A14446   6.204  12.235   6.980  0.2569 -0.2039  0.0587
 1002YOPC   C3A14447   6.424  12.705   7.127  0.0218 -0.3423  0.3697
 1002YOPC   C4A14448   6.390  13.014   6.866  0.1803 -0.1445  0.0665
 1002YOPC   C1B14449   5.549  12.434   6.912  0.0159  0.1799 -0.0183
 1002YOPC   C2B14450   5.344  12.341   7.320  0.1389  0.0024  0.0041
 1002YOPC   D3B14451   5.393  11.898   7.519 -0.0246 -0.3530  0.1496
 1002YOPC   C4B14452   5.410  11.677   7.876 -0.1395  0.2523 -0.2219
 1003YOPC   NC314453   0.100  14.222   5.332 -0.1306  0.0159 -0.5157
 1003YOPC   PO414454   0.406  13.923   5.348 -0.2340 -0.0799  0.1006
 1003YOPC   GL114455   0.339  14.116   5.804 -0.0088 -0.2687  0.0284
 1003YOPC   GL214456  -0.011  14.159   5.833 -0.1940  0.2340 -0.1669
 1003YOPC   C1A14457   0.513  14.297   6.118  0.2419 -0.0990  0.2267
 1003YOPC   D2A14458   0.806  14.255   6.501  0.0162 -0.2191 -0.3544
 1003YOPC   C3A14459   1.009  14.556   6.746 -0.0682 -0.0959  0.0229
 1003YOPC   C4A14460   1.215  14.775   7.082  0.4190 -0.3180  0.0325
 1003YOPC   C1B14461   0.039  14.233   6.313 -0.2795  0.0941 -0.2505
 1003YOPC   C2B14462   0.163  14.050   6.791 -0.3430 -0.2699  0.1232
 1003YOPC   D3B14463   0.141  14.366   7.061  0.1494 -0.3105 -0.3518
 1003YOPC   C4B14464   0.287  14.670   7.273 -0.1721  0.1410  0.2237
 1004YOPC   NC314465   6.958  18.098   5.017 -0.1778  0.0250  0.3380
 1004YOPC   PO414466   6.478  17.969   5.101  0.4036 -0.3405  0.1467
 1004YOPC   GL114467   6.270  18.112   5.563 -0.0004 -0.0722 -0.1174
 1004YOPC   GL214468   6.237  18.389   5.766 -0.3321 -0.0112 -0.2065
 1004YOPC   C1A14469   6.264  17.983   6.020 -0.0661 -0.3184 -0.0313
 1004YOPC   D2A14470   6.159  17.781   6.384  0.0490  0.0106  0.0444
 1004YOPC   C3A14471   5.788  17.609   6.658 -0.1564 -0.3997 -0.2930
 1004YOPC   C4A14472   5.483  17.291   6.836 -0.0721 -0.0932  0.3512
 1004YOPC   C1B14473   6.222  18.553   6.148  0.1556  0.0029  0.0353
 1004YOPC   C2B14474   6.132  18.622   6.592 -0.2351  0.2789 -0.0450
 1004YOPC   D3B14475   6.504  18.750   6.952 -0.2431  0.2463 -0.1961
 1004YOPC   C4B14476   6.726  18.768   7.331 -0.2008  0.5375  0.3637
 1005YOPC   NC314477   9.363   1.657   4.989 -0.0926 -0.0090  0.1085
 1005YOPC   PO414478   9.605   2.027   5.023 -0.1498  0.3307  0.2843
 1005YOPC   GL114479   9.696   1.800   5.375  0.3754  0.1651  0.2031
 1005YOPC   GL214480   9.850   2.007   5.597 -0.0067 -0.2621  0.4048
 1005YOPC   C1A14481   9.509   1.771   5.848 -0.0756  0.0363 -0.1370
 1005YOPC   D2A14482   9.216   1.758   6.304  0.2989 -0.0480  0.3107
 1005YOPC   C3A14483   9.321   1.346   6.497  0.1813 -0.0276 -0.2817
 1005YOPC   C4A14484   9.056   0.987   6.494  0.0804 -0.0125  0.0056
 1005YOPC   C1B14485  10.007   2.045   5.933  0.0405  0.2833 -0.0361
 1005YOPC   C2B14486   9.852   1.860   6.225  0.1802  0.0283  0.0899
 1005YOPC   D3B14487   9.836   1.480   6.152  0.0396  0.5668 -0.2624
 1005YOPC   C4B14488  10.008   0.983   6.350  0.0840 -0.0624 -0.0928
 1006YOPC   NC314489  11.317  12.771   5.025 -0.1276  0.2716  0.1394
 1006YOPC   PO414490  10.787  12.687   5.083  0.4161 -0.1549 -0.4450
 1006YOPC   GL114491  11.063  12.670   5.454 -0.1093 -0.5460  0.0444
 1006YOPC   GL214492  11.232  12.371   5.505 -0.0824  0.0105 -0.0317
 1006YOPC   C1A14493  10.924  12.671   5.839  0.0831  0.3948  0.3359
 1006YOPC   D2A14494  10.615  12.708   6.264 -0.1273  0.1890  0.0445
 1006YOPC   C3A14495  10.693  12.949   6.643 -0.4106 -0.0538 -0.0761
 1006YOPC   C4A14496  10.876  12.840   7.181  0.0620  0.1383  0.0540
 1006YOPC   C1B14497  11.175  12.206   5.791  0.1051 -0.0525  0.1550
 1006YOPC   C2B14498  11.099  12.312   6.198  0.0242  0.2447  0.1455
 1006YOPC   D3B14499  11.353  12.206   6.640 -0.4143 -0.0144  0.1388
 1006YOPC   C4B14500  11.181  12.229   7.004 -0.1111  0.0366  0.3207
 1007YOPC   NC314501  14.567  12.501   4.799 -0.2443 -0.0144  0.3992
 1007YOPC   PO414502  14.282  12.118   4.742  0.0416 -0.2115  0.0814
 1007YOPC   GL114503  14.177  12.292   5.210  0.1338 -0.4003 -0.3713
 1007YOPC   GL214504  13.862  12.225   5.404 -0.1978  0.1301  0.2261
 1007YOPC   C1A14505  14.420  12.603   5.710  0.0410  0.1685 -0.0584
 1007YOPC   D2A14506  14.716  12.795   5.661 -0.2278  0.0799 -0.1969
 1007YOPC   C3A14507  14.893  13.138   5.859 -0.0812 -0.0495 -0.1423
 1007YOPC   C4A14508  15.030  13.543   5.799 -0.1414 -0.0251 -0.0945
 1007YOPC   C1B14509  13.418  12.273   5.557  0.1702  0.1640 -0.0280
 1007YOPC   C2B14510  13.285  12.382   5.899 -0.1576 -0.0141  0.1702
 1007YOPC   D3B14511  13.184  12.248   6.271  0.0969  0.0113  0.1040
 1007YOPC   C4B14512  13.177  12.231   6.684  0.2001 -0.1040 -0.0383
 1008YOPC   NC314513  12.155   7.603   4.882 -0.1881 -0.0192  0.1258
 1008YOPC   PO414514  12.242   8.051   4.833  0.1463 -0.1308  0.0854
 1008YOPC   GL114515  12.433   7.916   5.244 -0.4129 -0.1771 -0.1096
 1008YOPC   GL214516  12.444   7.628   5.360  0.0485 -0.2206 -0.0818
 1008YOPC   C1A14517  12.788   8.029   5.447  0.0831  0.0634  0.4885
 1008YOPC   D2A14518  13.114   8.357   5.430 -0.1387 -0.0669  0.0119
 1008YOPC   C3A14519  13.286   8.163   5.906  0.2938  0.1564  0.0913
 1008YOPC   C4A14520  13.606   7.854   6.031 -0.0359 -0.0708  0.0807
 1008YOPC   C1B14521  12.295   7.264   5.542  0.1193 -0.0141  0.0742
 1008YOPC   C2B14522  12.327   6.937   5.817  0.0645 -0.2988  0.0011
 1008YOPC   D3B14523  12.470   7.000   6.223 -0.1998 -0.2207 -0.0340
 1008YOPC   C4B14524  12.563   6.895   6.656 -0.0207  0.1724 -0.1874
 1009YOPC   NC314525   2.452   3.934   5.998 -0.3094 -0.0617 -0.1249
 1009YOPC   PO414526   2.327   3.415   6.002  0.3844  0.2630 -0.0134
 1009YOPC   GL114527   2.219   3.173   6.442  0.3462 -0.2124  0.1691
 1009YOPC   GL214528   2.487   2.994   6.523 -0.1238 -0.3068  0.4869
 1009YOPC   C1A14529   1.887   2.956   6.553  0.2123 -0.0076 -0.1461
 1009YOPC   D2A14530   1.699   2.768   6.934 -0.0713 -0.1622 -0.0210
 1009YOPC   C3A14531   1.711   3.010   7.352 -0.1879 -0.0398  0.3254
 1009YOPC   C4A14532   1.695   3.315   7.591  0.0250  0.0543  0.2579
 1009YOPC   C1B14533   2.646   2.728   6.862 -0.0063 -0.1199  0.0401
 1009YOPC   C2B14534   2.535   2.590   7.174 -0.2434  0.1344 -0.1980
 1009YOPC   D3B14535   2.837   2.368   7.395  0.0042  0.0013 -0.0823
 1009YOPC   C4B14536   2.895   2.039   7.633  0.0937  0.0503 -0.1063
 1010YOPC   NC314537  16.667  15.784   4.907  0.1551 -0.2851 -0.0915
 1010YOPC   PO414538  16.507  15.701   5.192  0.1306 -0.2651  0.2686
 1010YOPC   GL114539  16.718  15.514   5.511  0.2768 -0.0456 -0.1290
 1010YOPC   GL214540  16.426  15.211   5.598  0.2458  0.0535 -0.1056
 1010YOPC   C1A14541  16.766  15.348   5.942  0.1675  0.0132 -0.1405
 1010YOPC   D2A14542  16.644  15.449   6.316  0.4007  0.1041  0.0591
 1010YOPC   C3A14543  16.356  15.468   6.664  0.1245  0.1326  0.3757
 1010YOPC   C4A14544  15.998  15.140   6.896 -0.4698 -0.0269 -0.0572
 1010YOPC   C1B14545  16.305  15.287   5.986  0.1208  0.3697 -0.1777
 1010YOPC   C2B14546  16.067  15.577   6.285  0.1602 -0.1583 -0.0419
 1010YOPC   D3B14547  15.763  15.933   6.187  0.0427 -0.0197  0.0469
 1010YOPC   C4B14548  15.318  15.800   5.950  0.1960 -0.0540  0.2938
 1011YOPC   NC314549  17.159   1.797   5.069  0.3323 -0.2926  0.0489
 1011YOPC   PO414550  16.774   1.759   5.251 -0.0380  0.1154  0.3198
 1011YOPC   GL114551  16.777   1.775   5.692 -0.0378  0.1851 -0.0262
 1011YOPC   GL214552  17.083   1.867   5.796 -0.1204  0.0390 -0.1435
 1011YOPC   C1A14553  16.544   1.635   5.987  0.0143  0.0063 -0.1300
 1011YOPC   D2A14554  16.523   1.592   6.364  0.5119 -0.1577 -0.1108
 1011YOPC   C3A14555  16.279   1.828   6.543 -0.1177 -0.0190 -0.0590
 1011YOPC   C4A14556  16.010   1.659   6.914 -0.0942 -0.0594  0.0457
 1011YOPC   C1B14557  17.274   1.979   6.123  0.0075 -0.0727 -0.1334
 1011YOPC   C2B14558  17.252   2.314   6.410  0.1837  0.0823 -0.0235
 1011YOPC   D3B14559  17.220   2.217   6.844  0.4664  0.0382  0.1268
 1011YOPC   C4B14560  17.360   2.027   7.253 -0.0178  0.3300  0.2065
 1012YOPC   NC314561   6.683   9.623   5.564 -0.2205  0.0478  0.2286
 1012YOPC   PO414562   6.532   9.436   5.936  0.0853  0.3289  0.2354
 1012YOPC   GL114563   6.541   9.217   6.302 -0.1477 -0.3292  0.3023
 1012YOPC   GL214564   6.721   8.971   6.503  0.1514 -0.2085 -0.0919
 1012YOPC   C1A14565   6.225   8.937   6.424  0.2377 -0.1710  0.0784
 1012YOPC   D2A14566   5.896   8.753   6.622 -0.1334  0.1680  0.0857
 1012YOPC   C3A14567   5.725   8.338   6.564 -0.0921  0.3115  0.0296
 1012YOPC   C4A14568   5.839   7.938   6.597 -0.2394 -0.2161 -0.0314
 1012YOPC   C1B14569   6.852   8.988   6.935 -0.2181 -0.2316 -0.0773
 1012YOPC   C2B14570   7.096   8.881   7.249  0.2281 -0.1934  0.2668
 1012YOPC   D3B14571   7.080   9.057   7.631 -0.1316 -0.0111  0.1726
 1012YOPC   C4B14572   6.769   9.329   7.763 -0.1838 -0.1831 -0.2262
 1013YOPC   NC314573  11.104   8.634   5.432  0.2175 -0.0581  0.0671
 1013YOPC   PO414574  10.862   8.987   5.353  0.3787 -0.0515  0.2863
 1013YOPC   GL114575  10.762   8.988   5.727  0.0635  0.3704  0.2259
 1013YOPC   GL214576  11.058   8.960   5.931 -0.1478 -0.3334  0.0642
 1013YOPC   C1A14577  10.602   9.189   6.124  0.0115  0.0757  0.0926
 1013YOPC   D2A14578  10.467   9.417   6.464 -0.2911  0.2947  0.0310
 1013YOPC   C3A14579  10.600   9.214   6.907 -0.0658  0.0492  0.0577
 1013YOPC   C4A14580  10.901   9.139   7.162 -0.2030 -0.3417  0.0075
 1013YOPC   C1B14581  10.888   8.822   6.200  0.1398 -0.0059 -0.4452
 1013YOPC   C2B14582  10.925   8.990   6.543 -0.0483 -0.0148 -0.0491
 1013YOPC   D3B14583  10.954   8.698   6.870 -0.2257  0.2124 -0.0434
 1013YOPC   C4B14584  11.171   8.453   7.177  0.0921  0.1146 -0.1208
 1014YOPC   NC314585   1.588  14.772   5.437  0.0048  0.2671 -0.1814
 1014YOPC   PO414586   1.438  15.137   5.765 -0.2142  0.0093 -0.1088
 1014YOPC   GL114587   1.428  15.000   6.066  0.2686  0.1181  0.1172
 1014YOPC   GL214588   1.353  15.162   6.254  0.1604  0.0941  0.2721
 1014YOPC   C1A14589   1.814  14.868   6.296 -0.0214  0.0907  0.4267
 1014YOPC   D2A14590   2.087  14.647   6.579 -0.1891  0.2838  0.0644
 1014YOPC   C3A14591   2.385  14.406   6.316  0.2249 -0.2859 -0.2443
 1014YOPC   C4A14592   2.847  14.418   6.257  0.1595  0.0250  0.0327
 1014YOPC   C1B14593   1.064  15.415   6.653  0.0680  0.2608 -0.0846
 1014YOPC   C2B14594   1.083  15.837   6.879 -0.2952 -0.1350 -0.0117
 1014YOPC   D3B14595   1.375  16.044   7.142  0.1455 -0.1389 -0.1788
 1014YOPC   C4B14596   1.719  16.299   7.400  0.2139  0.0915  0.0174
 1015YOPC   NC314597   4.975  11.034   5.703  0.1715 -0.2201 -0.2459
 1015YOPC   PO414598   5.296  10.804   5.571 -0.0023  0.0432  0.1002
 1015YOPC   GL114599   5.462  10.730   6.029 -0.0850 -0.0801 -0.0575
 1015YOPC   GL214600   5.708  10.508   6.186 -0.0946 -0.2747 -0.2565
 1015YOPC   C1A14601   5.619  10.878   6.479 -0.0535  0.0235 -0.4012
 1015YOPC   D2A14602   5.570  11.090   6.895 -0.3282 -0.2855  0.4453
 1015YOPC   C3A14603   5.342  11.433   6.846 -0.1862  0.0878 -0.2673
 1015YOPC   C4A14604   4.902  11.430   7.042 -0.0554 -0.4344 -0.2111
 1015YOPC   C1B14605   5.755  10.305   6.610 -0.3092  0.0622 -0.3091
 1015YOPC   C2B14606   5.745  10.167   7.008  0.1342 -0.0288  0.3268
 1015YOPC   D3B14607   6.100   9.913   7.232 -0.2618  0.4623  0.4292
 1015YOPC   C4B14608   6.454   9.594   7.327 -0.1137 -0.1461 -0.1601
 1016YOPC   NC314609  13.065  16.319   4.910  0.3470  0.3846  0.0564
 1016YOPC   PO414610  13.390  16.565   4.939 -0.4248  0.1621  0.0960
 1016YOPC   GL114611  13.556  16.461   5.349  0.4236  0.0705 -0.1156
 1016YOPC   GL214612  13.891  16.548   5.517  0.0453 -0.4146  0.0212
 1016YOPC   C1A14613  13.557  16.367   5.802 -0.3310  0.0767  0.2471
 1016YOPC   D2A14614  13.459  16.380   6.197 -0.0451  0.0510 -0.0821
 1016YOPC   C3A14615  13.365  16.104   6.496  0.3245  0.0764  0.0857
 1016YOPC   C4A14616  13.305  15.827   6.493 -0.0103  0.2617  0.0731
 1016YOPC   C1B14617  13.827  16.783   5.925  0.2063  0.2248  0.1694
 1016YOPC   C2B14618  13.852  16.733   6.448  0.3317 -0.0429 -0.0943
 1016YOPC   D3B14619  14.089  16.557   6.842  0.2232 -0.2883  0.0480
 1016YOPC   C4B14620  14.560  16.628   6.844 -0.0093 -0.2503  0.0722
 1017YOPC   NC314621  12.427   2.981   5.111  0.1925  0.0909  0.1412
 1017YOPC   PO414622  12.397   2.666   5.433 -0.1553  0.1269  0.1041
 1017YOPC   GL114623  12.265   2.409   5.914 -0.1235 -0.2912 -0.0462
 1017YOPC   GL214624  12.521   2.467   6.036  0.4176 -0.1182 -0.5745
 1017YOPC   C1A14625  12.122   2.133   6.132  0.2965 -0.2709  0.1269
 1017YOPC   D2A14626  12.244   1.956   6.488  0.2817 -0.0167  0.0778
 1017YOPC   C3A14627  11.863   2.045   6.606 -0.1820 -0.1394 -0.2879
 1017YOPC   C4A14628  11.471   2.225   6.702  0.0833  0.0874  0.2378
 1017YOPC   C1B14629  12.543   2.410   6.427  0.0842 -0.4175  0.1496
 1017YOPC   C2B14630  12.618   2.098   6.806  0.0883 -0.2108  0.2832
 1017YOPC   D3B14631  12.947   1.993   7.052  0.2445  0.1264 -0.0429
 1017YOPC   C4B14632  13.359   1.851   7.020 -0.0384  0.1681 -0.0190
 1018YOPC   NC314633   1.113   8.132   5.290  0.2693  0.0988 -0.1590
 1018YOPC   PO414634   1.132   8.515   5.654 -0.0896  0.2313  0.4159
 1018YOPC   GL114635   1.232   8.681   6.069  0.2060  0.1100  0.2423
 1018YOPC   GL214636   1.117   9.038   6.016 -0.0928  0.1092 -0.1872
 1018YOPC   C1A14637   1.174   8.905   6.472 -0.2406  0.0683 -0.3453
 1018YOPC   D2A14638   1.081   8.917   6.858 -0.2613 -0.1846 -0.1975
 1018YOPC   C3A14639   1.183   8.967   7.327 -0.1229  0.3131  0.0596
 1018YOPC   C4A14640   1.114   8.938   7.674 -0.0976  0.3582 -0.0532
 1018YOPC   C1B14641   0.718   9.071   6.284  0.0868 -0.1103 -0.3135
 1018YOPC   C2B14642   0.367   9.209   6.493  0.0334 -0.0637 -0.0698
 1018YOPC   D3B14643   0.445   8.911   6.764  0.1932 -0.1468 -0.2204
 1018YOPC   C4B14644   0.521   8.756   7.188  0.2508  0.2608 -0.3368
 1019YOPC   NC314645   7.258  17.194   4.912 -0.0827  0.2143  0.0293
 1019YOPC   PO414646   7.300  16.781   4.924 -0.1269  0.2560  0.0869
 1019YOPC   GL114647   7.237  16.752   5.355 -0.3299 -0.1268 -0.1093
 1019YOPC   GL214648   7.175  16.339   5.423  0.0073  0.1244  0.0575
 1019YOPC   C1A14649   7.595  16.750   5.582  0.0546  0.3141 -0.2659
 1019YOPC   D2A14650   7.962  16.706   5.634 -0.0161 -0.1438  0.1382
 1019YOPC   C3A14651   8.108  16.927   5.994  0.2132 -0.0527  0.1914
 1019YOPC   C4A14652   8.153  17.162   6.276  0.1054 -0.1029 -0.1398
 1019YOPC   C1B14653   7.218  16.346   5.830 -0.0248  0.0961  0.2254
 1019YOPC   C2B14654   7.105  16.525   6.182  0.0316  0.3163 -0.1757
 1019YOPC   D3B14655   7.186  16.852   6.416  0.0134  0.0195  0.2437
 1019YOPC   C4B14656   7.272  16.954   6.875  0.1825 -0.0746 -0.0476
 1020YOPC   NC314657   7.713   5.459   5.140 -0.0588 -0.1370 -0.0185
 1020YOPC   PO414658   7.665   5.006   5.413 -0.0761  0.3884  0.0018
 1020YOPC   GL114659   7.371   5.099   5.873 -0.1635 -0.1454 -0.1069
 1020YOPC   GL214660   7.585   4.958   6.012  0.1454 -0.1248  0.3910
 1020YOPC   C1A14661   7.374   5.227   6.388  0.0915 -0.2401 -0.0218
 1020YOPC   D2A14662   7.442   5.109   6.791  0.0955 -0.1123 -0.0584
 1020YOPC   C3A14663   7.825   5.155   7.069  0.1404 -0.1467  0.4199
 1020YOPC   C4A14664   8.149   5.083   7.358  0.2861 -0.1907  0.6278
 1020YOPC   C1B14665   7.614   4.714   6.343  0.0223  0.1770  0.0739
 1020YOPC   C2B14666   7.386   4.562   6.628  0.0363  0.4613 -0.1672
 1020YOPC   D3B14667   7.498   4.179   6.811 -0.0808 -0.1865  0.0774
 1020YOPC   C4B14668   7.407   3.725   6.799  0.0464 -0.0101 -0.0781
 1021YOPC   NC314669   9.187   6.989   5.298  0.0353 -0.0049  0.1088
 1021YOPC   PO414670   9.224   7.408   5.291  0.2195 -0.3050  0.5458
 1021YOPC   GL114671   9.574   7.530   5.469 -0.3103 -0.0259 -0.0565
 1021YOPC   GL214672   9.385   7.812   5.760 -0.1573  0.0980  0.0701
 1021YOPC   C1A14673   9.579   7.356   5.986  0.1773  0.0668  0.1569
 1021YOPC   D2A14674   9.502   7.400   6.457 -0.0657 -0.0043 -0.2845
 1021YOPC   C3A14675   9.769   7.599   6.693  0.0175 -0.0306 -0.1379
 1021YOPC   C4A14676   9.827   7.862   6.990 -0.2912 -0.1779  0.1744
 1021YOPC   C1B14677   9.188   7.603   6.152  0.3465  0.0242  0.3053
 1021YOPC   C2B14678   9.063   7.554   6.639 -0.4690 -0.0184 -0.0716
 1021YOPC   D3B14679   8.899   7.538   7.008 -0.1327  0.1169 -0.1684
 1021YOPC   C4B14680   8.735   7.455   7.406  0.0398  0.1202 -0.1229
 1022YOPC   NC314681  12.386   9.921   4.758 -0.1229  0.0151 -0.1284
 1022YOPC   PO414682  12.176   9.816   5.088  0.3248  0.0124 -0.1171
 1022YOPC   GL114683  12.458   9.730   5.437  0.1816 -0.0808 -0.0163
 1022YOPC   GL214684  12.498  10.096   5.606  0.0790 -0.0121  0.0805
 1022YOPC   C1A14685  12.386   9.571   5.791 -0.0201 -0.3449  0.2145
 1022YOPC   D2A14686  12.094   9.394   6.066 -0.0527 -0.1816 -0.1267
 1022YOPC   C3A14687  12.028   9.557   6.443  0.3843 -0.1387  0.0935
 1022YOPC   C4A14688  12.082   9.879   6.798  0.1419 -0.0709 -0.0183
 1022YOPC   C1B14689  12.670  10.009   6.073  0.1553 -0.2130  0.4643
 1022YOPC   C2B14690  12.446   9.945   6.386 -0.0543 -0.0273  0.1957
 1022YOPC   D3B14691  12.576   9.690   6.628 -0.1811 -0.3196 -0.0436
 1022YOPC   C4B14692  12.445   9.327   6.796 -0.1585  0.2015  0.0353
 1023YOPC   NC314693  11.849  17.419   4.672 -0.2460 -0.3287  0.1875
 1023YOPC   PO414694  11.485  17.459   4.919 -0.1786  0.0676 -0.1154
 1023YOPC   GL114695  11.685  17.391   5.315  0.2425  0.2336 -0.0978
 1023YOPC   GL214696  11.582  17.189   5.606  0.3928 -0.0477 -0.2279
 1023YOPC   C1A14697  11.999  17.427   5.617  0.1684  0.0234  0.2650
 1023YOPC   D2A14698  12.436  17.513   5.715  0.0482  0.0716  0.1599
 1023YOPC   C3A14699  12.769  17.340   5.579  0.0911 -0.1620 -0.1247
 1023YOPC   C4A14700  13.073  16.990   5.527 -0.2363 -0.4449 -0.2139
 1023YOPC   C1B14701  11.602  17.244   6.084  0.1998  0.1209 -0.2344
 1023YOPC   C2B14702  11.689  17.352   6.525 -0.3033 -0.1410  0.1334
 1023YOPC   D3B14703  11.910  17.146   6.857 -0.1409  0.1022 -0.0429
 1023YOPC   C4B14704  11.994  17.019   7.260 -0.3419  0.0330 -0.0542
 1024YOPC   NC314705  17.940   8.367   5.311  0.1704  0.0358  0.1181
 1024YOPC   PO414706  18.076   7.926   5.345  0.1783  0.0181 -0.0786
 1024YOPC   GL114707  17.842   7.682   5.754 -0.0349  0.0259 -0.2860
 1024YOPC   GL214708  17.621   7.821   5.963  0.4184  0.3767  0.0471
 1024YOPC   C1A14709  17.549   7.355   6.012 -0.1109  0.1074  0.3765
 1024YOPC   D2A14710  17.206   7.409   6.229 -0.1250  0.0461 -0.4177
 1024YOPC   C3A14711  17.188   7.839   6.274  0.1360 -0.2054 -0.0789
 1024YOPC   C4A14712  16.811   8.072   6.241 -0.1112  0.1093 -0.1662
 1024YOPC   C1B14713  17.736   8.086   6.279 -0.4665 -0.1274  0.0305
 1024YOPC   C2B14714  17.861   8.134   6.665  0.1779 -0.2287  0.1377
 1024YOPC   D3B14715  17.608   8.077   7.052 -0.0500  0.1115 -0.0969
 1024YOPC   C4B14716  17.099   7.911   7.221  0.4422 -0.2068  0.1041
 1025YOPC   NC314717  15.235   8.549   5.458  0.0793 -0.1185 -0.3472
 1025YOPC   PO414718  15.507   8.659   5.562 -0.0100 -0.1606 -0.0419
 1025YOPC   GL114719  15.547   8.240   5.739  0.1752  0.5371  0.0751
 1025YOPC   GL214720  15.285   7.983   5.610  0.0873  0.2204  0.1649
 1025YOPC   C1A14721  15.706   7.753   6.023  0.5352  0.0247  0.6992
 1025YOPC   D2A14722  15.987   7.732   6.365 -0.0387  0.1240 -0.2830
 1025YOPC   C3A14723  15.876   7.970   6.644  0.2267 -0.1112 -0.0546
 1025YOPC   C4A14724  15.579   8.274   6.705  0.1469  0.0554  0.2912
 1025YOPC   C1B14725  15.232   7.836   5.889 -0.0632  0.3802  0.0398
 1025YOPC   C2B14726  15.227   7.653   6.272  0.0734 -0.0604 -0.0497
 1025YOPC   D3B14727  15.362   7.615   6.678  0.2297  0.0646  0.0008
 1025YOPC   C4B14728  15.280   7.521   7.113  0.1182  0.1012 -0.2004
 1026YOPC   NC314729  11.805   4.511   5.136  0.0328 -0.1878 -0.1963
 1026YOPC   PO414730  11.353   4.650   5.222 -0.0304 -0.5149  0.3951
 1026YOPC   GL114731  11.440   4.333   5.610  0.1911  0.2283  0.1525
 1026YOPC   GL214732  11.774   4.310   5.654 -0.2632 -0.1257  0.2376
 1026YOPC   C1A14733  11.137   4.182   5.958 -0.1791 -0.4420 -0.1310
 1026YOPC   D2A14734  10.757   3.963   6.032 -0.0052 -0.0558  0.0112
 1026YOPC   C3A14735  10.840   3.539   6.245 -0.0946  0.0090 -0.0097
 1026YOPC   C4A14736  11.173   3.463   6.396 -0.1963  0.1270  0.0862
 1026YOPC   C1B14737  11.948   4.602   6.018 -0.2055 -0.1992  0.1239
 1026YOPC   C2B14738  11.915   5.037   6.215 -0.0997 -0.0256 -0.2619
 1026YOPC   D3B14739  11.845   5.086   6.559  0.0001  0.0681  0.1319
 1026YOPC   C4B14740  11.692   5.385   6.885  0.0052  0.0789 -0.0409
 1027YOPC   NC314741  16.559  14.698   5.496 -0.2109 -0.0481 -0.0708
 1027YOPC   PO414742  16.249  14.387   5.409  0.0620  0.0232 -0.0109
 1027YOPC   GL114743  16.002  14.149   5.769 -0.2067  0.1497 -0.0998
 1027YOPC   GL214744  15.640  14.295   5.852  0.0965  0.0297  0.2144
 1027YOPC   C1A14745  16.019  13.821   6.156  0.2801 -0.1353  0.0833
 1027YOPC   D2A14746  15.790  13.492   6.418 -0.1271  0.1349 -0.1093
 1027YOPC   C3A14747  16.026  13.131   6.387  0.0934 -0.0356 -0.0420
 1027YOPC   C4A14748  16.158  12.766   6.529 -0.0428 -0.1309 -0.0856
 1027YOPC   C1B14749  15.460  14.351   6.246 -0.0888  0.1038  0.2128
 1027YOPC   C2B14750  15.460  14.427   6.675 -0.0101  0.0768 -0.1905
 1027YOPC   D3B14751  15.155  14.766   6.811 -0.1807  0.2564 -0.1800
 1027YOPC   C4B14752  15.109  15.197   6.848  0.1471 -0.2433  0.0510
 1028YOPC   NC314753   1.294  10.162   5.116 -0.0241  0.0794  0.3383
 1028YOPC   PO414754   1.094  10.177   5.549  0.0656  0.0099 -0.1799
 1028YOPC   GL114755   0.840  10.151   5.992 -0.0827 -0.4706 -0.1424
 1028YOPC   GL214756   0.793  10.528   5.905 -0.0504 -0.0536  0.3662
 1028YOPC   C1A14757   0.937  10.135   6.420 -0.2032  0.0186  0.1401
 1028YOPC   D2A14758   0.960  10.441   6.819 -0.2441  0.3678  0.0345
 1028YOPC   C3A14759   0.879  10.377   7.290 -0.3000 -0.0639 -0.1662
 1028YOPC   C4A14760   0.852  10.579   7.724  0.0324 -0.3822 -0.4176
 1028YOPC   C1B14761   0.645  10.542   6.316 -0.1672 -0.1561 -0.0682
 1028YOPC   C2B14762   0.482  10.680   6.661  0.0712 -0.0760  0.3476
 1028YOPC   D3B14763   0.498  10.626   7.099 -0.0306  0.1212  0.0329
 1028YOPC   C4B14764   0.583  10.997   7.455 -0.1812  0.2376  0.2222
 1029YOPC   NC314765   9.326  18.577   5.070 -0.1746 -0.1565  0.2083
 1029YOPC   PO414766   9.706  18.508   5.245  0.2398  0.0927 -0.1244
 1029YOPC   GL114767   9.636  18.500   5.600  0.0335 -0.1666  0.2922
 1029YOPC   GL214768   9.939  18.585   5.701 -0.0765 -0.0381 -0.2157
 1029YOPC   C1A14769   9.370  18.317   5.851 -0.0080 -0.0460  0.0423
 1029YOPC   D2A14770   9.188  18.113   6.185 -0.0941  0.0234  0.2205
 1029YOPC   C3A14771   9.117  18.194   6.699  0.0431 -0.1319  0.1163
 1029YOPC   C4A14772   9.232  17.937   7.082 -0.0941  0.3158  0.0985
 1029YOPC   C1B14773   9.940  18.773   6.028  0.0294 -0.0694 -0.0472
 1029YOPC   C2B14774   9.858  18.895   6.436 -0.1964  0.2344  0.1647
 1029YOPC   D3B14775   9.845  18.756   6.778 -0.0922  0.0544 -0.1883
 1029YOPC   C4B14776  10.133  18.739   7.120 -0.4588  0.4038  0.0124
 1030YOPC   NC314777  15.494   4.169   4.739  0.0533 -0.0933 -0.1868
 1030YOPC   PO414778  15.303   4.035   5.118 -0.1355  0.3326  0.1107
 1030YOPC   GL114779  15.249   4.171   5.503  0.1827 -0.1376  0.5470
 1030YOPC   GL214780  14.876   4.175   5.439  0.4139  0.4260  0.3884
 1030YOPC   C1A14781  15.063   4.257   5.867 -0.1701  0.1044  0.0211
 1030YOPC   D2A14782  15.326   4.286   6.151  0.0921 -0.3506 -0.2023
 1030YOPC   C3A14783  15.630   4.571   6.176  0.1801 -0.1279 -0.1150
 1030YOPC   C4A14784  15.901   4.717   6.267 -0.2501  0.1467  0.1530
 1030YOPC   C1B14785  14.790   3.918   5.716 -0.0771 -0.2429 -0.0396
 1030YOPC   C2B14786  14.751   3.722   6.183 -0.1226 -0.1152 -0.0214
 1030YOPC   D3B14787  14.405   3.903   6.509  0.0133 -0.0500  0.0822
 1030YOPC   C4B14788  14.392   4.133   6.769 -0.0723  0.0338  0.0780
 1031YOPC   NC314789   8.447   7.847   5.078 -0.1706 -0.0643  0.0130
 1031YOPC   PO414790   8.665   7.435   5.407 -0.1341 -0.1156 -0.5161
 1031YOPC   GL114791   8.616   7.590   5.797  0.0125  0.1472 -0.0279
 1031YOPC   GL214792   8.300   7.732   5.986  0.1798  0.0268  0.1711
 1031YOPC   C1A14793   8.719   7.519   6.250  0.0604  0.0837 -0.0155
 1031YOPC   D2A14794   8.510   7.522   6.713  0.0740 -0.0972 -0.1603
 1031YOPC   C3A14795   8.121   7.267   6.935 -0.2662  0.0116  0.2163
 1031YOPC   C4A14796   8.068   6.885   7.023 -0.0601  0.0906 -0.0505
 1031YOPC   C1B14797   8.411   7.971   6.312 -0.1619  0.4914  0.0447
 1031YOPC   C2B14798   8.247   8.247   6.534 -0.0925 -0.1096 -0.1647
 1031YOPC   D3B14799   7.838   8.493   6.554  0.0948  0.0228 -0.3513
 1031YOPC   C4B14800   7.828   8.640   6.892  0.0008 -0.0735  0.1834
 1032YOPC   NC314801   7.218  16.274   4.936 -0.0428 -0.1122  0.0366
 1032YOPC   PO414802   6.736  16.187   5.203  0.0633 -0.1336  0.2372
 1032YOPC   GL114803   6.761  16.121   5.591 -0.1226 -0.1954 -0.0632
 1032YOPC   GL214804   7.001  15.894   5.695  0.2604  0.1022 -0.3752
 1032YOPC   C1A14805   6.781  16.176   6.045 -0.1539 -0.0315  0.3465
 1032YOPC   D2A14806   6.583  16.414   6.289 -0.3129 -0.0608  0.2154
 1032YOPC   C3A14807   6.659  16.414   6.671 -0.1749  0.1243  0.0593
 1032YOPC   C4A14808   6.820  16.736   6.919 -0.0304 -0.2402  0.1007
 1032YOPC   C1B14809   7.369  15.930   6.005  0.2619  0.2629  0.0248
 1032YOPC   C2B14810   7.735  15.905   6.248  0.4664  0.1284  0.0215
 1032YOPC   D3B14811   7.766  16.172   6.528 -0.0396 -0.1520 -0.1810
 1032YOPC   C4B14812   7.846  16.217   7.044 -0.0230  0.0973 -0.2798
 1033YOPC   NC314813   9.864   2.329   4.700  0.0569  0.1388  0.3101
 1033YOPC   PO414814   9.432   2.486   4.933 -0.0663  0.0201 -0.3150
 1033YOPC   GL114815   9.261   2.460   5.338  0.2035 -0.1961 -0.0121
 1033YOPC   GL214816   9.455   2.315   5.554 -0.2782  0.0112 -0.0946
 1033YOPC   C1A14817   8.970   2.462   5.682  0.0920 -0.2009  0.3953
 1033YOPC   D2A14818   8.967   2.139   6.008 -0.0388 -0.1189  0.1095
 1033YOPC   C3A14819   8.564   2.002   6.215  0.2157 -0.1587  0.1212
 1033YOPC   C4A14820   8.473   1.824   6.652 -0.0031  0.2160  0.2750
 1033YOPC   C1B14821   9.490   2.287   6.046  0.0754  0.4410  0.2638
 1033YOPC   C2B14822   9.434   2.170   6.457 -0.0886  0.2222  0.2961
 1033YOPC   D3B14823   9.518   1.781   6.637 -0.2658  0.0467 -0.1682
 1033YOPC   C4B14824   9.847   1.450   6.725  0.1876 -0.4005  0.1869
 1034YOPC   NC314825  18.134   4.527   5.341  0.0840 -0.1894  0.3313
 1034YOPC   PO414826  17.802   4.234   5.178  0.0607  0.2173  0.1384
 1034YOPC   GL114827  17.524   4.336   5.500  0.0878 -0.0367 -0.2314
 1034YOPC   GL214828  17.361   4.140   5.554 -0.2398 -0.0310 -0.3285
 1034YOPC   C1A14829  17.399   4.510   5.957 -0.3137  0.0639 -0.3524
 1034YOPC   D2A14830  17.386   4.239   6.287  0.0203 -0.2938  0.2182
 1034YOPC   C3A14831  17.660   4.311   6.600  0.1762 -0.1655 -0.0038
 1034YOPC   C4A14832  18.048   4.185   6.642  0.1635  0.0607 -0.0180
 1034YOPC   C1B14833  16.998   4.205   5.833 -0.2224 -0.4145 -0.1939
 1034YOPC   C2B14834  16.898   4.291   6.308 -0.1622 -0.0356  0.0818
 1034YOPC   D3B14835  16.602   4.285   6.703 -0.1645 -0.0508  0.2714
 1034YOPC   C4B14836  16.264   4.129   6.927  0.1776 -0.3123  0.2447
 1035YOPC   NC314837  17.693  14.820   4.913  0.0842 -0.1255 -0.0300
 1035YOPC   PO414838  17.712  14.527   5.149  0.2659  0.0754 -0.0902
 1035YOPC   GL114839  17.965  14.482   5.505  0.3638 -0.0949 -0.2188
 1035YOPC   GL214840  18.037  14.731   5.629 -0.1883 -0.0464  0.0494
 1035YOPC   C1A14841  17.911  14.389   5.982  0.3390  0.0168 -0.2029
 1035YOPC   D2A14842  18.055  14.260   6.364  0.0020  0.0245  0.4111
 1035YOPC   C3A14843  17.932  14.520   6.566 -0.0018 -0.0285  0.3189
 1035YOPC   C4A14844  17.646  14.555   6.778 -0.1323 -0.1580  0.0640
 1035YOPC   C1B14845  18.199  14.786   6.066 -0.1601  0.0257  0.1051
 1035YOPC   C2B14846  18.437  14.997   6.539 -0.3099  0.1950 -0.0592
 1035YOPC   D3B14847  18.646  14.960   6.968  0.0175  0.1400  0.0980
 1035YOPC   C4B14848  18.487  14.557   7.246  0.1114  0.1339  0.1862
 1036YOPC   NC314849  13.251  17.984   5.106  0.1796  0.0456  0.0887
 1036YOPC   PO414850  13.333  18.227   4.911 -0.1376 -0.0528  0.0308
 1036YOPC   GL114851  13.492  18.379   5.286 -0.0401  0.1532  0.1070
 1036YOPC   GL214852  13.184  18.413   5.441 -0.1246  0.0170 -0.3661
 1036YOPC   C1A14853  13.602  18.571   5.674  0.0010 -0.0614 -0.0046
 1036YOPC   D2A14854  13.291  18.586   6.056  0.1092 -0.1671  0.2288
 1036YOPC   C3A14855  12.920  18.718   6.285  0.1081 -0.0372  0.0938
 1036YOPC   C4A14856  12.618  18.708   6.565  0.1412 -0.0328 -0.0531
 1036YOPC   C1B14857  12.967  18.320   5.750 -0.1644  0.3830 -0.1428
 1036YOPC   C2B14858  12.789  18.282   6.112  0.0425 -0.1088 -0.0475
 1036YOPC   D3B14859  12.612  18.144   6.416 -0.2967  0.0361  0.0896
 1036YOPC   C4B14860  12.419  18.222   6.894  0.1513 -0.2229 -0.2391
 1037YOPC   NC314861  18.127  15.836   5.017 -0.2741 -0.1273  0.2636
 1037YOPC   PO414862  18.427  16.004   5.325 -0.0057 -0.2060  0.1078
 1037YOPC   GL114863  18.344  16.185   5.719 -0.0766  0.0571 -0.0928
 1037YOPC   GL214864  18.631  16.349   5.803  0.0266 -0.0242 -0.0853
 1037YOPC   C1A14865  18.236  16.528   6.015  0.1585 -0.0191  0.0099
 1037YOPC   D2A14866  17.899  16.810   6.106  0.0498  0.0176 -0.0544
 1037YOPC   C3A14867  17.545  16.716   6.260 -0.0357 -0.0049 -0.0083
 1037YOPC   C4A14868  17.350  16.416   6.547 -0.1011 -0.2114  0.0864
 1037YOPC   C1B14869  18.554  16.117   6.191 -0.1129  0.0113 -0.1302
 1037YOPC   C2B14870  18.781  16.032   6.593  0.1472 -0.1478 -0.0568
 1037YOPC   D3B14871  18.617  15.791   6.890  0.1616 -0.0613 -0.4186
 1037YOPC   C4B14872  18.501  15.400   7.162  0.1440 -0.0936 -0.1860
 1038YOPC   NC314873  11.445   7.910   5.402  0.0556 -0.2107 -0.1346
 1038YOPC   PO414874  11.494   8.302   5.234 -0.1779 -0.0957 -0.2837
 1038YOPC   GL114875  11.478   8.282   5.703  0.2613  0.0461  0.2510
 1038YOPC   GL214876  11.448   8.628   5.789  0.2771 -0.1132  0.0420
 1038YOPC   C1A14877  11.735   8.124   5.988 -0.1243  0.0564 -0.2264
 1038YOPC   D2A14878  12.019   7.779   6.244 -0.0336  0.0410 -0.3545
 1038YOPC   C3A14879  12.317   8.009   6.557  0.2298  0.0452 -0.4526
 1038YOPC   C4A14880  12.536   8.319   6.898 -0.0595  0.0615  0.2960
 1038YOPC   C1B14881  11.500   8.898   6.074 -0.1701 -0.0043  0.1090
 1038YOPC   C2B14882  11.839   9.056   6.366 -0.1793 -0.1023 -0.2465
 1038YOPC   D3B14883  11.898   8.743   6.713  0.0686  0.2298 -0.1509
 1038YOPC   C4B14884  11.991   8.562   6.995  0.0303  0.0056 -0.0639
 1039YOPC   NC314885   8.928  15.535   5.331  0.0417 -0.1930  0.3405
 1039YOPC   PO414886   9.096  15.195   5.486  0.2755 -0.0443  0.1615
 1039YOPC   GL114887   9.391  15.340   5.854  0.0410  0.3030  0.0995
 1039YOPC   GL214888   9.762  15.252   5.831 -0.3675 -0.2786  0.2125
 1039YOPC   C1A14889   9.494  15.598   6.245 -0.0858 -0.1453 -0.0074
 1039YOPC   D2A14890   9.468  16.093   6.380  0.0458  0.1892  0.1287
 1039YOPC   C3A14891   9.390  16.426   5.998  0.1440  0.4238 -0.0029
 1039YOPC   C4A14892   9.369  16.660   5.780  0.1109 -0.2109 -0.1997
 1039YOPC   C1B14893   9.751  15.158   6.238  0.4110 -0.1921  0.3179
 1039YOPC   C2B14894   9.566  15.147   6.536  0.1817 -0.0282  0.1361
 1039YOPC   D3B14895   9.458  14.983   6.997  0.0809  0.0260 -0.1595
 1039YOPC   C4B14896   9.179  15.143   7.225  0.1168 -0.0550 -0.2089
 1040YOPC   NC314897   3.310  13.040   5.401  0.1321  0.2879  0.0724
 1040YOPC   PO414898   3.509  13.411   5.532 -0.1457  0.3229 -0.3286
 1040YOPC   GL114899   3.429  13.563   5.911  0.2967  0.1044 -0.1107
 1040YOPC   GL214900   3.616  13.489   6.137  0.1586  0.0368 -0.1032
 1040YOPC   C1A14901   3.107  13.587   6.312 -0.0782  0.0325  0.1824
 1040YOPC   D2A14902   3.062  13.486   6.661 -0.1141  0.2209 -0.1947
 1040YOPC   C3A14903   3.475  13.197   6.651 -0.3052 -0.1221  0.1471
 1040YOPC   C4A14904   3.753  13.184   6.957  0.1196 -0.3556  0.1279
 1040YOPC   C1B14905   3.919  13.238   6.380  0.1973  0.2374 -0.5067
 1040YOPC   C2B14906   3.886  12.828   6.704 -0.0552 -0.2553  0.2119
 1040YOPC   D3B14907   4.161  12.811   7.025  0.1134 -0.1310  0.0892
 1040YOPC   C4B14908   4.220  12.692   7.449 -0.4196 -0.2253 -0.5567
 1041YOPC   NC314909   0.843  16.509   5.319 -0.1479  0.2596 -0.1293
 1041YOPC   PO414910   1.107  16.770   5.371  0.3032  0.1651 -0.0466
 1041YOPC   GL114911   1.051  16.877   5.745  0.0342  0.2418 -0.0964
 1041YOPC   GL214912   1.045  17.147   5.739  0.0518 -0.1039  0.0094
 1041YOPC   C1A14913   1.079  16.813   6.179 -0.1081  0.0194  0.0856
 1041YOPC   D2A14914   1.064  17.072   6.538 -0.2282 -0.0344  0.2300
 1041YOPC   C3A14915   1.093  16.876   6.909  0.4206  0.0384 -0.2313
 1041YOPC   C4A14916   0.942  16.484   7.041  0.0733  0.0087 -0.1331
 1041YOPC   C1B14917   0.698  17.181   5.994 -0.0640  0.0165  0.0789
 1041YOPC   C2B14918   0.535  17.542   6.090  0.2718 -0.1685  0.2187
 1041YOPC   D3B14919   0.591  17.920   6.325 -0.1291 -0.0790  0.4448
 1041YOPC   C4B14920   0.730  17.827   6.822 -0.0427  0.0818 -0.0034
 1042YOPC   NC314921   0.861  11.001   5.890 -0.1121 -0.0704  0.0660
 1042YOPC   PO414922   1.337  10.831   5.783 -0.3604 -0.0792 -0.0809
 1042YOPC   GL114923   1.445  10.784   6.192 -0.0372 -0.2349 -0.0178
 1042YOPC   GL214924   1.106  10.814   6.356  0.0263  0.0055  0.1540
 1042YOPC   C1A14925   1.436  10.772   6.721  0.3516 -0.0492 -0.0387
 1042YOPC   D2A14926   1.387  10.565   7.125  0.0486 -0.2012 -0.0113
 1042YOPC   C3A14927   1.674  10.930   7.365 -0.1247 -0.1737 -0.1765
 1042YOPC   C4A14928   2.036  11.155   7.627 -0.1736  0.1161  0.2067
 1042YOPC   C1B14929   1.202  11.233   6.599 -0.1116 -0.2165  0.3095
 1042YOPC   C2B14930   1.398  11.605   6.830 -0.3115 -0.0221 -0.5327
 1042YOPC   D3B14931   1.406  11.522   7.290 -0.0900 -0.1081  0.0386
 1042YOPC   C4B14932   1.563  11.270   7.626  0.2249  0.1509  0.1250
 1043YOPC   NC314933   2.926  17.974   4.666  0.1197 -0.0115 -0.2364
 1043YOPC   PO414934   2.460  18.097   4.846  0.2782  0.0251 -0.0315
 1043YOPC   GL114935   2.491  18.292   5.275 -0.1986 -0.1424 -0.1770
 1043YOPC   GL214936   2.851  18.498   5.357  0.0931  0.1412 -0.2168
 1043YOPC   C1A14937   2.509  18.346   5.721  0.1801 -0.0053  0.0041
 1043YOPC   D2A14938   2.760  18.420   5.994  0.1388 -0.0132 -0.0613
 1043YOPC   C3A14939   2.485  18.391   6.248 -0.3098 -0.1078 -0.0861
 1043YOPC   C4A14940   2.466  18.388   6.716  0.3204  0.0868  0.1260
 1043YOPC   C1B14941   3.056  18.272   5.644  0.0537  0.0942  0.1888
 1043YOPC   C2B14942   3.245  18.135   6.111 -0.0799 -0.1395  0.2345
 1043YOPC   D3B14943   3.223  18.268   6.493 -0.3705  0.5072  0.1743
 1043YOPC   C4B14944   3.025  18.181   6.878 -0.4683  0.2131  0.3032
 1044YOPC   NC314945  14.999  11.653   4.998  0.0740 -0.0299 -0.1759
 1044YOPC   PO414946  15.306  11.895   5.264  0.0073  0.0274 -0.4110
 1044YOPC   GL114947  15.321  11.881   5.726 -0.0349 -0.2419 -0.3005
 1044YOPC   GL214948  15.578  11.883   5.885 -0.1869  0.2404  0.3351
 1044YOPC   C1A14949  15.291  12.265   6.017 -0.2318 -0.1849  0.1566
 1044YOPC   D2A14950  15.306  12.316   6.423 -0.0450 -0.0324  0.1533
 1044YOPC   C3A14951  15.642  12.255   6.667  0.3090 -0.0248  0.2601
 1044YOPC   C4A14952  16.049  12.283   6.792 -0.0149 -0.1235  0.0178
 1044YOPC   C1B14953  15.437  11.842   6.341 -0.2548  0.2346 -0.2897
 1044YOPC   C2B14954  15.563  11.761   6.745 -0.5112 -0.1373 -0.0607
 1044YOPC   D3B14955  15.227  12.156   6.954 -0.3786  0.0038 -0.2625
 1044YOPC   C4B14956  14.826  12.172   7.076 -0.1369  0.1036  0.2966
 1045YOPC   NC314957  11.288   1.645   4.656 -0.0510  0.2574 -0.1367
 1045YOPC   PO414958  11.036   2.058   4.570 -0.0907 -0.1977  0.2159
 1045YOPC   GL114959  11.068   1.857   5.094 -0.2768  0.1024 -0.3156
 1045YOPC   GL214960  10.978   1.622   5.102  0.1715 -0.1185 -0.0312
 1045YOPC   C1A14961  11.050   1.898   5.516  0.1209  0.0093 -0.1091
 1045YOPC   D2A14962  11.338   1.965   5.766  0.1143 -0.1229  0.1828
 1045YOPC   C3A14963  11.157   2.230   6.023  0.0319  0.2410 -0.3052
 1045YOPC   C4A14964  10.875   2.576   6.094  0.1265  0.2568  0.0171
 1045YOPC   C1B14965  10.560   1.612   5.239  0.1165 -0.0452  0.1606
 1045YOPC   C2B14966  10.305   1.709   5.629  0.3415  0.2237 -0.2876
 1045YOPC   D3B14967  10.343   1.643   6.148  0.0706 -0.1875 -0.1128
 1045YOPC   C4B14968  10.354   1.365   6.404 -0.1068  0.2034 -0.2079
 1046YOPC   NC314969  13.829   3.303   4.989 -0.1711  0.2010  0.0493
 1046YOPC   PO414970  14.184   3.274   5.039 -0.0748 -0.1364  0.2746
 1046YOPC   GL114971  14.249   3.390   5.416 -0.1128  0.1084 -0.1588
 1046YOPC   GL214972  14.000   3.527   5.507  0.1006 -0.2535  0.0202
 1046YOPC   C1A14973  14.596   3.423   5.809  0.0018  0.0159 -0.3248
 1046YOPC   D2A14974  14.797   3.188   6.120  0.1708 -0.1697 -0.2708
 1046YOPC   C3A14975  15.034   3.433   6.408  0.1935  0.3072 -0.1758
 1046YOPC   C4A14976  15.072   3.485   6.706 -0.1685 -0.3784  0.1301
 1046YOPC   C1B14977  13.791   3.665   5.941 -0.0046  0.2277 -0.2178
 1046YOPC   C2B14978  13.810   3.483   6.373  0.1881  0.0374  0.1706
 1046YOPC   D3B14979  13.457   3.121   6.406 -0.3542 -0.0966 -0.1496
 1046YOPC   C4B14980  13.253   2.860   6.638 -0.1914 -0.1142  0.0137
 1047YOPC   NC314981   8.649   8.680   5.534 -0.0861 -0.0264 -0.0032
 1047YOPC   PO414982   8.974   8.973   5.362 -0.1037  0.0628  0.0128
 1047YOPC   GL114983   8.929   8.946   5.815 -0.2236  0.0729  0.0984
 1047YOPC   GL214984   9.076   9.232   6.020  0.0942 -0.3609 -0.0108
 1047YOPC   C1A14985   8.742   8.970   6.276 -0.2193 -0.0731 -0.1045
 1047YOPC   D2A14986   8.956   9.241   6.544 -0.2165 -0.0329  0.1602
 1047YOPC   C3A14987   9.363   9.118   6.541  0.0702 -0.2261 -0.2068
 1047YOPC   C4A14988   9.732   8.873   6.597  0.0775  0.2095  0.4327
 1047YOPC   C1B14989   9.294   9.549   6.300  0.1884  0.2283 -0.1856
 1047YOPC   C2B14990   9.188   9.983   6.370 -0.2224 -0.2197  0.0868
 1047YOPC   D3B14991   9.208  10.168   6.880 -0.8126 -0.0221  0.0856
 1047YOPC   C4B14992   9.441  10.402   7.023  0.0212 -0.2577 -0.3059
 1048YOPC   NC314993   3.172   1.061   4.697 -0.2999  0.1184  0.2316
 1048YOPC   PO414994   3.341   1.366   5.014  0.1782 -0.0997 -0.0838
 1048YOPC   GL114995   3.470   1.315   5.447 -0.0331  0.0510  0.3066
 1048YOPC   GL214996   3.159   1.293   5.765  0.2190 -0.3491 -0.3361
 1048YOPC   C1A14997   3.646   1.020   5.704  0.1536  0.1053 -0.0434
 1048YOPC   D2A14998   3.748   0.772   6.039 -0.0190  0.1965  0.0952
 1048YOPC   C3A14999   4.099   0.666   6.378 -0.0162  0.0682  0.2156
 1048YOPC   C4A15000   4.396   0.746   6.667  0.0144  0.0906  0.3842
 1048YOPC   C1B15001   3.346   1.349   6.203  0.3191  0.4404 -0.2137
 1048YOPC   C2B15002   3.777   1.147   6.397  0.1147  0.2831 -0.4859
 1048YOPC   D3B15003   4.033   1.028   6.798 -0.0525 -0.1220 -0.3109
 1048YOPC   C4B15004   4.476   1.083   7.030 -0.3253  0.2497 -0.0400
 1049YOPC   NC315005  11.829   6.053   4.715 -0.0389 -0.2065 -0.2282
 1049YOPC   PO415006  11.440   5.971   4.882 -0.1559 -0.1677 -0.1641
 1049YOPC   GL115007  11.708   6.140   5.245  0.0747 -0.1077 -0.2653
 1049YOPC   GL215008  12.015   6.271   5.379 -0.0125 -0.1756 -0.1577
 1049YOPC   C1A15009  11.644   6.169   5.711  0.1822  0.1720  0.2435
 1049YOPC   D2A15010  11.849   6.244   6.082  0.3019 -0.2446  0.1713
 1049YOPC   C3A15011  12.051   5.933   6.175 -0.4689  0.0484  0.1882
 1049YOPC   C4A15012  12.369   5.674   6.032 -0.3605  0.2095 -0.2016
 1049YOPC   C1B15013  12.231   6.057   5.660  0.0183 -0.3129  0.0038
 1049YOPC   C2B15014  12.496   6.168   6.004 -0.0784  0.0002 -0.0858
 1049YOPC   D3B15015  12.343   6.542   6.148  0.0890  0.0141 -0.1506
 1049YOPC   C4B15016  11.952   6.765   6.046 -0.1219  0.0169  0.0258
 1050YOPC   NC315017   3.175   6.110   6.100  0.2472  0.0220  0.1063
 1050YOPC   PO415018   3.269   6.480   5.994  0.3576 -0.0852  0.0575
 1050YOPC   GL115019   3.631   6.340   6.250  0.2758  0.1349  0.0516
 1050YOPC   GL215020   3.473   6.295   6.504 -0.3002  0.0295  0.2087
 1050YOPC   C1A15021   3.958   6.503   6.409 -0.1469 -0.1930  0.0352
 1050YOPC   D2A15022   4.395   6.434   6.365 -0.2223 -0.3181  0.0677
 1050YOPC   C3A15023   4.727   6.315   6.702 -0.1524  0.1928  0.2260
 1050YOPC   C4A15024   4.846   6.407   7.084  0.2892  0.0262 -0.0351
 1050YOPC   C1B15025   3.657   6.416   6.808  0.1550  0.1340 -0.0371
 1050YOPC   C2B15026   3.490   6.399   7.187  0.0116 -0.0110 -0.1972
 1050YOPC   D3B15027   3.645   6.577   7.583  0.0807 -0.0298  0.0537
 1050YOPC   C4B15028   3.374   6.682   7.950  0.0814 -0.1607  0.2384
 1051YOPC   NC315029  14.935  10.104   4.940 -0.1466  0.0046  0.4187
 1051YOPC   PO415030  15.169  10.293   5.321  0.3080  0.3584 -0.0572
 1051YOPC   GL115031  15.173  10.100   5.721 -0.2239 -0.0060 -0.2180
 1051YOPC   GL215032  15.385  10.082   5.975  0.1540 -0.1126  0.3526
 1051YOPC   C1A15033  14.985   9.920   6.188 -0.0260  0.2228 -0.0086
 1051YOPC   D2A15034  14.907  10.055   6.569 -0.0324  0.0893  0.0370
 1051YOPC   C3A15035  14.526   9.899   6.796  0.0903  0.0944 -0.0548
 1051YOPC   C4A15036  14.348  10.069   7.191 -0.0784  0.1295 -0.1293
 1051YOPC   C1B15037  15.506   9.965   6.447 -0.0186  0.0473 -0.2018
 1051YOPC   C2B15038  15.397   9.548   6.743 -0.1010  0.1175  0.0043
 1051YOPC   D3B15039  15.120   9.729   6.973  0.1281 -0.1396  0.0590
 1051YOPC   C4B15040  14.863   9.595   7.185  0.1513  0.1415 -0.0655
 1052YOPC   NC315041  12.284  16.970   4.270  0.1448  0.3174 -0.1674
 1052YOPC   PO415042  12.370  17.396   4.494  0.2089  0.1163  0.1485
 1052YOPC   GL115043  12.275  17.600   4.999 -0.2355 -0.0488 -0.2506
 1052YOPC   GL215044  12.021  17.886   5.095  0.1475  0.1341 -0.0183
 1052YOPC   C1A15045  12.609  17.691   5.144  0.1431 -0.1470 -0.1233
 1052YOPC   D2A15046  12.788  17.817   5.458  0.3177 -0.0652 -0.2125
 1052YOPC   C3A15047  12.810  17.692   5.965 -0.1085  0.2568  0.1452
 1052YOPC   C4A15048  12.789  17.721   6.252 -0.0630  0.0749  0.1238
 1052YOPC   C1B15049  12.201  18.021   5.437 -0.0297 -0.1532 -0.0011
 1052YOPC   C2B15050  12.081  18.512   5.534 -0.0817  0.0295  0.0351
 1052YOPC   D3B15051  11.897  18.608   5.922  0.2618 -0.1330  0.3397
 1052YOPC   C4B15052  11.900  18.677   6.397 -0.3944 -0.0678  0.1377
 1053YOPC   NC315053   9.305   9.306   5.589 -0.4555 -0.1332  0.0983
 1053YOPC   PO415054   8.885   9.434   5.642  0.0871 -0.0792  0.0482
 1053YOPC   GL115055   9.038   9.819   5.933 -0.2201  0.4465  0.2234
 1053YOPC   GL215056   8.792  10.100   6.012  0.1964 -0.2226 -0.3766
 1053YOPC   C1A15057   9.311  10.245   5.963  0.1767  0.1409  0.3613
 1053YOPC   D2A15058   9.341  10.470   6.305 -0.1230  0.1778  0.1087
 1053YOPC   C3A15059   9.593  10.582   6.581 -0.0264  0.0240 -0.3693
 1053YOPC   C4A15060   9.905  10.629   6.835  0.2310  0.0789  0.1968
 1053YOPC   C1B15061   8.846  10.475   6.316  0.1598 -0.1053  0.1659
 1053YOPC   C2B15062   8.952  10.486   6.708  0.0402 -0.1139  0.3321
 1053YOPC   D3B15063   8.803  10.756   6.987  0.0131  0.4096  0.3398
 1053YOPC   C4B15064   8.678  10.782   7.373 -0.0639  0.2564 -0.2105
 1054YOPC   NC315065   8.231   4.143   4.941 -0.0527  0.2970  0.1465
 1054YOPC   PO415066   8.126   4.655   5.193 -0.0972 -0.1321  0.1953
 1054YOPC   GL115067   8.196   4.752   5.655 -0.1833  0.0602  0.1319
 1054YOPC   GL215068   8.157   5.037   5.688 -0.1648 -0.2066  0.1690
 1054YOPC   C1A15069   8.092   4.729   6.087  0.2142  0.0542  0.1460
 1054YOPC   D2A15070   8.330   4.437   6.427  0.2133 -0.1115  0.0584
 1054YOPC   C3A15071   8.233   3.984   6.436 -0.0615 -0.0463 -0.0759
 1054YOPC   C4A15072   8.387   3.636   6.718  0.0863 -0.1615  0.0029
 1054YOPC   C1B15073   8.010   5.247   6.120 -0.0898 -0.2535  0.0097
 1054YOPC   C2B15074   7.870   5.175   6.516 -0.0041 -0.3087  0.1222
 1054YOPC   D3B15075   8.009   4.802   6.621 -0.1272 -0.2854  0.2425
 1054YOPC   C4B15076   8.315   4.638   6.875 -0.1707 -0.0044  0.2791
 1055YOPC   NC315077   1.323   5.340   5.842 -0.0623  0.1122 -0.3792
 1055YOPC   PO415078   1.106   5.656   5.627  0.0805  0.1140 -0.1314
 1055YOPC   GL115079   0.701   5.498   5.793 -0.0164  0.1794  0.2526
 1055YOPC   GL215080   0.795   5.237   6.041  0.0281 -0.0039  0.2564
 1055YOPC   C1A15081   0.628   5.614   6.220  0.1872 -0.2488 -0.0114
 1055YOPC   D2A15082   0.551   5.519   6.625 -0.1262 -0.4559 -0.0573
 1055YOPC   C3A15083   0.947   5.682   6.778 -0.0290  0.2015 -0.0095
 1055YOPC   C4A15084   1.026   6.109   6.692 -0.2210  0.1606  0.1097
 1055YOPC   C1B15085   0.796   5.146   6.418  0.0150  0.0549 -0.4195
 1055YOPC   C2B15086   0.649   5.095   6.908 -0.2684 -0.5425 -0.0903
 1055YOPC   D3B15087   0.455   5.460   7.153 -0.0529  0.1265  0.2638
 1055YOPC   C4B15088   0.157   5.691   6.996  0.0059  0.0767 -0.1582
 1056YOPC   NC315089   1.648  13.755   5.377 -0.3198 -0.4451 -0.0270
 1056YOPC   PO415090   1.255  13.426   5.451  0.1360  0.2233 -0.1947
 1056YOPC   GL115091   1.260  13.381   5.914  0.1177  0.1877  0.0170
 1056YOPC   GL215092   1.102  13.493   5.986  0.3179  0.2607 -0.0244
 1056YOPC   C1A15093   1.457  13.056   6.129  0.0307  0.1680  0.1658
 1056YOPC   D2A15094   1.533  12.696   6.322  0.0673 -0.1217  0.2327
 1056YOPC   C3A15095   1.359  12.342   6.478  0.1038 -0.1004  0.1053
 1056YOPC   C4A15096   1.140  12.330   6.887 -0.1345 -0.0829  0.0562
 1056YOPC   C1B15097   1.082  13.754   6.329  0.0699 -0.2050 -0.0655
 1056YOPC   C2B15098   1.248  13.607   6.737  0.1824 -0.2560 -0.3081
 1056YOPC   D3B15099   1.175  14.009   6.834 -0.2440  0.1167  0.2853
 1056YOPC   C4B15100   1.334  14.314   6.966  0.1557  0.1173 -0.0267
 1057YOPC   NC315101  10.407   5.011   5.299  0.1612  0.3591 -0.0826
 1057YOPC   PO415102  10.024   4.645   5.138  0.1250  0.1666  0.0270
 1057YOPC   GL115103   9.973   4.718   5.634  0.1145  0.3176 -0.2097
 1057YOPC   GL215104  10.329   4.782   5.751 -0.0156  0.3492 -0.2304
 1057YOPC   C1A15105   9.771   4.869   6.005  0.1816 -0.0812 -0.0174
 1057YOPC   D2A15106   9.648   4.958   6.402 -0.2990 -0.2672 -0.0840
 1057YOPC   C3A15107   9.413   4.629   6.566 -0.0051  0.0390  0.3761
 1057YOPC   C4A15108   9.052   4.406   6.593 -0.1956 -0.0380 -0.0354
 1057YOPC   C1B15109  10.139   4.514   6.041  0.2491  0.0193  0.0057
 1057YOPC   C2B15110   9.907   4.563   6.371  0.3848  0.0636 -0.1106
 1057YOPC   D3B15111   9.790   4.315   6.778  0.0009 -0.0903 -0.1479
 1057YOPC   C4B15112   9.740   4.194   7.314 -0.1734  0.3397 -0.2422
 1058YOPC   NC315113   6.610   1.537   5.018  0.1960  0.0505 -0.2159
 1058YOPC   PO415114   6.201   1.350   5.116  0.2523  0.2187 -0.2537
 1058YOPC   GL115115   6.130   1.330   5.528 -0.0797  0.1593 -0.0061
 1058YOPC   GL215116   6.074   0.870   5.644 -0.3401 -0.0077  0.0151
 1058YOPC   C1A15117   5.778   1.364   5.798  0.2923 -0.0980  0.1635
 1058YOPC   D2A15118   5.481   1.221   5.924  0.1180  0.1845  0.0371
 1058YOPC   C3A15119   5.472   1.176   6.373 -0.0438 -0.2381  0.0753
 1058YOPC   C4A15120   5.536   1.030   6.662 -0.1562 -0.1771 -0.2503
 1058YOPC   C1B15121   5.806   0.909   6.080 -0.0362 -0.0351 -0.1452
 1058YOPC   C2B15122   5.743   0.672   6.379  0.0432 -0.0080  0.2725
 1058YOPC   D3B15123   5.900   0.694   6.795 -0.1066  0.0930 -0.2277
 1058YOPC   C4B15124   5.806   0.780   7.297  0.0046 -0.1869 -0.3440
 1059YOPC   NC315125   3.479  19.162   4.769 -0.0976 -0.0431  0.1433
 1059YOPC   PO415126   3.549  19.562   4.909 -0.0542 -0.1545 -0.2829
 1059YOPC   GL115127   3.382  19.877   5.282 -0.1098  0.3576 -0.0213
 1059YOPC   GL215128   3.521  20.227   5.216  0.0016  0.0024  0.0573
 1059YOPC   C1A15129   3.692  19.938   5.548  0.0936  0.0669 -0.3625
 1059YOPC   D2A15130   3.980  19.767   5.824  0.0483 -0.3821 -0.0265
 1059YOPC   C3A15131   4.352  19.816   5.938  0.3758 -0.4202  0.0147
 1059YOPC   C4A15132   4.667  20.115   6.209 -0.3632  0.1182  0.1813
 1059YOPC   C1B15133   3.191  20.235   5.569  0.3195 -0.0691 -0.2147
 1059YOPC   C2B15134   3.192  20.211   6.010 -0.2722 -0.1114  0.1008
 1059YOPC   D3B15135   3.136  19.940   6.317 -0.0286 -0.0523  0.0507
 1059YOPC   C4B15136   3.240  19.850   6.711 -0.0849 -0.2810 -0.0727
 1060YOPC   NC315137  18.391   9.511   5.203 -0.0214  0.0352 -0.0077
 1060YOPC   PO415138  18.159   9.511   5.541 -0.1335  0.0961  0.0424
 1060YOPC   GL115139  18.248   9.371   5.905 -0.1434  0.2715  0.0943
 1060YOPC   GL215140  18.058   9.500   6.035 -0.0938  0.1771 -0.3349
 1060YOPC   C1A15141  18.239   8.957   6.146 -0.1762 -0.3562 -0.1476
 1060YOPC   D2A15142  18.242   8.650   6.169  0.1067  0.0313  0.0418
 1060YOPC   C3A15143  18.181   8.480   6.510  0.3896 -0.0651  0.0566
 1060YOPC   C4A15144  18.056   8.597   6.850  0.1548 -0.0143 -0.2628
 1060YOPC   C1B15145  18.172   9.314   6.481  0.1310 -0.2461 -0.0651
 1060YOPC   C2B15146  18.322   9.325   6.806 -0.1120  0.0548 -0.2587
 1060YOPC   D3B15147  18.607   9.777   6.856  0.2139 -0.2140  0.0092
 1060YOPC   C4B15148  18.933   9.925   7.159 -0.2957 -0.0530 -0.4167
 1061YOPC   NC315149  14.972  10.899   4.792  0.0283  0.2314  0.2206
 1061YOPC   PO415150  15.045  11.170   5.109  0.1137 -0.0264 -0.3134
 1061YOPC   GL115151  14.812  10.852   5.263  0.2366 -0.3039  0.4493
 1061YOPC   GL215152  14.711  10.547   5.323 -0.1693 -0.0816  0.0998
 1061YOPC   C1A15153  14.763  10.852   5.703  0.0394 -0.1244 -0.2635
 1061YOPC   D2A15154  14.450  10.670   6.031 -0.1482  0.2395  0.0872
 1061YOPC   C3A15155  14.364  10.911   6.335  0.1860  0.1832 -0.0845
 1061YOPC   C4A15156  14.052  10.941   6.813 -0.2263  0.2800 -0.1077
 1061YOPC   C1B15157  14.265  10.598   5.565 -0.0290  0.1033  0.1077
 1061YOPC   C2B15158  13.847  10.596   5.879  0.1934 -0.1224  0.1135
 1061YOPC   D3B15159  13.567  10.331   6.180 -0.2354  0.1521 -0.2150
 1061YOPC   C4B15160  13.389  10.502   6.540  0.0588 -0.1341  0.1206
 1062YOPC   NC315161  16.093   7.618   5.202 -0.1013 -0.2316 -0.3342
 1062YOPC   PO415162  15.790   7.927   5.394  0.2687 -0.2555 -0.2148
 1062YOPC   GL115163  15.732   7.570   5.575  0.0086 -0.4050  0.0267
 1062YOPC   GL215164  15.428   7.535   5.409  0.0014 -0.0312 -0.4044
 1062YOPC   C1A15165  15.807   7.172   5.756 -0.0190 -0.2893 -0.0041
 1062YOPC   D2A15166  16.014   7.254   6.166  0.3832 -0.0028 -0.0616
 1062YOPC   C3A15167  15.950   7.061   6.578  0.1614  0.3084  0.0733
 1062YOPC   C4A15168  15.843   6.899   7.009  0.1398 -0.0086 -0.0709
 1062YOPC   C1B15169  15.367   7.332   5.873 -0.0749  0.0890  0.1141
 1062YOPC   C2B15170  15.568   7.325   6.290 -0.1249  0.1299 -0.0905
 1062YOPC   D3B15171  15.447   7.094   6.710 -0.1098 -0.1332  0.0431
 1062YOPC   C4B15172  15.295   7.044   7.061 -0.1173 -0.0439 -0.3895
 1063YOPC   NC315173  13.174  14.883   5.065 -0.1392  0.2051 -0.0570
 1063YOPC   PO415174  12.722  14.717   5.174 -0.0710  0.0197  0.0320
 1063YOPC   GL115175  12.553  14.707   5.531  0.3346  0.2307 -0.0705
 1063YOPC   GL215176  12.396  15.032   5.465  0.3232 -0.0661 -0.1313
 1063YOPC   C1A15177  12.114  14.805   5.846  0.0401 -0.1187  0.0171
 1063YOPC   D2A15178  11.913  14.664   6.170 -0.0267  0.0317  0.0739
 1063YOPC   C3A15179  11.847  14.904   6.585 -0.1917  0.0611 -0.2369
 1063YOPC   C4A15180  11.836  14.977   6.991  0.1634  0.1660 -0.1286
 1063YOPC   C1B15181  12.551  15.103   5.793  0.3223  0.2088  0.0308
 1063YOPC   C2B15182  12.725  15.243   6.131 -0.0693 -0.1285 -0.1065
 1063YOPC   D3B15183  12.859  15.495   6.582 -0.5305 -0.0261  0.0836
 1063YOPC   C4B15184  13.072  15.482   6.945 -0.0454  0.3074 -0.1203
 1064YOPC   NC315185   3.994   2.432   4.912 -0.2282  0.1954 -0.2143
 1064YOPC   PO415186   4.211   2.347   5.299  0.2371 -0.2673 -0.0985
 1064YOPC   GL115187   4.234   2.322   5.669  0.0566  0.0313  0.1329
 1064YOPC   GL215188   4.319   2.583   5.862 -0.2281 -0.2197  0.1734
 1064YOPC   C1A15189   4.484   1.973   5.841 -0.2044 -0.5287 -0.0772
 1064YOPC   D2A15190   4.708   1.675   5.836  0.0741 -0.0221  0.3040
 1064YOPC   C3A15191   4.424   1.437   6.150  0.0957 -0.2555 -0.0042
 1064YOPC   C4A15192   4.448   1.128   6.398 -0.1394 -0.0689 -0.1661
 1064YOPC   C1B15193   4.581   2.395   6.098 -0.1430  0.2103  0.4351
 1064YOPC   C2B15194   4.713   2.387   6.614  0.1714  0.1040 -0.1449
 1064YOPC   D3B15195   4.387   2.390   6.889  0.1589  0.2565 -0.0147
 1064YOPC   C4B15196   4.389   2.449   7.332  0.0404 -0.0554  0.2400
 1065YOPC   NC315197   8.430  18.403   5.054  0.1380  0.3625 -0.0908
 1065YOPC   PO415198   8.908  18.279   5.127 -0.0056  0.1650  0.0716
 1065YOPC   GL115199   8.745  18.466   5.484  0.0928  0.2128  0.1488
 1065YOPC   GL215200   8.421  18.546   5.564  0.3116  0.0625 -0.2556
 1065YOPC   C1A15201   8.861  18.436   5.875 -0.4027 -0.1556  0.3143
 1065YOPC   D2A15202   8.783  18.383   6.347 -0.0038 -0.2510  0.0064
 1065YOPC   C3A15203   8.485  18.116   6.625 -0.5193 -0.3017 -0.1065
 1065YOPC   C4A15204   8.356  18.303   6.981  0.0500  0.1416 -0.1047
 1065YOPC   C1B15205   8.393  18.508   5.985  0.0800 -0.1046  0.2394
 1065YOPC   C2B15206   8.228  18.718   6.258 -0.1685 -0.0414  0.0601
 1065YOPC   D3B15207   8.436  18.944   6.538  0.5429 -0.0009  0.2417
 1065YOPC   C4B15208   8.577  19.051   6.912  0.2490  0.2361 -0.0293
 1066YOPC   NC315209   2.270  15.998   5.156 -0.2748 -0.0239 -0.0107
 1066YOPC   PO415210   1.887  15.726   5.130 -0.3179  0.2089  0.1892
 1066YOPC   GL115211   2.048  15.651   5.459  0.1232 -0.1659 -0.1499
 1066YOPC   GL215212   2.432  15.386   5.505 -0.1881 -0.2047 -0.1109
 1066YOPC   C1A15213   1.913  15.784   5.881  0.0687  0.0082 -0.0520
 1066YOPC   D2A15214   1.867  15.942   6.323 -0.3376 -0.1451 -0.1245
 1066YOPC   C3A15215   2.155  15.815   6.716 -0.3972  0.1142  0.1362
 1066YOPC   C4A15216   1.949  15.796   7.069  0.0324  0.0022  0.1140
 1066YOPC   C1B15217   2.382  15.437   5.841  0.0804 -0.1542  0.0519
 1066YOPC   C2B15218   2.361  15.580   6.275 -0.0448  0.1156  0.2046
 1066YOPC   D3B15219   2.576  15.597   6.619  0.3435  0.0461 -0.1871
 1066YOPC   C4B15220   2.936  15.718   6.900 -0.1165 -0.0938  0.1649
 1067YOPC   NC315221   2.004   8.095   5.260 -0.2142  0.3968  0.0952
 1067YOPC   PO415222   2.244   8.023   5.621 -0.0021  0.2415  0.1526
 1067YOPC   GL115223   2.516   7.873   5.973  0.4898  0.0326 -0.0660
 1067YOPC   GL215224   2.695   8.100   6.051 -0.1651  0.2009  0.0584
 1067YOPC   C1A15225   2.739   7.725   6.369 -0.3299 -0.0005  0.1224
 1067YOPC   D2A15226   2.881   7.916   6.755 -0.2964 -0.1047  0.3787
 1067YOPC   C3A15227   3.118   7.878   7.108 -0.3519 -0.1711 -0.1105
 1067YOPC   C4A15228   3.032   7.814   7.561  0.2568  0.3942 -0.3063
 1067YOPC   C1B15229   2.489   8.227   6.328 -0.0995 -0.0597  0.2166
 1067YOPC   C2B15230   2.146   8.363   6.618 -0.4486 -0.0164 -0.1664
 1067YOPC   D3B15231   1.920   8.082   6.844  0.2252 -0.1040  0.1175
 1067YOPC   C4B15232   1.501   8.017   6.944  0.0423  0.6312 -0.1365
 1068YOPC   NC315233  13.173  16.251   4.405 -0.5134 -0.1958 -0.0908
 1068YOPC   PO415234  13.504  16.141   4.671  0.3128 -0.1507 -0.0832
 1068YOPC   GL115235  13.372  16.073   5.121 -0.0216 -0.3360 -0.1486
 1068YOPC   GL215236  13.580  16.007   5.264 -0.3645 -0.1361 -0.0399
 1068YOPC   C1A15237  13.200  15.968   5.557  0.1633  0.2015  0.3472
 1068YOPC   D2A15238  13.263  15.999   5.917  0.4263 -0.3334 -0.0328
 1068YOPC   C3A15239  13.674  15.892   6.123 -0.1548 -0.2414 -0.1548
 1068YOPC   C4A15240  13.763  15.631   6.441 -0.0731  0.0094  0.2276
 1068YOPC   C1B15241  13.735  15.882   5.649 -0.2290 -0.1260  0.0396
 1068YOPC   C2B15242  13.864  15.509   5.893 -0.0980 -0.2200 -0.0950
 1068YOPC   D3B15243  14.152  15.651   6.210 -0.1826 -0.3422  0.0592
 1068YOPC   C4B15244  14.322  15.913   6.493 -0.0175  0.0137  0.0897
 1069YOPC   NC315245   3.562   8.210   5.843  0.0924 -0.0191 -0.2398
 1069YOPC   PO415246   3.142   8.153   5.875  0.1749  0.0326 -0.0444
 1069YOPC   GL115247   3.513   8.173   6.295  0.2204 -0.0048 -0.0352
 1069YOPC   GL215248   3.848   8.355   6.324  0.0050  0.2563 -0.0684
 1069YOPC   C1A15249   3.694   7.962   6.627  0.2812  0.1601  0.1473
 1069YOPC   D2A15250   3.758   7.521   6.855 -0.3572 -0.0622 -0.2282
 1069YOPC   C3A15251   3.990   7.383   7.313  0.2542  0.2950  0.1619
 1069YOPC   C4A15252   3.910   7.421   7.786 -0.3424  0.4009  0.3577
 1069YOPC   C1B15253   3.635   8.578   6.688 -0.0461  0.0658  0.0243
 1069YOPC   C2B15254   3.345   8.630   7.082 -0.0453  0.2808 -0.0863
 1069YOPC   D3B15255   3.637   8.545   7.402  0.2040  0.2769  0.1614
 1069YOPC   C4B15256   3.862   8.388   7.728 -0.0621 -0.2695 -0.3142
 1070YOPC   NC315257  15.262  15.820   5.140  0.1258  0.0611  0.0903
 1070YOPC   PO415258  15.317  16.235   4.838 -0.3233  0.0432 -0.0158
 1070YOPC   GL115259  15.174  16.324   5.324 -0.0749  0.0563 -0.1117
 1070YOPC   GL215260  14.822  16.381   5.470 -0.1221  0.1718 -0.2708
 1070YOPC   C1A15261  15.120  16.310   5.875  0.0788  0.0301 -0.1225
 1070YOPC   D2A15262  15.152  16.106   6.268  0.1265  0.2205  0.2671
 1070YOPC   C3A15263  15.480  15.975   6.585 -0.0520  0.0401 -0.0278
 1070YOPC   C4A15264  15.878  15.660   6.803  0.1508 -0.1077  0.2235
 1070YOPC   C1B15265  14.577  16.354   5.743  0.0409  0.0199 -0.0584
 1070YOPC   C2B15266  14.610  16.156   6.101 -0.0028 -0.1234  0.4251
 1070YOPC   D3B15267  14.759  16.162   6.583 -0.3457 -0.2121 -0.1744
 1070YOPC   C4B15268  14.931  16.389   7.013  0.0856  0.0635  0.1015
 1071YOPC   NC315269   6.479  12.536   5.663 -0.3518  0.0051 -0.2443
 1071YOPC   PO415270   6.156  12.333   5.753  0.0996 -0.0499 -0.2411
 1071YOPC   GL115271   6.274  12.172   6.152  0.3221 -0.0716  0.1107
 1071YOPC   GL215272   6.337  12.520   6.170 -0.5546  0.3713  0.0265
 1071YOPC   C1A15273   6.528  12.051   6.449  0.3332  0.1932  0.2695
 1071YOPC   D2A15274   6.747  11.930   6.794  0.0080 -0.3146 -0.0400
 1071YOPC   C3A15275   6.974  12.246   7.134 -0.0956 -0.5455  0.0901
 1071YOPC   C4A15276   7.202  12.477   7.396 -0.0361  0.0544  0.2094
 1071YOPC   C1B15277   6.355  12.647   6.530 -0.1649 -0.3101 -0.0942
 1071YOPC   C2B15278   6.643  12.487   6.706  0.2450  0.2605  0.0215
 1071YOPC   D3B15279   7.077  12.422   6.728  0.0236 -0.3001  0.1694
 1071YOPC   C4B15280   7.434  12.538   6.878  0.0978 -0.1323  0.1851
 1072YOPC   NC315281   3.616  14.376   5.696 -0.3301  0.0346 -0.2317
 1072YOPC   PO415282   3.860  13.940   5.726  0.1094  0.2177 -0.0396
 1072YOPC   GL115283   4.025  13.940   6.001  0.0859  0.1751 -0.0256
 1072YOPC   GL215284   4.120  13.627   6.253 -0.1446  0.0325  0.0823
 1072YOPC   C1A15285   4.196  14.133   6.382  0.3551  0.0368 -0.2770
 1072YOPC   D2A15286   4.107  14.380   6.745 -0.1564  0.2309  0.1130
 1072YOPC   C3A15287   4.513  14.296   6.991  0.0610  0.3168  0.0879
 1072YOPC   C4A15288   4.901  14.191   6.960 -0.4100  0.0838  0.2441
 1072YOPC   C1B15289   4.030  13.679   6.603 -0.0683 -0.0323 -0.1365
 1072YOPC   C2B15290   4.144  13.837   6.998  0.3276  0.0440  0.0363
 1072YOPC   D3B15291   3.905  14.127   7.159  0.0987 -0.0174 -0.1228
 1072YOPC   C4B15292   3.962  14.577   7.130  0.0576 -0.0600  0.1613
 1073YOPC   NC315293   6.902  19.136   5.328  0.2622  0.0253  0.2580
 1073YOPC   PO415294   6.487  19.149   5.436  0.1116 -0.3292 -0.1228
 1073YOPC   GL115295   6.514  19.141   5.860 -0.1620  0.1332 -0.2714
 1073YOPC   GL215296   6.674  18.789   5.678 -0.1018 -0.2552 -0.0320
 1073YOPC   C1A15297   6.444  19.059   6.311 -0.2574 -0.2655  0.0312
 1073YOPC   D2A15298   6.619  18.691   6.490  0.0060  0.1393 -0.2305
 1073YOPC   C3A15299   6.958  18.671   6.574 -0.0701  0.2319  0.1607
 1073YOPC   C4A15300   7.072  18.736   6.921 -0.6118 -0.0041 -0.0090
 1073YOPC   C1B15301   6.892  18.749   6.036 -0.1725 -0.1865 -0.0890
 1073YOPC   C2B15302   7.189  18.373   6.254 -0.0281  0.3005 -0.0038
 1073YOPC   D3B15303   7.448  18.178   5.946 -0.1333 -0.0738 -0.0956
 1073YOPC   C4B15304   7.513  17.741   5.803  0.0046 -0.0934  0.0396
 1074YOPC   NC315305  11.449   5.012   4.872 -0.0975  0.0640 -0.2906
 1074YOPC   PO415306  11.774   5.023   5.174 -0.1001 -0.0262 -0.3209
 1074YOPC   GL115307  11.931   5.275   5.491  0.0773 -0.0965  0.0231
 1074YOPC   GL215308  12.106   5.545   5.453  0.0865 -0.2233  0.1989
 1074YOPC   C1A15309  12.131   5.194   5.738 -0.2108  0.1459  0.1719
 1074YOPC   D2A15310  12.343   4.923   5.956 -0.1848  0.0931 -0.1900
 1074YOPC   C3A15311  12.348   4.835   6.418  0.1445 -0.1322  0.1405
 1074YOPC   C4A15312  12.246   4.977   6.875 -0.1148 -0.3264  0.4370
 1074YOPC   C1B15313  11.802   5.736   5.773 -0.3249 -0.1902  0.1687
 1074YOPC   C2B15314  11.547   5.397   5.797 -0.3751 -0.0513 -0.0302
 1074YOPC   D3B15315  11.411   5.232   6.234 -0.0433 -0.2467  0.0839
 1074YOPC   C4B15316  11.312   5.121   6.673 -0.0283 -0.0178 -0.0575
 1075YOPC   NC315317  10.040  17.458   4.233 -0.1617  0.2560  0.2437
 1075YOPC   PO415318  10.083  17.397   4.661  0.0564  0.0649 -0.1115
 1075YOPC   GL115319  10.097  17.266   5.101  0.1917  0.2024  0.0312
 1075YOPC   GL215320   9.760  17.115   5.103  0.1315 -0.1171 -0.1077
 1075YOPC   C1A15321  10.181  17.197   5.597  0.0379  0.1325  0.2599
 1075YOPC   D2A15322  10.335  17.417   5.969 -0.3569  0.1506 -0.1985
 1075YOPC   C3A15323  10.166  17.665   6.303  0.0535 -0.0713  0.1356
 1075YOPC   C4A15324  10.145  18.105   6.296 -0.0405 -0.1007 -0.0100
 1075YOPC   C1B15325   9.662  17.037   5.549 -0.1848 -0.1084  0.1761
 1075YOPC   C2B15326   9.683  17.137   5.918 -0.0904  0.1545 -0.1289
 1075YOPC   D3B15327   9.568  16.845   6.248  0.1176 -0.0537  0.1078
 1075YOPC   C4B15328   9.237  16.676   6.477 -0.1716  0.0813  0.1296
 1076YOPC   NC315329  17.881   2.327   4.732  0.3020 -0.0590  0.1081
 1076YOPC   PO415330  17.928   2.683   5.121  0.1587 -0.0412  0.1831
 1076YOPC   GL115331  18.013   2.537   5.532  0.0947  0.2495 -0.1898
 1076YOPC   GL215332  18.103   2.663   5.763  0.1913  0.0387 -0.0413
 1076YOPC   C1A15333  17.912   2.017   5.668 -0.0755  0.0434  0.0293
 1076YOPC   D2A15334  17.682   1.797   5.982 -0.3589 -0.1516 -0.0472
 1076YOPC   C3A15335  17.700   2.104   6.271 -0.0479  0.1531 -0.0116
 1076YOPC   C4A15336  17.644   2.490   6.214 -0.0697 -0.1612  0.2594
 1076YOPC   C1B15337  18.376   2.858   6.045 -0.2097 -0.0930 -0.2556
 1076YOPC   C2B15338  18.518   3.242   6.259  0.0766 -0.1387  0.1869
 1076YOPC   D3B15339  18.292   3.109   6.672 -0.2984  0.1399 -0.2666
 1076YOPC   C4B15340  18.198   3.095   7.034  0.1617  0.3313  0.0634
 1077YOPC   NC315341  12.412  17.015   5.185  0.0900 -0.1496  0.1257
 1077YOPC   PO415342  12.283  16.613   5.061 -0.0842  0.0029  0.0524
 1077YOPC   GL115343  12.492  16.579   5.451  0.0710 -0.0634  0.0396
 1077YOPC   GL215344  12.302  16.375   5.591  0.0673  0.1520 -0.0150
 1077YOPC   C1A15345  12.653  16.920   5.825 -0.0298  0.0470  0.0688
 1077YOPC   D2A15346  12.747  17.183   6.088  0.1115  0.4051 -0.0163
 1077YOPC   C3A15347  12.487  17.276   6.526 -0.2209 -0.5102  0.1762
 1077YOPC   C4A15348  12.372  17.725   6.576 -0.1906  0.0596 -0.0213
 1077YOPC   C1B15349  12.479  16.446   5.958 -0.0474 -0.0160  0.1228
 1077YOPC   C2B15350  12.681  16.658   6.314 -0.1808 -0.1102 -0.1312
 1077YOPC   D3B15351  12.690  16.816   6.764 -0.0260 -0.0427  0.0058
 1077YOPC   C4B15352  12.800  16.666   7.114  0.2044  0.0967  0.4266
 1078YOPC   NC315353   1.238   6.290   5.367 -0.2956  0.0505 -0.2115
 1078YOPC   PO415354   1.078   6.415   5.779 -0.0273  0.0995  0.0320
 1078YOPC   GL115355   0.983   6.446   6.252 -0.0524  0.3559 -0.2719
 1078YOPC   GL215356   0.723   6.656   6.393  0.1259 -0.3144 -0.2204
 1078YOPC   C1A15357   1.174   6.629   6.606  0.2743 -0.2638  0.1561
 1078YOPC   D2A15358   1.181   6.586   6.955 -0.0433 -0.3905  0.0782
 1078YOPC   C3A15359   1.015   6.255   7.222  0.1175  0.1980  0.1756
 1078YOPC   C4A15360   0.916   6.057   7.662 -0.0928  0.2138  0.3010
 1078YOPC   C1B15361   0.727   6.633   6.778  0.1758  0.4333  0.1449
 1078YOPC   C2B15362   0.715   6.675   7.185  0.0023 -0.0155  0.1352
 1078YOPC   D3B15363   1.056   6.685   7.417  0.1618 -0.0627 -0.3970
 1078YOPC   C4B15364   1.309   7.021   7.561 -0.1071  0.1282  0.2287
 1079YOPC   NC315365  10.492   4.860   4.824 -0.0761  0.3273 -0.2648
 1079YOPC   PO415366  10.775   4.625   5.151 -0.2681 -0.0778  0.3192
 1079YOPC   GL115367  10.820   4.500   5.641 -0.2861 -0.1230  0.3176
 1079YOPC   GL215368  11.105   4.702   5.686 -0.1213  0.1654  0.2832
 1079YOPC   C1A15369  10.608   4.471   6.046 -0.0926  0.1561  0.1155
 1079YOPC   D2A15370  10.388   4.360   6.470  0.2285  0.0693  0.0878
 1079YOPC   C3A15371  10.557   4.398   6.796  0.1168  0.1723 -0.1841
 1079YOPC   C4A15372  10.499   4.516   7.254  0.4589 -0.3306  0.1621
 1079YOPC   C1B15373  10.958   4.822   6.144 -0.5287 -0.0351 -0.0596
 1079YOPC   C2B15374  10.846   4.858   6.530 -0.1004 -0.3532  0.0663
 1079YOPC   D3B15375  11.084   4.702   6.880  0.1706 -0.0053  0.1699
 1079YOPC   C4B15376  10.973   4.543   7.175 -0.1378 -0.0512 -0.1977
 1080YOPC   NC315377  14.176  13.678   5.121 -0.0512  0.0146 -0.0750
 1080YOPC   PO415378  14.208  13.276   5.059  0.1652  0.2232 -0.2814
 1080YOPC   GL115379  14.148  13.297   5.489  0.1872  0.2569  0.1337
 1080YOPC   GL215380  13.886  13.573   5.549  0.1148  0.0944  0.1190
 1080YOPC   C1A15381  14.360  13.129   5.800  0.2443 -0.0907 -0.0201
 1080YOPC   D2A15382  14.467  12.882   6.127 -0.3874 -0.0364 -0.0044
 1080YOPC   C3A15383  14.330  12.790   6.493 -0.0864 -0.2053 -0.0317
 1080YOPC   C4A15384  13.957  12.730   6.534  0.2216  0.0654  0.0676
 1080YOPC   C1B15385  13.925  13.426   5.942 -0.1068 -0.2862  0.1326
 1080YOPC   C2B15386  14.029  13.185   6.221 -0.0881 -0.0215  0.2870
 1080YOPC   D3B15387  14.024  13.259   6.705  0.1253 -0.0043 -0.0532
 1080YOPC   C4B15388  14.219  13.580   6.977  0.1179  0.1479 -0.0040
 1081YOPC   NC315389   7.517  13.671   5.658 -0.1634  0.2289  0.4069
 1081YOPC   PO415390   7.917  13.642   5.804 -0.3559 -0.2190 -0.0843
 1081YOPC   GL115391   8.309  13.769   5.983  0.1537 -0.2455 -0.1539
 1081YOPC   GL215392   8.295  14.043   6.142 -0.1900 -0.1785 -0.1266
 1081YOPC   C1A15393   8.773  13.878   6.222 -0.2204 -0.1984 -0.2025
 1081YOPC   D2A15394   9.157  14.042   6.202 -0.0126 -0.0703  0.0017
 1081YOPC   C3A15395   9.223  14.470   6.267 -0.0279  0.0852 -0.0012
 1081YOPC   C4A15396   9.211  14.777   6.645 -0.0207 -0.1643  0.5621
 1081YOPC   C1B15397   8.432  13.967   6.615 -0.1891 -0.0678 -0.1123
 1081YOPC   C2B15398   8.360  13.773   6.929 -0.0172  0.0671 -0.2692
 1081YOPC   D3B15399   8.028  13.961   7.117  0.1232 -0.1329 -0.1784
 1081YOPC   C4B15400   7.742  14.283   6.974 -0.2083 -0.0146  0.1096
 1082YOPC   NC315401  13.672  19.173   4.350  0.2663 -0.2007  0.1620
 1082YOPC   PO415402  13.845  19.043   4.744 -0.0943  0.0039 -0.0726
 1082YOPC   GL115403  14.146  19.045   5.036  0.1480  0.2288 -0.1186
 1082YOPC   GL215404  14.238  19.355   5.319  0.1358 -0.2500  0.2676
 1082YOPC   C1A15405  14.360  18.811   5.450  0.2759  0.1007 -0.2380
 1082YOPC   D2A15406  14.498  18.739   5.863 -0.0707 -0.1777 -0.0971
 1082YOPC   C3A15407  14.676  18.396   5.958  0.0254 -0.0998 -0.2354
 1082YOPC   C4A15408  14.982  18.157   6.164 -0.1006 -0.0211  0.1783
 1082YOPC   C1B15409  14.345  19.441   5.776  0.2857  0.1466  0.1395
 1082YOPC   C2B15410  14.244  19.362   6.208  0.4140 -0.0966  0.0430
 1082YOPC   D3B15411  13.937  19.248   6.492 -0.0176  0.4082  0.2366
 1082YOPC   C4B15412  13.668  19.046   6.985 -0.3148  0.0449 -0.2793
 1083YOPC   NC315413   6.716   5.666   5.835 -0.0655  0.1537 -0.1731
 1083YOPC   PO415414   6.716   5.469   6.159  0.0458 -0.0471  0.2498
 1083YOPC   GL115415   6.676   5.275   6.505  0.1260 -0.2598  0.1878
 1083YOPC   GL215416   6.478   5.113   6.671  0.0919  0.2529 -0.5356
 1083YOPC   C1A15417   6.942   5.513   6.792 -0.2531  0.0230 -0.0498
 1083YOPC   D2A15418   6.966   5.563   7.212  0.1399 -0.0289  0.2348
 1083YOPC   C3A15419   6.856   5.227   7.413  0.0883  0.0585  0.1257
 1083YOPC   C4A15420   6.606   4.824   7.493 -0.1434  0.0591 -0.2895
 1083YOPC   C1B15421   6.348   4.927   7.024  0.2046  0.2745  0.0268
 1083YOPC   C2B15422   6.123   4.629   7.308  0.1966  0.2789  0.3389
 1083YOPC   D3B15423   5.974   4.366   7.603  0.2202 -0.0093  0.0825
 1083YOPC   C4B15424   5.871   3.960   7.687 -0.0366 -0.0668  0.0873
 1084YOPC   NC315425   6.818   7.376   5.271 -0.0100 -0.3912  0.0876
 1084YOPC   PO415426   6.664   7.751   5.606 -0.2240 -0.2638 -0.2754
 1084YOPC   GL115427   6.843   7.758   6.080  0.2014 -0.0746  0.1351
 1084YOPC   GL215428   6.630   7.757   6.344 -0.3164 -0.0998 -0.1125
 1084YOPC   C1A15429   7.218   7.823   6.239  0.0648  0.1893  0.1166
 1084YOPC   D2A15430   7.423   7.589   6.534  0.0147  0.0801 -0.2412
 1084YOPC   C3A15431   7.802   7.279   6.487 -0.0581 -0.1517  0.2602
 1084YOPC   C4A15432   8.195   7.388   6.315  0.0858 -0.0374 -0.2100
 1084YOPC   C1B15433   6.891   8.116   6.508  0.0504 -0.4042 -0.2133
 1084YOPC   C2B15434   6.699   8.446   6.660 -0.1107 -0.1057 -0.2424
 1084YOPC   D3B15435   6.672   8.424   7.145 -0.1090 -0.1252  0.2503
 1084YOPC   C4B15436   6.784   8.593   7.608  0.1069  0.1535  0.0534
 1085YOPC   NC315437  17.358  19.154   4.901 -0.1760  0.1617  0.2362
 1085YOPC   PO415438  17.155  18.789   5.108 -0.0616  0.0371  0.2507
 1085YOPC   GL115439  17.023  18.832   5.567 -0.0176 -0.0915 -0.2036
 1085YOPC   GL215440  16.934  18.481   5.763 -0.0099  0.3599  0.1838
 1085YOPC   C1A15441  16.793  18.934   6.051 -0.0774 -0.2326  0.0547
 1085YOPC   D2A15442  16.673  18.822   6.489  0.1283  0.1405  0.0774
 1085YOPC   C3A15443  16.988  18.803   6.795  0.0834 -0.1497 -0.0036
 1085YOPC   C4A15444  17.029  18.526   7.071  0.2915  0.2476 -0.1125
 1085YOPC   C1B15445  16.880  18.394   6.219  0.2340 -0.1393  0.1069
 1085YOPC   C2B15446  16.489  18.219   6.431  0.1202 -0.1218 -0.4873
 1085YOPC   D3B15447  16.470  18.254   6.825  0.0540  0.0787 -0.2689
 1085YOPC   C4B15448  16.605  18.353   7.284  0.5446 -0.1870  0.0694
 1086YOPC   NC315449  14.396  15.233   4.849  0.1757  0.3496  0.2089
 1086YOPC   PO415450  14.051  15.454   4.945 -0.2947 -0.1477 -0.2162
 1086YOPC   GL115451  14.277  15.469   5.309 -0.0750  0.0592  0.2018
 1086YOPC   GL215452  14.203  15.687   5.460  0.1432  0.0569  0.0092
 1086YOPC   C1A15453  14.678  15.362   5.499  0.0454 -0.0490 -0.0168
 1086YOPC   D2A15454  15.060  15.453   5.599 -0.0636  0.0799  0.1368
 1086YOPC   C3A15455  15.206  15.317   5.974  0.0263 -0.2213  0.0635
 1086YOPC   C4A15456  15.069  15.020   6.291  0.1474 -0.2312 -0.0313
 1086YOPC   C1B15457  14.345  15.556   5.793  0.1164  0.1911  0.3095
 1086YOPC   C2B15458  14.603  15.233   6.025  0.1443 -0.2793  0.1268
 1086YOPC   D3B15459  14.524  15.093   6.390  0.0274 -0.2210 -0.0469
 1086YOPC   C4B15460  14.632  14.802   6.697  0.1151  0.1333 -0.0672
 1087YOPC   NC315461  14.526   7.480   4.948  0.5473  0.3043 -0.1235
 1087YOPC   PO415462  14.094   7.275   5.077 -0.1529 -0.0824  0.0124
 1087YOPC   GL115463  13.917   7.397   5.549  0.0947 -0.0239 -0.2549
 1087YOPC   GL215464  13.553   7.400   5.768 -0.3500 -0.2317 -0.0901
 1087YOPC   C1A15465  14.135   7.480   5.970  0.0753  0.0392  0.1167
 1087YOPC   D2A15466  14.552   7.495   6.302  0.2095  0.1323 -0.2871
 1087YOPC   C3A15467  14.321   7.700   6.651  0.0289 -0.1340  0.2492
 1087YOPC   C4A15468  13.918   7.742   6.938  0.3322  0.2188 -0.3792
 1087YOPC   C1B15469  13.529   7.291   6.300  0.2659 -0.0134  0.2444
 1087YOPC   C2B15470  13.484   7.065   6.543 -0.2145  0.0942 -0.1225
 1087YOPC   D3B15471  13.686   6.791   6.450 -0.2651  0.0824 -0.1962
 1087YOPC   C4B15472  14.058   6.623   6.320 -0.1210 -0.0129  0.2440
 1088YOPC   NC315473   9.062   9.551   5.192  0.1845  0.3894  0.0265
 1088YOPC   PO415474   9.409   9.736   5.389 -0.0289 -0.4037 -0.2734
 1088YOPC   GL115475   9.540   9.797   5.763  0.0208 -0.0209 -0.0790
 1088YOPC   GL215476   9.795   9.590   5.812  0.2113  0.0947  0.0069
 1088YOPC   C1A15477   9.632   9.914   6.207  0.2886 -0.0910  0.1408
 1088YOPC   D2A15478   9.676  10.118   6.543 -0.0450  0.2898 -0.0452
 1088YOPC   C3A15479  10.129  10.200   6.715  0.1262  0.0939  0.0363
 1088YOPC   C4A15480  10.390  10.604   6.924  0.1222  0.1676 -0.3348
 1088YOPC   C1B15481  10.025   9.866   5.660 -0.0536 -0.1183  0.2151
 1088YOPC   C2B15482  10.214  10.352   5.649 -0.1733 -0.2517  0.2795
 1088YOPC   D3B15483  10.175  10.746   5.794 -0.1700  0.0899 -0.0237
 1088YOPC   C4B15484  10.341  11.085   6.017 -0.2280  0.0132  0.3163
 1089YOPC   NC315485   2.633   9.795   6.082 -0.0350  0.4332  0.1825
 1089YOPC   PO415486   2.952   9.984   6.022 -0.4689  0.1646 -0.0987
 1089YOPC   GL115487   3.108   9.900   6.405 -0.5200  0.0904  0.0626
 1089YOPC   GL215488   3.438  10.119   6.357  0.0154 -0.2211 -0.0268
 1089YOPC   C1A15489   3.270   9.718   6.769 -0.0046  0.0539 -0.0102
 1089YOPC   D2A15490   3.477   9.881   7.156 -0.1894  0.0754  0.5178
 1089YOPC   C3A15491   3.659  10.229   7.529 -0.0525 -0.0521 -0.2654
 1089YOPC   C4A15492   3.822  10.562   7.888  0.2763 -0.4077  0.0045
 1089YOPC   C1B15493   3.222  10.259   6.794 -0.0297  0.0639  0.1938
 1089YOPC   C2B15494   3.369  10.486   7.203 -0.1143 -0.0244  0.0435
 1089YOPC   D3B15495   3.133  10.884   7.387 -0.1621  0.0358  0.1646
 1089YOPC   C4B15496   2.971  11.031   7.858 -0.4192 -0.0131 -0.1357
 1090YOPC   NC315497  10.105   7.092   5.143  0.0817  0.1530  0.0590
 1090YOPC   PO415498   9.793   7.122   5.399 -0.1762  0.1399  0.3492
 1090YOPC   GL115499  10.168   7.064   5.701  0.2348 -0.0135  0.0904
 1090YOPC   GL215500  10.210   6.779   5.921 -0.0807  0.1669  0.4627
 1090YOPC   C1A15501  10.152   7.220   6.122 -0.0350  0.0294  0.2922
 1090YOPC   D2A15502  10.105   7.284   6.535 -0.2832  0.1541 -0.0189
 1090YOPC   C3A15503  10.543   7.535   6.614 -0.1751 -0.0975  0.1753
 1090YOPC   C4A15504  10.844   7.759   6.828 -0.1868  0.0521  0.0309
 1090YOPC   C1B15505  10.264   6.620   6.360  0.2294  0.0041  0.3014
 1090YOPC   C2B15506  10.172   6.386   6.565 -0.2283  0.2275 -0.1564
 1090YOPC   D3B15507  10.415   6.116   6.737  0.0541  0.0262 -0.1709
 1090YOPC   C4B15508  10.737   5.860   6.785  0.1146  0.0735  0.2550
 1091YOPC   NC315509  14.671  16.427   4.150 -0.2399  0.2587  0.1383
 1091YOPC   PO415510  14.524  16.424   4.597  0.0326  0.0746 -0.0218
 1091YOPC   GL115511  14.391  16.265   5.000 -0.0436  0.1635 -0.1589
 1091YOPC   GL215512  14.308  16.439   5.290 -0.1514  0.0914 -0.1109
 1091YOPC   C1A15513  14.590  15.977   5.323 -0.0377 -0.2349  0.1217
 1091YOPC   D2A15514  14.852  15.911   5.675  0.3138 -0.0723  0.1445
 1091YOPC   C3A15515  14.787  15.683   6.061  0.0693 -0.0882  0.2221
 1091YOPC   C4A15516  15.149  15.604   6.428  0.1806 -0.0052 -0.0774
 1091YOPC   C1B15517  14.140  16.147   5.549 -0.2491 -0.0906  0.1821
 1091YOPC   C2B15518  14.206  16.006   5.880  0.2051 -0.1055 -0.2193
 1091YOPC   D3B15519  14.043  16.400   6.117 -0.3249  0.1186 -0.0336
 1091YOPC   C4B15520  13.984  16.236   6.490  0.2988  0.2817  0.1156
 1092YOPC   NC315521   3.952   7.538   6.038  0.0108  0.1528  0.2840
 1092YOPC   PO415522   4.131   7.965   5.970  0.1803 -0.3381  0.0722
 1092YOPC   GL115523   4.219   7.996   6.366  0.2092  0.1976  0.1960
 1092YOPC   GL215524   4.097   7.718   6.563 -0.0821  0.0629 -0.0187
 1092YOPC   C1A15525   4.155   8.271   6.740 -0.0446 -0.0597 -0.2947
 1092YOPC   D2A15526   4.504   8.580   7.041  0.2730 -0.1287  0.0782
 1092YOPC   C3A15527   4.573   8.928   6.854  0.5787 -0.1838  0.1840
 1092YOPC   C4A15528   4.619   9.044   6.414  0.0663  0.3588  0.0956
 1092YOPC   C1B15529   4.121   7.879   7.016 -0.0154 -0.1431 -0.0225
 1092YOPC   C2B15530   4.335   7.705   7.346  0.2794 -0.0035  0.0053
 1092YOPC   D3B15531   4.236   7.821   7.808  0.0365  0.0608 -0.0917
 1092YOPC   C4B15532   4.399   8.138   7.949  0.0890 -0.0539 -0.2378
 1093YOPC   NC315533   3.407   9.799   5.949  0.1707 -0.1207 -0.0503
 1093YOPC   PO415534   3.277   9.425   6.096 -0.1992 -0.1115  0.0500
 1093YOPC   GL115535   3.021   9.423   6.445  0.2391  0.0997  0.0991
 1093YOPC   GL215536   2.607   9.548   6.486 -0.1393  0.0993 -0.0270
 1093YOPC   C1A15537   2.902   9.430   6.901 -0.3168 -0.0548  0.1009
 1093YOPC   D2A15538   3.113   9.570   7.291 -0.0863 -0.2832  0.0850
 1093YOPC   C3A15539   3.287   9.837   7.611  0.1930 -0.0333 -0.1092
 1093YOPC   C4A15540   3.224  10.079   7.976  0.2783 -0.0999  0.2190
 1093YOPC   C1B15541   2.458   9.326   6.810  0.1587 -0.3347 -0.1321
 1093YOPC   C2B15542   2.642   9.021   7.064  0.1191  0.0686  0.0098
 1093YOPC   D3B15543   2.593   8.805   7.479  0.1034  0.3415 -0.2870
 1093YOPC   C4B15544   2.531   8.538   7.818  0.0672 -0.0646  0.0050
 1094YOPC   NC315545  17.128   6.365   5.045 -0.1209 -0.0866 -0.3433
 1094YOPC   PO415546  17.233   6.401   5.468 -0.4259 -0.0659  0.0350
 1094YOPC   GL115547  16.881   6.542   5.665  0.2209  0.0006 -0.1592
 1094YOPC   GL215548  16.933   6.367   5.923  0.0497  0.0850  0.0075
 1094YOPC   C1A15549  16.458   6.653   5.727  0.2826 -0.1680 -0.0455
 1094YOPC   D2A15550  16.122   6.770   5.817 -0.2450  0.1296 -0.0497
 1094YOPC   C3A15551  16.015   6.723   6.233 -0.1820 -0.0772  0.0364
 1094YOPC   C4A15552  16.295   6.717   6.696 -0.0021  0.2238  0.0295
 1094YOPC   C1B15553  16.875   6.149   6.324  0.1365  0.0192  0.0033
 1094YOPC   C2B15554  16.730   6.368   6.694  0.0641 -0.2319  0.3474
 1094YOPC   D3B15555  16.745   6.099   7.038 -0.1632 -0.0182  0.1268
 1094YOPC   C4B15556  16.633   5.678   6.993 -0.2040 -0.0484 -0.0911
 1095YOPC   NC315557   8.693   0.086   5.106  0.1967  0.1049 -0.0520
 1095YOPC   PO415558   9.098   0.278   5.253  0.0909  0.2096  0.0670
 1095YOPC   GL115559   9.546   0.579   5.175 -0.2495  0.7111  0.1527
 1095YOPC   GL215560   9.638   0.506   5.410 -0.1816  0.2466 -0.0543
 1095YOPC   C1A15561   9.937   0.818   5.363  0.1075 -0.3249 -0.1691
 1095YOPC   D2A15562  10.201   1.064   5.457 -0.2464  0.0581 -0.1427
 1095YOPC   C3A15563  10.620   1.049   5.603 -0.1486  0.2551  0.3050
 1095YOPC   C4A15564  11.088   1.064   5.864 -0.2354  0.1732 -0.1016
 1095YOPC   C1B15565   9.519   0.498   5.891  0.2093 -0.0655 -0.1347
 1095YOPC   C2B15566   9.511   0.827   6.332 -0.0572  0.3310 -0.3795
 1095YOPC   D3B15567   9.450   0.658   6.698 -0.0803  0.0305 -0.0774
 1095YOPC   C4B15568   9.092   0.521   7.080 -0.1833 -0.2078  0.0825
 1096YOPC   NC315569  11.760  10.141   5.105 -0.2971 -0.0059 -0.2098
 1096YOPC   PO415570  11.419  10.341   5.011  0.2021 -0.1010 -0.0789
 1096YOPC   GL115571  11.324  10.300   5.489 -0.1049  0.2665 -0.0128
 1096YOPC   GL215572  11.527  10.208   5.510 -0.4029 -0.0895  0.2013
 1096YOPC   C1A15573  11.336  10.214   5.951 -0.5886 -0.0640 -0.0354
 1096YOPC   D2A15574  11.535  10.123   6.277 -0.1789 -0.1562  0.4759
 1096YOPC   C3A15575  11.515  10.316   6.634 -0.0406  0.2822  0.2918
 1096YOPC   C4A15576  11.196  10.397   6.933 -0.2525  0.2931  0.2874
 1096YOPC   C1B15577  11.747  10.469   5.800 -0.1262 -0.1314  0.1459
 1096YOPC   C2B15578  11.642  10.646   6.190 -0.1921  0.2058 -0.1578
 1096YOPC   D3B15579  11.243  10.545   6.270 -0.1219 -0.4579  0.0938
 1096YOPC   C4B15580  10.939  10.341   6.284  0.2878 -0.3526  0.1355
 1097YOPC   NC315581   9.551  11.746   4.521 -0.1273 -0.2062  0.2286
 1097YOPC   PO415582   9.529  11.966   4.963 -0.0418  0.3282  0.1504
 1097YOPC   GL115583   9.777  11.989   5.417  0.4816  0.4066 -0.1123
 1097YOPC   GL215584   9.674  12.072   5.750  0.0893  0.5087  0.2484
 1097YOPC   C1A15585  10.081  12.325   5.660  0.1882  0.0112  0.0113
 1097YOPC   D2A15586   9.897  12.350   6.074 -0.0052  0.0994  0.3114
 1097YOPC   C3A15587  10.111  12.558   6.384 -0.2669 -0.0382 -0.0218
 1097YOPC   C4A15588  10.166  12.856   6.772 -0.2115  0.1539  0.3568
 1097YOPC   C1B15589   9.295  11.892   5.850 -0.0429  0.1816  0.1374
 1097YOPC   C2B15590   9.154  11.739   6.233 -0.2922 -0.3711 -0.4750
 1097YOPC   D3B15591   8.852  11.791   6.498 -0.0919 -0.1803  0.0734
 1097YOPC   C4B15592   8.470  12.029   6.642 -0.0455 -0.0302  0.5556
 1098YOPC   NC315593  18.436   1.384   5.248 -0.1151  0.3486 -0.0532
 1098YOPC   PO415594  18.783   1.162   5.367 -0.1185  0.5192  0.2619
 1098YOPC   GL115595  18.752   1.293   5.755  0.2231  0.1697  0.0948
 1098YOPC   GL215596  18.669   1.521   5.708  0.1849  0.4406  0.4775
 1098YOPC   C1A15597  18.810   1.349   6.159  0.1214  0.3527 -0.0105
 1098YOPC   D2A15598  18.709   1.371   6.614 -0.1806  0.1310 -0.5279
 1098YOPC   C3A15599  19.072   1.154   6.864  0.0909 -0.0112 -0.0713
 1098YOPC   C4A15600  19.360   1.124   7.142  0.0897  0.1297 -0.1037
 1098YOPC   C1B15601  18.661   1.792   5.968 -0.1039  0.1543  0.1623
 1098YOPC   C2B15602  18.702   1.817   6.382  0.1579 -0.1927  0.1405
 1098YOPC   D3B15603  18.496   1.792   6.838 -0.0497  0.1227 -0.0831
 1098YOPC   C4B15604  18.422   1.540   7.175  0.1781 -0.0404 -0.1426
 1099YOPC   NC315605   4.446  19.227   5.059  0.2667  0.2338 -0.2358
 1099YOPC   PO415606   4.199  19.563   5.258  0.1667 -0.0615 -0.1087
 1099YOPC   GL115607   4.516  19.431   5.633  0.0776 -0.1427 -0.3060
 1099YOPC   GL215608   4.782  19.359   5.729  0.0762  0.1701 -0.0624
 1099YOPC   C1A15609   4.515  19.377   6.131 -0.1385  0.2873  0.4943
 1099YOPC   D2A15610   4.505  19.705   6.467  0.0168 -0.0808  0.0652
 1099YOPC   C3A15611   4.907  19.946   6.604  0.0665 -0.1439 -0.1772
 1099YOPC   C4A15612   5.244  20.067   6.376 -0.1037 -0.0577 -0.2813
 1099YOPC   C1B15613   5.202  19.199   5.752  0.0629  0.1091  0.1105
 1099YOPC   C2B15614   5.438  18.944   6.067  0.2566 -0.1561  0.1398
 1099YOPC   D3B15615   5.197  18.532   6.315 -0.0827  0.0591  0.2454
 1099YOPC   C4B15616   4.831  18.505   6.641 -0.0360 -0.0781  0.1256
 1100YOPC   NC315617  16.570   4.053   4.948  0.2000  0.2969 -0.0398
 1100YOPC   PO415618  16.965   3.777   4.857 -0.3643  0.4347  0.2662
 1100YOPC   GL115619  17.014   3.793   5.242  0.1959 -0.2153  0.0391
 1100YOPC   GL215620  16.900   4.113   5.272  0.0323 -0.3429  0.2692
 1100YOPC   C1A15621  17.152   3.738   5.615  0.2544  0.1033 -0.1035
 1100YOPC   D2A15622  17.358   3.882   5.952  0.3328 -0.2084  0.3422
 1100YOPC   C3A15623  17.830   4.123   5.901 -0.1183 -0.1087 -0.0534
 1100YOPC   C4A15624  18.081   4.383   6.163  0.2045 -0.0427  0.0856
 1100YOPC   C1B15625  16.637   3.843   5.611 -0.0434 -0.3702  0.0698
 1100YOPC   C2B15626  16.539   3.465   5.758 -0.0323  0.1609 -0.1570
 1100YOPC   D3B15627  16.484   3.271   6.278 -0.1091  0.1711 -0.1977
 1100YOPC   C4B15628  16.582   2.967   6.632  0.0056  0.1345  0.0926
 1101YOPC   NC315629  11.178   3.134   4.995 -0.0574 -0.2695 -0.0185
 1101YOPC   PO415630  10.764   3.232   5.233  0.0014  0.1342 -0.0991
 1101YOPC   GL115631  11.058   3.324   5.514  0.0925  0.3298  0.3906
 1101YOPC   GL215632  11.022   3.126   5.676  0.0792  0.0928 -0.0886
 1101YOPC   C1A15633  11.250   3.517   5.900  0.1039  0.2089  0.0983
 1101YOPC   D2A15634  11.501   3.704   6.161  0.0882 -0.1860  0.2395
 1101YOPC   C3A15635  11.881   3.590   6.349 -0.0855 -0.1453  0.0630
 1101YOPC   C4A15636  12.370   3.614   6.213  0.0207 -0.0605 -0.5810
 1101YOPC   C1B15637  11.237   2.873   5.812  0.1639  0.1298 -0.3147
 1101YOPC   C2B15638  11.537   2.930   5.548  0.0233 -0.2827 -0.1717
 1101YOPC   D3B15639  11.619   3.380   5.573 -0.1089  0.3037 -0.2958
 1101YOPC   C4B15640  11.623   3.867   5.741  0.1410  0.0270 -0.0180
 1102YOPC   NC315641   1.383  15.861   5.051  0.0510 -0.0945 -0.3036
 1102YOPC   PO415642   1.093  15.946   5.337 -0.0140 -0.0796  0.3291
 1102YOPC   GL115643   1.241  15.966   5.748 -0.1752  0.1638 -0.4057
 1102YOPC   GL215644   1.414  15.589   5.755  0.0690 -0.2704 -0.0938
 1102YOPC   C1A15645   1.523  16.111   5.935 -0.2038 -0.0583 -0.2946
 1102YOPC   D2A15646   1.866  16.378   5.959 -0.3123 -0.1038 -0.1321
 1102YOPC   C3A15647   1.981  16.444   6.384 -0.3822  0.2331 -0.1234
 1102YOPC   C4A15648   2.306  16.712   6.611  0.1899 -0.1989  0.0239
 1102YOPC   C1B15649   1.421  15.635   6.243  0.2279  0.1850  0.1493
 1102YOPC   C2B15650   1.524  15.662   6.621  0.0466 -0.3831 -0.1399
 1102YOPC   D3B15651   1.510  15.492   6.986 -0.0330 -0.0966  0.0113
 1102YOPC   C4B15652   1.606  15.670   7.375  0.2791 -0.1410 -0.2694
 1103YOPC   NC315653  19.079  17.734   5.399 -0.2513  0.0451  0.1979
 1103YOPC   PO415654  19.473  17.633   5.158  0.0566 -0.0046 -0.3195
 1103YOPC   GL115655  19.501  17.444   5.516  0.4403 -0.1556 -0.1602
 1103YOPC   GL215656  19.628  17.620   5.752 -0.2021 -0.0900 -0.1497
 1103YOPC   C1A15657  19.589  17.107   5.721 -0.1958 -0.3847 -0.1784
 1103YOPC   D2A15658  19.577  17.083   6.151  0.0517  0.0793 -0.0395
 1103YOPC   C3A15659  19.193  17.345   6.205 -0.2329 -0.1413 -0.0112
 1103YOPC   C4A15660  18.785  17.227   6.235 -0.1921 -0.0514 -0.1286
 1103YOPC   C1B15661  20.060  17.854   5.705  0.3502 -0.1110 -0.0023
 1103YOPC   C2B15662  20.495  17.850   6.031 -0.0801 -0.3650  0.3349
 1103YOPC   D3B15663  20.743  17.488   6.097  0.1782  0.1060  0.1109
 1103YOPC   C4B15664  20.889  17.191   6.367 -0.1064  0.1656  0.1085
 1104YOPC   NC315665  17.433   5.181   5.256 -0.0072  0.2370 -0.1871
 1104YOPC   PO415666  17.742   5.543   5.275  0.0757 -0.0201 -0.1827
 1104YOPC   GL115667  17.425   5.560   5.700 -0.0083 -0.2237  0.0468
 1104YOPC   GL215668  17.173   5.472   5.591 -0.0274 -0.0930 -0.0449
 1104YOPC   C1A15669  17.485   5.433   6.184  0.0983  0.2445  0.0580
 1104YOPC   D2A15670  17.476   5.321   6.593  0.0890  0.2707 -0.3945
 1104YOPC   C3A15671  17.162   5.157   6.663 -0.0043 -0.0084 -0.0533
 1104YOPC   C4A15672  16.773   5.308   6.615  0.0195 -0.2906 -0.0389
 1104YOPC   C1B15673  17.108   5.780   5.975 -0.1083  0.0021 -0.1045
 1104YOPC   C2B15674  16.959   5.718   6.408  0.4515 -0.0810  0.0648
 1104YOPC   D3B15675  17.174   5.697   6.737 -0.1709  0.3897 -0.1011
 1104YOPC   C4B15676  17.524   5.627   7.009 -0.1100 -0.0068 -0.0661
 1105YOPC   NC315677   0.810  12.615   5.670  0.0908  0.2407 -0.1571
 1105YOPC   PO415678   1.201  12.433   5.685  0.1169 -0.1233  0.0154
 1105YOPC   GL115679   0.954  12.234   6.065  0.1279 -0.0931  0.0584
 1105YOPC   GL215680   0.612  12.275   6.037  0.1914 -0.0335 -0.3561
 1105YOPC   C1A15681   0.687  12.294   6.543 -0.5081 -0.2398  0.3086
 1105YOPC   D2A15682   0.617  12.215   7.039 -0.1588  0.2253 -0.1954
 1105YOPC   C3A15683   0.323  12.432   7.449 -0.0582 -0.1373  0.1203
 1105YOPC   C4A15684  -0.104  12.195   7.638 -0.1061  0.2594  0.2914
 1105YOPC   C1B15685   0.567  11.785   6.237  0.1015  0.0183 -0.3699
 1105YOPC   C2B15686   0.652  11.680   6.685 -0.2939 -0.0066 -0.1480
 1105YOPC   D3B15687   0.681  11.719   7.156 -0.2220  0.1143  0.0908
 1105YOPC   C4B15688   1.064  11.944   7.244  0.1307  0.1580  0.0738
 1106YOPC   NC315689  15.187   2.420   4.227  0.0742 -0.1253  0.1215
 1106YOPC   PO415690  14.837   2.329   4.494  0.3807  0.0967 -0.3108
 1106YOPC   GL115691  14.809   2.431   4.997 -0.0810 -0.0460 -0.1682
 1106YOPC   GL215692  14.636   2.268   5.281  0.3186 -0.2111  0.0349
 1106YOPC   C1A15693  14.965   2.712   5.310 -0.2146 -0.1061  0.0497
 1106YOPC   D2A15694  15.159   2.693   5.683 -0.0180  0.0845 -0.1714
 1106YOPC   C3A15695  15.071   2.792   6.044 -0.1059 -0.1478 -0.1181
 1106YOPC   C4A15696  15.171   2.955   6.421  0.0644  0.0127 -0.0581
 1106YOPC   C1B15697  14.993   2.278   5.460 -0.1065 -0.0683  0.1958
 1106YOPC   C2B15698  15.274   2.190   5.647  0.1566 -0.2274 -0.1907
 1106YOPC   D3B15699  15.599   2.472   5.768 -0.1368  0.1507  0.2140
 1106YOPC   C4B15700  16.010   2.596   5.830 -0.1092  0.1048 -0.0469
 1107YOPC   NC315701   8.050  11.734   5.259  0.0084 -0.1785  0.3703
 1107YOPC   PO415702   8.004  11.447   5.581 -0.0406  0.0745 -0.1932
 1107YOPC   GL115703   8.430  11.245   5.772 -0.3389  0.4106  0.6383
 1107YOPC   GL215704   8.409  11.285   6.085  0.1443 -0.0176  0.0576
 1107YOPC   C1A15705   8.873  10.966   5.898 -0.1352  0.0298 -0.0004
 1107YOPC   D2A15706   9.299  10.888   6.080 -0.1595  0.2520  0.1698
 1107YOPC   C3A15707   9.574  11.297   6.167  0.1906  0.3421 -0.2803
 1107YOPC   C4A15708   9.711  11.766   6.183  0.1225  0.0600 -0.4048
 1107YOPC   C1B15709   8.462  11.505   6.477 -0.2691  0.1097  0.0685
 1107YOPC   C2B15710   8.568  11.652   6.954 -0.3191 -0.0511  0.1605
 1107YOPC   D3B15711   8.992  11.904   6.970 -0.0064  0.2263 -0.1392
 1107YOPC   C4B15712   9.336  11.836   6.666 -0.1576 -0.2579  0.1834
 1108YOPC   NC315713   6.130   0.834   5.081 -0.0500 -0.2904 -0.0773
 1108YOPC   PO415714   5.656   0.937   5.200  0.0271  0.1156 -0.1642
 1108YOPC   GL115715   5.665   0.587   5.503 -0.1034  0.0946 -0.1213
 1108YOPC   GL215716   5.484   0.224   5.534 -0.4228  0.0952 -0.2116
 1108YOPC   C1A15717   5.940   0.443   5.955  0.0432 -0.0808  0.1412
 1108YOPC   D2A15718   6.184   0.141   6.097 -0.0085  0.1223  0.1972
 1108YOPC   C3A15719   6.643   0.235   6.006  0.0878  0.0090 -0.1923
 1108YOPC   C4A15720   6.796   0.603   6.207  0.0996 -0.1256  0.0928
 1108YOPC   C1B15721   5.084   0.400   5.561 -0.2203 -0.0210 -0.1254
 1108YOPC   C2B15722   4.848   0.374   5.960 -0.0299 -0.3153 -0.0455
 1108YOPC   D3B15723   5.041   0.111   6.182  0.0807  0.1650  0.4529
 1108YOPC   C4B15724   5.388   0.033   6.430 -0.0808  0.1225 -0.0919
 1109YOPC   NC315725  18.721  16.403   5.348 -0.0520  0.2378  0.1433
 1109YOPC   PO415726  19.140  16.352   5.294 -0.2022  0.1189  0.3772
 1109YOPC   GL115727  19.126  16.416   5.701  0.3776  0.1029  0.0696
 1109YOPC   GL215728  19.349  16.686   5.853  0.0831  0.0398 -0.2079
 1109YOPC   C1A15729  19.140  16.220   6.155  0.2575 -0.0827 -0.1617
 1109YOPC   D2A15730  19.067  16.451   6.635 -0.1591  0.1712 -0.1604
 1109YOPC   C3A15731  19.226  16.287   7.021  0.0235  0.0160  0.3767
 1109YOPC   C4A15732  19.605  16.032   7.070 -0.0298  0.2054 -0.0037
 1109YOPC   C1B15733  19.458  16.600   6.281 -0.3253  0.2082  0.1069
 1109YOPC   C2B15734  19.636  16.379   6.609  0.0146 -0.1371 -0.1803
 1109YOPC   D3B15735  19.458  15.991   6.547 -0.0612 -0.1290  0.1374
 1109YOPC   C4B15736  19.355  15.608   6.417  0.1150 -0.4736  0.0752
 1110YOPC   NC315737  17.255   9.922   5.437 -0.3793 -0.1049 -0.1380
 1110YOPC   PO415738  16.953  10.224   5.424 -0.0742 -0.2000  0.0453
 1110YOPC   GL115739  16.869  10.107   5.816  0.0982  0.1328 -0.0123
 1110YOPC   GL215740  16.539   9.993   5.870  0.1875 -0.2590 -0.1668
 1110YOPC   C1A15741  16.763  10.306   6.212 -0.1437 -0.0064  0.0936
 1110YOPC   D2A15742  16.408  10.182   6.462  0.0545 -0.1381 -0.0655
 1110YOPC   C3A15743  16.072  10.065   6.586 -0.2758  0.0024 -0.0030
 1110YOPC   C4A15744  15.830   9.822   6.876  0.1332  0.0972 -0.0146
 1110YOPC   C1B15745  16.645   9.804   6.285 -0.0152  0.3236  0.0774
 1110YOPC   C2B15746  16.811   9.378   6.459  0.1847 -0.0389 -0.0247
 1110YOPC   D3B15747  17.103   9.398   6.678  0.3498  0.5087  0.2549
 1110YOPC   C4B15748  17.091   9.558   7.029  0.0065  0.0509 -0.1707
 1111YOPC   NC315749   2.584  16.219   4.574 -0.0983 -0.0596 -0.4001
 1111YOPC   PO415750   2.907  15.915   4.991 -0.2333  0.0417  0.2377
 1111YOPC   GL115751   3.012  16.007   5.507 -0.0863  0.1756 -0.0669
 1111YOPC   GL215752   2.660  15.841   5.595 -0.0697  0.1494  0.1934
 1111YOPC   C1A15753   2.879  16.166   5.955 -0.0821  0.0126  0.0858
 1111YOPC   D2A15754   2.918  16.458   6.217 -0.1076 -0.1778  0.0498
 1111YOPC   C3A15755   3.155  16.787   6.031 -0.1762  0.2457 -0.0034
 1111YOPC   C4A15756   3.548  16.845   5.851  0.0121 -0.0394 -0.0743
 1111YOPC   C1B15757   2.860  15.613   5.926  0.1312 -0.0942 -0.0099
 1111YOPC   C2B15758   2.858  15.664   6.242  0.1145  0.0387  0.1326
 1111YOPC   D3B15759   3.010  16.009   6.532  0.1558 -0.0012  0.1315
 1111YOPC   C4B15760   3.055  16.197   6.900 -0.0364 -0.1177  0.1435
 1112YOPC   NC315761   9.732   8.473   5.262 -0.1034  0.0442  0.0316
 1112YOPC   PO415762   9.920   8.024   5.426 -0.0651 -0.1021 -0.1160
 1112YOPC   GL115763   9.886   7.919   5.830  0.0174  0.0498 -0.1587
 1112YOPC   GL215764   9.990   7.571   5.736  0.1334  0.1004 -0.3946
 1112YOPC   C1A15765   9.658   7.812   6.240 -0.0296  0.1314  0.0581
 1112YOPC   D2A15766   9.394   7.886   6.520 -0.0993 -0.4234 -0.0336
 1112YOPC   C3A15767   9.211   8.300   6.633  0.4704 -0.5369  0.0182
 1112YOPC   C4A15768   9.110   8.704   6.678 -0.0500  0.0524 -0.0018
 1112YOPC   C1B15769  10.305   7.706   6.019 -0.2405 -0.1213 -0.2024
 1112YOPC   C2B15770  10.120   7.924   6.383 -0.2824  0.1788  0.1478
 1112YOPC   D3B15771  10.294   7.949   6.724  0.0023 -0.0273 -0.4611
 1112YOPC   C4B15772  10.401   7.899   7.163  0.1988 -0.0903 -0.0372
 1113YOPC   NC315773   1.554  10.437   5.508 -0.1075 -0.1385  0.0427
 1113YOPC   PO415774   1.701  10.133   5.824  0.2090  0.1302 -0.2634
 1113YOPC   GL115775   1.466   9.875   6.162 -0.2952  0.0349 -0.1582
 1113YOPC   GL215776   1.248   9.874   5.977  0.7347 -0.4124  0.0198
 1113YOPC   C1A15777   1.609   9.676   6.503  0.1632  0.2813  0.1439
 1113YOPC   D2A15778   1.726   9.632   7.012 -0.3436  0.2083  0.3538
 1113YOPC   C3A15779   2.070   9.492   7.071 -0.1827  0.0179  0.5102
 1113YOPC   C4A15780   2.192   9.156   7.344 -0.1556  0.0321 -0.0438
 1113YOPC   C1B15781   0.948   9.646   6.260 -0.0804  0.1974  0.1316
 1113YOPC   C2B15782   0.889   9.663   6.683  0.0063 -0.0471 -0.0767
 1113YOPC   D3B15783   0.718   9.332   6.815  0.0244  0.2473 -0.4315
 1113YOPC   C4B15784   0.631   9.284   7.229  0.1100  0.1231 -0.0318
 1114YOPC   NC315785  14.093   1.327   4.909 -0.4309 -0.4102  0.5552
 1114YOPC   PO415786  13.733   1.055   4.812 -0.1507  0.2484 -0.3600
 1114YOPC   GL115787  13.747   0.804   5.227 -0.1580  0.0228  0.0164
 1114YOPC   GL215788  13.370   0.653   5.500  0.0913 -0.1807 -0.2495
 1114YOPC   C1A15789  13.861   0.801   5.598 -0.0547  0.1389  0.0340
 1114YOPC   D2A15790  13.927   1.047   6.027  0.1386  0.2094 -0.0364
 1114YOPC   C3A15791  13.617   0.785   6.359  0.0912 -0.1923  0.3261
 1114YOPC   C4A15792  13.508   0.597   6.644 -0.0341  0.0968 -0.0242
 1114YOPC   C1B15793  13.439   1.021   5.816  0.0554  0.3121 -0.0164
 1114YOPC   C2B15794  13.342   1.332   6.035 -0.0604 -0.0558  0.3713
 1114YOPC   D3B15795  13.620   1.431   6.286  0.2698 -0.1046  0.0771
 1114YOPC   C4B15796  13.891   1.248   6.571  0.2979 -0.0420  0.1100
 1115YOPC   NC315797  17.207  15.515   5.449 -0.2876 -0.0379  0.1313
 1115YOPC   PO415798  17.159  15.773   5.217  0.0315  0.2100 -0.0981
 1115YOPC   GL115799  16.974  15.892   5.644 -0.0153  0.1116 -0.1975
 1115YOPC   GL215800  16.894  15.826   5.914  0.1964  0.1318 -0.1628
 1115YOPC   C1A15801  17.043  16.290   5.707  0.1123  0.0493  0.0662
 1115YOPC   D2A15802  17.125  16.732   5.891 -0.0018 -0.0276  0.1447
 1115YOPC   C3A15803  17.403  17.042   5.814  0.4735  0.2727  0.0805
 1115YOPC   C4A15804  17.879  17.295   5.829 -0.1389  0.3754 -0.2420
 1115YOPC   C1B15805  17.049  15.682   6.237 -0.0034 -0.3005  0.3569
 1115YOPC   C2B15806  17.117  15.564   6.696  0.0036 -0.2888  0.0714
 1115YOPC   D3B15807  16.945  15.849   7.177  0.0031 -0.0233 -0.4397
 1115YOPC   C4B15808  16.674  16.187   7.147  0.4314 -0.1408  0.3158
 1116YOPC   NC315809   9.639  16.030   4.611  0.3179  0.1446  0.1053
 1116YOPC   PO415810   9.662  15.886   4.992 -0.0798  0.0537  0.1056
 1116YOPC   GL115811   9.812  16.107   5.289 -0.3845  0.1560 -0.1757
 1116YOPC   GL215812   9.984  15.821   5.449 -0.0681 -0.1734 -0.1590
 1116YOPC   C1A15813   9.527  16.288   5.543  0.1265  0.0486 -0.0142
 1116YOPC   D2A15814   9.009  16.228   5.631  0.0381  0.2364  0.0183
 1116YOPC   C3A15815   8.894  16.359   6.161  0.0295  0.3013 -0.1700
 1116YOPC   C4A15816   8.786  16.254   6.595  0.1357  0.0891  0.1050
 1116YOPC   C1B15817  10.238  16.180   5.509 -0.2529  0.0089 -0.0539
 1116YOPC   C2B15818  10.340  16.573   5.902  0.1489  0.1300  0.0475
 1116YOPC   D3B15819  10.170  16.498   6.220 -0.2979 -0.2945  0.1056
 1116YOPC   C4B15820   9.968  16.310   6.585  0.1355  0.1077 -0.1422
 1117YOPC   NC315821  10.800   9.303   4.948 -0.1489 -0.0083 -0.0006
 1117YOPC   PO415822  11.004   9.668   5.012  0.1299 -0.0504 -0.0903
 1117YOPC   GL115823  11.044   9.767   5.490 -0.2448  0.0070  0.1091
 1117YOPC   GL215824  11.244   9.749   5.781 -0.0669  0.0035 -0.1094
 1117YOPC   C1A15825  10.853  10.139   5.748  0.1857  0.5204  0.1153
 1117YOPC   D2A15826  10.514  10.310   6.079  0.3039 -0.0816 -0.2095
 1117YOPC   C3A15827  10.189  10.039   6.044 -0.2559 -0.0057  0.3196
 1117YOPC   C4A15828  10.138   9.594   6.164  0.2666 -0.1749 -0.0043
 1117YOPC   C1B15829  11.145   9.807   6.174  0.1861 -0.2037  0.1777
 1117YOPC   C2B15830  11.098   9.980   6.574  0.1578  0.2512 -0.1605
 1117YOPC   D3B15831  10.732   9.690   6.797  0.0799  0.1560  0.3771
 1117YOPC   C4B15832  10.252   9.683   6.846  0.2585 -0.0485  0.1338
 1118YOPC   NC315833   4.568  15.778   4.977  0.2645  0.0373 -0.3018
 1118YOPC   PO415834   4.351  16.010   5.284  0.1234  0.3653  0.1733
 1118YOPC   GL115835   4.290  16.160   5.630 -0.0291  0.0847  0.2674
 1118YOPC   GL215836   4.653  16.096   5.714 -0.1770  0.1797  0.3223
 1118YOPC   C1A15837   4.167  16.398   5.878  0.2026 -0.0558 -0.3994
 1118YOPC   D2A15838   3.829  16.616   6.189 -0.2249 -0.3696  0.0255
 1118YOPC   C3A15839   3.608  16.967   6.438  0.1221  0.0551  0.3817
 1118YOPC   C4A15840   3.262  17.160   6.525  0.0988  0.0391 -0.0189
 1118YOPC   C1B15841   4.529  16.153   6.158  0.0323 -0.0348  0.0309
 1118YOPC   C2B15842   4.604  16.040   6.581 -0.1119  0.1281  0.1441
 1118YOPC   D3B15843   4.354  16.129   6.940  0.0545 -0.1873 -0.1659
 1118YOPC   C4B15844   4.147  16.515   7.043  0.0060 -0.2288 -0.0766
 1119YOPC   NC315845  14.495   3.906   4.594 -0.1082 -0.1963 -0.0386
 1119YOPC   PO415846  14.275   4.064   4.833  0.2451 -0.1529 -0.0753
 1119YOPC   GL115847  14.376   4.128   5.258  0.2165  0.0864 -0.1056
 1119YOPC   GL215848  14.430   3.863   5.417  0.0082 -0.0078 -0.3760
 1119YOPC   C1A15849  14.440   4.378   5.663 -0.0411  0.1707 -0.1510
 1119YOPC   D2A15850  14.572   4.281   6.015  0.0638  0.0242 -0.0158
 1119YOPC   C3A15851  14.874   4.127   6.420  0.2514  0.2791 -0.1538
 1119YOPC   C4A15852  14.935   3.945   6.733  0.0004  0.0377  0.0863
 1119YOPC   C1B15853  14.290   3.778   5.787 -0.0449  0.0615  0.1802
 1119YOPC   C2B15854  14.291   3.482   6.216 -0.1089  0.0647 -0.0569
 1119YOPC   D3B15855  14.557   3.377   6.557 -0.2626  0.1755  0.4892
 1119YOPC   C4B15856  14.688   3.625   6.966  0.0772 -0.0734 -0.5079
 1120YOPC   NC315857  16.482   5.842   4.752 -0.1155 -0.2117 -0.2294
 1120YOPC   PO415858  16.641   6.067   5.058 -0.5654  0.1918  0.1000
 1120YOPC   GL115859  16.244   6.093   5.238 -0.1091 -0.1251 -0.0518
 1120YOPC   GL215860  16.148   6.317   5.399 -0.0431 -0.1643 -0.1560
 1120YOPC   C1A15861  16.121   5.792   5.576  0.0183 -0.0599  0.2055
 1120YOPC   D2A15862  15.908   5.397   5.807  0.0137  0.0630  0.1247
 1120YOPC   C3A15863  15.997   5.229   6.291  0.2471  0.0391 -0.1099
 1120YOPC   C4A15864  16.384   5.115   6.468  0.0120 -0.0890  0.2193
 1120YOPC   C1B15865  16.465   6.150   5.698  0.0091 -0.0344 -0.4306
 1120YOPC   C2B15866  16.647   5.799   5.912 -0.0638  0.1842 -0.1002
 1120YOPC   D3B15867  16.395   5.738   6.202 -0.1013  0.0624 -0.3596
 1120YOPC   C4B15868  16.375   5.994   6.635 -0.1881 -0.0906 -0.2364
 1121YOPC   NC315869   5.050   9.065   5.893 -0.0950  0.1275 -0.1936
 1121YOPC   PO415870   5.541   9.080   5.930  0.1399 -0.0377 -0.4849
 1121YOPC   GL115871   5.383   8.951   6.264  0.1846  0.2994  0.2094
 1121YOPC   GL215872   5.366   8.657   6.412 -0.3590 -0.0285 -0.2367
 1121YOPC   C1A15873   5.466   9.108   6.678  0.0387  0.0319 -0.2086
 1121YOPC   D2A15874   5.453   9.243   7.132 -0.0349 -0.1137 -0.0995
 1121YOPC   C3A15875   5.185   8.927   7.263 -0.1759 -0.0927 -0.0893
 1121YOPC   C4A15876   4.824   8.927   7.391  0.1113 -0.3047  0.2386
 1121YOPC   C1B15877   5.072   8.903   6.795  0.0054 -0.1848  0.0408
 1121YOPC   C2B15878   4.941   9.338   6.836 -0.1806 -0.0158  0.2376
 1121YOPC   D3B15879   5.092   9.435   6.353  0.0462  0.1914 -0.0357
 1121YOPC   C4B15880   5.269   9.854   6.083 -0.0559 -0.2447  0.1821
 1122YOPC   NC315881   3.008  14.930   5.411 -0.1819  0.0932  0.2317
 1122YOPC   PO415882   3.398  15.226   5.339 -0.2320 -0.3429  0.2890
 1122YOPC   GL115883   3.374  15.426   5.636 -0.2143 -0.0822  0.1031
 1122YOPC   GL215884   3.660  15.532   5.883 -0.0519  0.2139  0.1566
 1122YOPC   C1A15885   3.259  15.324   6.078  0.0274  0.0760  0.0858
 1122YOPC   D2A15886   3.108  15.387   6.519 -0.0281 -0.3061  0.1522
 1122YOPC   C3A15887   3.469  15.577   6.858 -0.0817 -0.3375  0.0220
 1122YOPC   C4A15888   3.516  16.004   7.018 -0.3055 -0.0151 -0.1615
 1122YOPC   C1B15889   3.795  16.016   6.049  0.2313 -0.1873 -0.1534
 1122YOPC   C2B15890   4.103  16.052   6.361  0.0286  0.1603  0.0601
 1122YOPC   D3B15891   4.089  16.373   6.620 -0.1723 -0.0161 -0.0187
 1122YOPC   C4B15892   4.386  16.763   6.654 -0.0785  0.1463  0.1096
 1123ERGO   ROH15893  12.332   1.494   8.833 -0.0541 -0.2024  0.0074
 1123ERGO    R115894  12.476   1.512   8.589  0.1040 -0.2038  0.0992
 1123ERGO    R215895  12.471   1.312   8.399  0.0195 -0.0952 -0.0138
 1123ERGO    R315896  12.395   1.515   8.234  0.3084  0.0723  0.0517
 1123ERGO    R415897  12.504   1.310   8.055 -0.2179 -0.1451 -0.0378
 1123ERGO    R515898  12.564   1.519   8.064  0.2094 -0.2563 -0.0629
 1123ERGO    C115899  12.452   1.498   7.700 -0.0849 -0.0170  0.0097
 1123ERGO    C215900  12.270   1.496   7.379 -0.0402  0.2766 -0.0890
 1124ERGO   ROH15901   2.678   8.669   6.393 -0.1064 -0.0976  0.0428
 1124ERGO    R115902   2.663   8.638   6.674  0.0391 -0.0490  0.0573
 1124ERGO    R215903   2.662   8.390   6.797  0.0066 -0.0334  0.0975
 1124ERGO    R315904   2.872   8.493   6.935  0.1290 -0.0953 -0.0408
 1124ERGO    R415905   2.742   8.309   7.123 -0.0096  0.2120  0.1637
 1124ERGO    R515906   2.789   8.519   7.159  0.1953  0.2024 -0.0496
 1124ERGO    C115907   2.986   8.359   7.443  0.0957  0.2969  0.0724
 1124ERGO    C215908   3.330   8.180   7.539  0.0669  0.0512 -0.3062
 1125ERGO   ROH15909  14.816   3.199   5.334  0.0540 -0.3703  0.0135
 1125ERGO    R115910  14.982   3.124   5.550  0.0456 -0.1271  0.1078
 1125ERGO    R215911  15.242   3.216   5.578 -0.0194  0.0595  0.1226
 1125ERGO    R315912  15.154   3.293   5.823 -0.1383  0.1575  0.0504
 1125ERGO    R415913  15.445   3.323   5.836 -0.1599  0.3083  0.1328
 1125ERGO    R515914  15.320   3.211   5.974 -0.1492  0.3269  0.1544
 1125ERGO    C115915  15.481   3.458   6.216 -0.3533  0.5451  0.0710
 1125ERGO    C215916  15.562   3.463   6.491  0.3037  0.1402 -0.1124
 1126ERGO   ROH15917   1.978  16.037   9.098  0.0942  0.0708  0.1271
 1126ERGO    R115918   2.115  16.082   8.855  0.1496 -0.0375  0.1375
 1126ERGO    R215919   2.144  15.886   8.662  0.0761 -0.0842  0.1715
 1126ERGO    R315920   2.034  16.075   8.500  0.1918 -0.0530  0.1285
 1126ERGO    R415921   2.147  15.876   8.317 -0.1557 -0.2982  0.1732
 1126ERGO    R515922   2.185  16.091   8.316  0.0942 -0.3412  0.0193
 1126ERGO    C115923   2.045  16.048   7.964 -0.1821 -0.3934  0.1340
 1126ERGO    C215924   1.941  15.863   7.723 -0.2782 -0.0116  0.1151
 1127ERGO   ROH15925   4.226  14.785   6.347  0.2375 -0.0585  0.1556
 1127ERGO    R115926   4.024  14.934   6.477  0.2251  0.0613  0.0028
 1127ERGO    R215927   3.942  14.879   6.735 -0.1690 -0.0454 -0.1371
 1127ERGO    R315928   3.999  15.142   6.775  0.0671 -0.1327  0.1261
 1127ERGO    R415929   3.897  15.047   7.034 -0.3493 -0.2146 -0.0670
 1127ERGO    R515930   3.825  15.219   6.920 -0.0265 -0.0519 -0.0310
 1127ERGO    C115931   3.924  15.391   7.246 -0.2326 -0.3952  0.2209
 1127ERGO    C215932   3.883  15.458   7.663 -0.0268  0.0671 -0.1715
 1128ERGO   ROH15933  14.192   9.928   5.203 -0.0390 -0.0056 -0.0918
 1128ERGO    R115934  14.222  10.087   5.435 -0.0175 -0.1038 -0.0273
 1128ERGO    R215935  14.021  10.118   5.622 -0.0269 -0.1174 -0.0395
 1128ERGO    R315936  14.213  10.034   5.795 -0.0709 -0.2380 -0.0470
 1128ERGO    R415937  14.002  10.148   5.966  0.0525  0.0103 -0.0453
 1128ERGO    R515938  14.214  10.201   5.967  0.1067 -0.1794 -0.0990
 1128ERGO    C115939  14.172  10.087   6.329  0.0575 -0.0285 -0.0558
 1128ERGO    C215940  14.092  10.118   6.664  0.4493  0.0037 -0.0972
 1129ERGO   ROH15941   9.187  11.823   9.252  0.1361  0.0010  0.0329
 1129ERGO    R115942   9.201  11.645   9.032  0.2849  0.0154  0.0314
 1129ERGO    R215943   9.009  11.638   8.833  0.2106 -0.2441  0.1144
 1129ERGO    R315944   9.224  11.673   8.670  0.0982  0.0396  0.0191
 1129ERGO    R415945   9.002  11.614   8.488  0.0754 -0.2071  0.1130
 1129ERGO    R515946   9.194  11.511   8.496  0.2108  0.0209  0.0118
 1129ERGO    C115947   9.200  11.632   8.135 -0.1087  0.0809  0.0227
 1129ERGO    C215948   8.928  11.605   7.933  0.1410 -0.0086 -0.0542
 1130ERGO   ROH15949  11.900   3.620   8.855  0.1954 -0.2867 -0.0178
 1130ERGO    R115950  11.790   3.738   8.623  0.0086 -0.3345  0.0442
 1130ERGO    R215951  11.929   3.921   8.469 -0.3069  0.0486  0.1921
 1130ERGO    R315952  11.870   3.748   8.268  0.0645  0.0626  0.0647
 1130ERGO    R415953  11.887   4.011   8.138 -0.5324  0.2018  0.2598
 1130ERGO    R515954  11.720   3.870   8.126 -0.2233 -0.1652  0.1686
 1130ERGO    C115955  11.808   3.901   7.756 -0.3152  0.3042  0.1797
 1130ERGO    C215956  12.014   4.041   7.490  0.1349 -0.3921  0.3941
 1131ERGO   ROH15957  12.386  12.404   5.396 -0.1192 -0.0472  0.0059
 1131ERGO    R115958  12.348  12.351   5.671 -0.0181  0.0024  0.0301
 1131ERGO    R215959  12.149  12.185   5.765 -0.1281  0.1934  0.1494
 1131ERGO    R315960  12.356  12.058   5.888 -0.1758  0.0040  0.0374
 1131ERGO    R415961  12.141  12.060   6.088 -0.0619  0.2015  0.1538
 1131ERGO    R515962  12.345  12.133   6.115  0.0190  0.0144  0.0426
 1131ERGO    C115963  12.331  11.869   6.390 -0.0682  0.0283  0.0513
 1131ERGO    C215964  12.314  11.790   6.680 -0.1357 -0.1805  0.0013
 1132ERGO   ROH15965   5.257   9.369   7.562 -0.0150  0.0491 -0.0041
 1132ERGO    R115966   5.046   9.240   7.700 -0.0248  0.0201 -0.0437
 1132ERGO    R215967   4.871   9.376   7.865 -0.0527 -0.0105 -0.0444
 1132ERGO    R315968   4.683   9.261   7.707 -0.0269  0.0013 -0.0812
 1132ERGO    R415969   4.535   9.355   7.942 -0.0543 -0.0528 -0.0700
 1132ERGO    R515970   4.534   9.153   7.860 -0.0279 -0.0398 -0.1090
 1132ERGO    C115971   4.162   9.234   7.838 -0.0310 -0.0666 -0.1193
 1132ERGO    C215972   3.816   9.362   7.999 -0.0787  0.0504  0.0917
 1133ERGO   ROH15973   7.701   7.194   9.291  0.0373  0.0423  0.1774
 1133ERGO    R115974   7.644   7.053   9.052  0.2268 -0.0161  0.1643
 1133ERGO    R215975   7.398   7.068   8.926  0.1864 -0.3722  0.1901
 1133ERGO    R315976   7.549   7.139   8.712  0.0617 -0.1121  0.1850
 1133ERGO    R415977   7.281   7.097   8.602  0.0978 -0.4465  0.2155
 1133ERGO    R515978   7.465   7.005   8.532  0.2151 -0.1813  0.1638
 1133ERGO    C115979   7.354   7.180   8.212 -0.0708 -0.2454  0.2253
 1133ERGO    C215980   7.316   7.251   7.964  0.1190  0.0539  0.1597
 1134ERGO   ROH15981  13.337  15.506   5.480 -0.2064 -0.1801 -0.0713
 1134ERGO    R115982  13.394  15.387   5.730 -0.1588 -0.1159 -0.0514
 1134ERGO    R215983  13.357  15.520   5.970 -0.0205 -0.0204 -0.0830
 1134ERGO    R315984  13.207  15.302   6.031 -0.0805  0.0565  0.0482
 1134ERGO    R415985  13.338  15.375   6.283  0.0522  0.0912 -0.0262
 1134ERGO    R515986  13.341  15.179   6.187 -0.0620  0.0568  0.0344
 1134ERGO    C115987  13.185  15.086   6.522  0.0381  0.2284  0.1301
 1134ERGO    C215988  13.250  14.978   6.745 -0.6124  0.0967 -0.3330
 1135ERGO   ROH15989   3.067   4.405   6.466 -0.1290  0.0032  0.0348
 1135ERGO    R115990   3.227   4.298   6.674  0.0017  0.2137  0.0451
 1135ERGO    R215991   3.349   4.458   6.865 -0.5111  0.3645  0.2636
 1135ERGO    R315992   3.218   4.294   7.038 -0.2343 -0.1161  0.0407
 1135ERGO    R415993   3.463   4.368   7.178 -0.4913  0.3820  0.2615
 1135ERGO    R515994   3.390   4.166   7.142  0.0249  0.2161  0.0399
 1135ERGO    C115995   3.407   4.162   7.523 -0.2199 -0.0590  0.0510
 1135ERGO    C215996   3.491   4.127   7.816 -0.1980  0.1425 -0.2603
 1136ERGO   ROH15997   5.141  10.439   5.814  0.2479  0.0129 -0.1120
 1136ERGO    R115998   5.080  10.437   6.091  0.0894 -0.0054 -0.1454
 1136ERGO    R215999   5.241  10.312   6.278 -0.1214 -0.1917 -0.0824
 1136ERGO    R316000   5.237  10.556   6.397  0.0211 -0.2169 -0.0259
 1136ERGO    R416001   5.292  10.367   6.615 -0.2959 -0.3246 -0.0337
 1136ERGO    R516002   5.133  10.517   6.609 -0.1577 -0.1774 -0.1048
 1136ERGO    C116003   5.318  10.629   6.923 -0.2637 -0.4257  0.0477
 1136ERGO    C216004   5.499  10.582   7.138 -0.2147  0.2097 -0.3018
 1137ERGO   ROH16005  13.664   5.469   5.248 -0.0598  0.0694 -0.0393
 1137ERGO    R116006  13.493   5.349   5.438  0.0018  0.0500  0.0042
 1137ERGO    R216007  13.532   5.092   5.533  0.0367  0.0428 -0.0293
 1137ERGO    R316008  13.524   5.215   5.775  0.1095  0.0226 -0.0165
 1137ERGO    R416009  13.429   4.943   5.827 -0.1572  0.1040 -0.0648
 1137ERGO    R516010  13.327   5.128   5.880  0.0073  0.1953 -0.0618
 1137ERGO    C116011  13.362   4.971   6.225 -0.2017  0.1209 -0.0735
 1137ERGO    C216012  13.201   5.045   6.452  0.2666 -0.0235  0.0901
 1138ERGO   ROH16013   5.365   7.086   6.559  0.2210  0.1376 -0.0428
 1138ERGO    R116014   5.271   7.104   6.825  0.1076 -0.0888 -0.0654
 1138ERGO    R216015   5.270   6.888   6.998  0.3747 -0.1515 -0.1385
 1138ERGO    R316016   5.410   7.056   7.159  0.0758  0.0090 -0.0375
 1138ERGO    R416017   5.339   6.831   7.331  0.4264 -0.2019 -0.1576
 1138ERGO    R516018   5.300   7.041   7.371  0.0682 -0.2795 -0.0574
 1138ERGO    C116019   5.512   6.955   7.677  0.1759 -0.0806 -0.0739
 1138ERGO    C216020   5.656   6.924   7.992 -0.4493  0.3330  0.0989
 1139ERGO   ROH16021  12.757   0.080   5.770  0.3025 -0.1901  0.0656
 1139ERGO    R116022  12.625  -0.169   5.783  0.1569 -0.1136  0.0953
 1139ERGO    R216023  12.754  -0.403   5.856  0.0692 -0.2237 -0.0640
 1139ERGO    R316024  12.554  -0.418   6.039  0.1999 -0.1353  0.0797
 1139ERGO    R416025  12.575  -0.689   5.928 -0.3213 -0.0342 -0.2489
 1139ERGO    R516026  12.394  -0.567   5.940 -0.1174  0.2268  0.0448
 1139ERGO    C116027  12.283  -0.871   6.143 -0.4260  0.1590 -0.2217
 1139ERGO    C216028  12.148  -1.124   6.374 -0.1288  0.0525 -0.0466
 1140ERGO   ROH16029  14.031  14.568   5.460 -0.0721  0.2238 -0.0988
 1140ERGO    R116030  14.081  14.479   5.724  0.4899  0.1252 -0.2277
 1140ERGO    R216031  14.278  14.590   5.884  0.1797  0.7718 -0.2732
 1140ERGO    R316032  14.073  14.623   6.058  0.1350 -0.2543 -0.0621
 1140ERGO    R416033  14.314  14.654   6.221  0.1957  0.6622 -0.2526
 1140ERGO    R516034  14.148  14.519   6.260  0.7775 -0.1193 -0.2040
 1140ERGO    C116035  14.142  14.723   6.582  0.1632 -0.3649 -0.0423
 1140ERGO    C216036  14.103  14.814   6.764  0.0752  0.1240  0.0538
 1141ERGO   ROH16037  11.426  16.744   9.196  0.0388 -0.3339  0.0348
 1141ERGO    R116038  11.515  16.877   8.962  0.1650 -0.3730  0.0614
 1141ERGO    R216039  11.655  16.748   8.762 -0.1421 -0.5198 -0.0591
 1141ERGO    R316040  11.458  16.849   8.604 -0.0417 -0.1035  0.0689
 1141ERGO    R416041  11.655  16.738   8.417 -0.3307 -0.4264 -0.0638
 1141ERGO    R516042  11.575  16.941   8.416  0.0436 -0.2655  0.0372
 1141ERGO    C116043  11.471  16.828   8.067 -0.3464  0.0185  0.0536
 1141ERGO    C216044  11.578  16.653   7.751  0.0136 -0.0386 -0.0463
 1142ERGO   ROH16045  16.686   1.204   5.485 -0.1035  0.1990  0.0810
 1142ERGO    R116046  16.540   1.067   5.685 -0.1220  0.2115  0.0770
 1142ERGO    R216047  16.618   1.064   5.951 -0.0594  0.0987  0.0607
 1142ERGO    R316048  16.365   1.155   5.992 -0.0061  0.2101  0.1436
 1142ERGO    R416049  16.463   1.085   6.259 -0.0444 -0.0869  0.0814
 1142ERGO    R516050  16.279   1.015   6.166 -0.0859  0.1038  0.0189
 1142ERGO    C116051  16.135   1.183   6.477  0.0143 -0.0904  0.1713
 1142ERGO    C216052  16.088   1.176   6.811  0.0273 -0.1263  0.0732
 1143ERGO   ROH16053  18.959   8.770   6.856 -0.0266  0.0884 -0.0873
 1143ERGO    R116054  19.003   8.773   7.135  0.1066  0.2069 -0.1082
 1143ERGO    R216055  19.061   9.004   7.275 -0.1931  0.3307 -0.1787
 1143ERGO    R316056  18.849   8.929   7.426 -0.0047  0.0145 -0.0626
 1143ERGO    R416057  19.002   9.110   7.598 -0.2450  0.3540 -0.1959
 1143ERGO    R516058  18.938   8.907   7.647  0.1267  0.2546 -0.0893
 1143ERGO    C116059  18.768   9.100   7.929 -0.0985  0.0707 -0.0969
 1143ERGO    C216060  18.848   9.323   8.103 -0.2425  0.0574 -0.1164
 1144ERGO   ROH16061   2.227  16.130   5.715 -0.0000 -0.0892  0.1152
 1144ERGO    R116062   2.390  16.091   5.944  0.0297 -0.0785  0.0953
 1144ERGO    R216063   2.432  16.288   6.131  0.0841 -0.0603  0.0586
 1144ERGO    R316064   2.345  16.098   6.305  0.0890 -0.0228  0.1029
 1144ERGO    R416065   2.532  16.264   6.461  0.1940 -0.0547  0.0264
 1144ERGO    R516066   2.539  16.047   6.437  0.1253 -0.0636  0.0404
 1144ERGO    C116067   2.508  16.072   6.817  0.2625 -0.0166  0.0494
 1144ERGO    C216068   2.476  15.785   7.130  0.0406  0.1515  0.0805
 1145ERGO   ROH16069   7.277   2.685   5.763  0.1572 -0.1801 -0.1663
 1145ERGO    R116070   7.287   2.872   5.974  0.1046 -0.1684 -0.1725
 1145ERGO    R216071   7.265   2.799   6.240  0.0933 -0.1613 -0.1668
 1145ERGO    R316072   7.500   2.933   6.263  0.0681 -0.1211 -0.1569
 1145ERGO    R416073   7.377   2.953   6.528 -0.0511  0.0650 -0.2301
 1145ERGO    R516074   7.449   3.118   6.406 -0.0129 -0.0205 -0.3176
 1145ERGO    C116075   7.663   3.168   6.718 -0.1588  0.2346 -0.2575
 1145ERGO    C216076   7.960   3.349   6.868 -0.0918  0.0313 -0.0776
 1146ERGO   ROH16077  18.059  15.253   5.795  0.2965 -0.1541  0.2723
 1146ERGO    R116078  18.126  15.523   5.848  0.0744 -0.0564  0.0745
 1146ERGO    R216079  17.945  15.730   5.820 -0.1504 -0.2464  0.0943
 1146ERGO    R316080  18.016  15.783   6.077 -0.0085 -0.0385  0.0148
 1146ERGO    R416081  17.915  16.037   5.975 -0.1869 -0.1528 -0.0962
 1146ERGO    R516082  18.108  16.004   6.070 -0.1103 -0.0012 -0.1950
 1146ERGO    C116083  17.964  16.266   6.306 -0.0750  0.0970 -0.2817
 1146ERGO    C216084  17.890  16.488   6.581 -0.0317  0.3104  0.0059
 1147ERGO   ROH16085  15.975   8.539   5.736  0.0116 -0.0886  0.0024
 1147ERGO    R116086  16.191   8.539   5.919  0.0508  0.2255 -0.0386
 1147ERGO    R216087  16.225   8.736   6.110 -0.3914  0.1106  0.1688
 1147ERGO    R316088  16.231   8.525   6.281  0.1402 -0.0752 -0.0564
 1147ERGO    R416089  16.417   8.719   6.397 -0.2273  0.2203  0.0677
 1147ERGO    R516090  16.459   8.511   6.350  0.2131  0.3487 -0.1747
 1147ERGO    C116091  16.534   8.511   6.724  0.3673  0.1099 -0.2025
 1147ERGO    C216092  16.556   8.643   7.042 -0.2036 -0.0925  0.1160
 1148ERGO   ROH16093  17.990  11.942   5.930 -0.0684 -0.1431  0.0691
 1148ERGO    R116094  18.049  11.975   6.205  0.0221 -0.1816  0.0572
 1148ERGO    R216095  17.877  12.101   6.379  0.2272  0.1187  0.0684
 1148ERGO    R316096  17.903  11.871   6.521 -0.1007  0.0931  0.0901
 1148ERGO    R416097  17.829  12.073   6.721  0.4161  0.2569  0.1055
 1148ERGO    R516098  18.002  11.940   6.728  0.1715 -0.0593  0.0066
 1148ERGO    C116099  17.826  11.841   7.052  0.2183  0.3134  0.1475
 1148ERGO    C216100  17.722  11.751   7.369 -0.1187 -0.0182  0.1865
 1149ERGO   ROH16101   5.795  11.542   9.804 -0.1698 -0.2029 -0.2287
 1149ERGO    R116102   5.726  11.612   9.538 -0.0628 -0.1659 -0.2464
 1149ERGO    R216103   5.846  11.821   9.403  0.0828 -0.2322 -0.2127
 1149ERGO    R316104   5.895  11.629   9.217  0.0296 -0.2555 -0.2043
 1149ERGO    R416105   5.905  11.883   9.069  0.3513 -0.2370 -0.1700
 1149ERGO    R516106   5.783  11.708   9.020  0.2209 -0.1256 -0.2681
 1149ERGO    C116107   5.984  11.740   8.698  0.4577 -0.2617 -0.1373
 1149ERGO    C216108   5.986  11.941   8.521  0.1526 -0.2839  0.0294
 1150ERGO   ROH16109  11.952  14.756   5.380  0.1114  0.0472 -0.0346
 1150ERGO    R116110  11.953  14.494   5.488  0.0374  0.1126  0.1317
 1150ERGO    R216111  12.173  14.327   5.470 -0.1208 -0.0900 -0.0714
 1150ERGO    R316112  12.144  14.313   5.740  0.2409  0.1199 -0.0169
 1150ERGO    R416113  12.266  14.058   5.666 -0.2891 -0.1283 -0.0443
 1150ERGO    R516114  12.084  14.086   5.783 -0.0801  0.2427  0.2028
 1150ERGO    C116115  12.293  13.889   6.034 -0.0474  0.0464  0.0225
 1150ERGO    C216116  12.468  13.647   6.342  0.0747  0.3129 -0.3455
 1151ERGO   ROH16117  15.400  10.399   8.796 -0.2390 -0.1428 -0.0092
 1151ERGO    R116118  15.455  10.411   8.519 -0.2355  0.0216 -0.0028
 1151ERGO    R216119  15.578  10.204   8.383 -0.0567  0.1772 -0.0879
 1151ERGO    R316120  15.360  10.224   8.222 -0.0687  0.0669 -0.0854
 1151ERGO    R416121  15.577  10.143   8.043 -0.0186  0.2440 -0.0999
 1151ERGO    R516122  15.445  10.314   8.017 -0.1287  0.1618 -0.0669
 1151ERGO    C116123  15.371  10.126   7.693 -0.0076  0.1794 -0.1046
 1151ERGO    C216124  15.172   9.917   7.461  0.0632  0.2177 -0.0039
 1152ERGO   ROH16125   8.217  17.230   8.846 -0.5106  0.0010  0.0494
 1152ERGO    R116126   8.205  17.158   8.572 -0.3629  0.1410  0.0056
 1152ERGO    R216127   8.115  17.331   8.377  0.0265  0.3460  0.0031
 1152ERGO    R316128   8.355  17.275   8.262  0.0595  0.0961  0.1846
 1152ERGO    R416129   8.187  17.373   8.041  0.2999  0.2149  0.0424
 1152ERGO    R516130   8.298  17.185   8.047  0.1218  0.1065  0.1602
 1152ERGO    C116131   8.454  17.344   7.738  0.4903 -0.0962  0.2357
 1152ERGO    C216132   8.528  17.459   7.287 -0.5734 -0.3253 -0.1634
 1153ERGO   ROH16133  13.132   5.006   5.451  0.0868  0.1055 -0.0053
 1153ERGO    R116134  12.954   4.978   5.670  0.1526  0.1763  0.0575
 1153ERGO    R216135  12.875   4.732   5.767  0.0500  0.2078  0.0516
 1153ERGO    R316136  12.965   4.832   6.003  0.1950  0.1243  0.0336
 1153ERGO    R416137  12.831   4.581   6.074  0.1703  0.1371  0.0353
 1153ERGO    R516138  12.792   4.778   6.160  0.2608  0.1248  0.1079
 1153ERGO    C116139  12.890   4.587   6.475  0.3765  0.0175  0.0089
 1153ERGO    C216140  12.727   4.319   6.804  0.2379  0.0916  0.1551
 1154ERGO   ROH16141  14.411  13.753   5.536  0.0950  0.0538  0.0704
 1154ERGO    R116142  14.518  13.599   5.747 -0.0795 -0.0625  0.0760
 1154ERGO    R216143  14.619  13.712   5.978  0.2684 -0.1480 -0.0283
 1154ERGO    R316144  14.443  13.544   6.099  0.0072  0.2347  0.1441
 1154ERGO    R416145  14.649  13.595   6.302  0.2589 -0.1075 -0.0129
 1154ERGO    R516146  14.581  13.400   6.232 -0.1821 -0.0026  0.0907
 1154ERGO    C116147  14.501  13.368   6.604  0.0082  0.2755  0.1579
 1154ERGO    C216148  14.647  13.283   6.967 -0.0983 -0.0083  0.1352
 1155ERGO   ROH16149  19.297  12.881   9.474 -0.1104 -0.2457 -0.0040
 1155ERGO    R116150  19.413  12.730   9.265 -0.1686 -0.3778  0.0578
 1155ERGO    R216151  19.272  12.540   9.122 -0.3327 -0.1664 -0.0678
 1155ERGO    R316152  19.357  12.685   8.908  0.0191 -0.2484  0.0104
 1155ERGO    R416153  19.209  12.460   8.792 -0.1966 -0.0413 -0.1252
 1155ERGO    R516154  19.413  12.520   8.744 -0.0765 -0.3038  0.0329
 1155ERGO    C116155  19.252  12.549   8.399  0.2129 -0.0456 -0.0852
 1155ERGO    C216156  19.300  12.406   8.114 -0.0070 -0.0467 -0.0382
 1156ERGO   ROH16157   8.928   3.168   5.654 -0.0387 -0.0765  0.0013
 1156ERGO    R116158   8.984   2.941   5.814 -0.1655 -0.0657  0.0611
 1156ERGO    R216159   9.083   2.961   6.071  0.0043 -0.0521 -0.0081
 1156ERGO    R316160   8.868   2.805   6.131 -0.1124  0.1756  0.1877
 1156ERGO    R416161   9.086   2.696   6.293 -0.0728 -0.0455  0.0025
 1156ERGO    R516162   8.959   2.585   6.155 -0.3160  0.0774  0.1150
 1156ERGO    C116163   8.887   2.395   6.478 -0.2273  0.1722  0.1924
 1156ERGO    C216164   8.901   2.145   6.571 -0.0748 -0.0621 -0.0245
 1157ERGO   ROH16165  13.149   8.092   8.872 -0.2451 -0.1030 -0.0161
 1157ERGO    R116166  13.182   8.260   8.647 -0.0787  0.0512  0.1202
 1157ERGO    R216167  13.214   8.161   8.391  0.0908  0.2247  0.0691
 1157ERGO    R316168  13.004   8.325   8.337  0.1372  0.2744  0.0399
 1157ERGO    R416169  13.113   8.256   8.074  0.0945  0.1739  0.0530
 1157ERGO    R516170  13.077   8.456   8.150  0.1613  0.2031  0.0013
 1157ERGO    C116171  12.858   8.464   7.839  0.1403  0.1910  0.0161
 1157ERGO    C216172  12.954   8.506   7.578  0.0620 -0.3342 -0.0586
 1158ERGO   ROH16173  19.332  17.949   9.103 -0.0224 -0.2838  0.0594
 1158ERGO    R116174  19.272  17.793   8.875  0.0443 -0.2279  0.0032
 1158ERGO    R216175  19.101  17.880   8.675 -0.0540 -0.2604  0.0725
 1158ERGO    R316176  19.313  17.826   8.514 -0.0438 -0.0436  0.0089
 1158ERGO    R416177  19.101  17.910   8.331 -0.1430 -0.1371  0.0821
 1158ERGO    R516178  19.217  17.725   8.320 -0.0065 -0.0469 -0.0072
 1158ERGO    C116179  19.300  17.875   7.979 -0.1855  0.1381  0.0282
 1158ERGO    C216180  19.348  17.906   7.623 -0.2007  0.1071 -0.1552
 1159ERGO   ROH16181   1.653  10.311   6.332  0.3260 -0.1729  0.1891
 1159ERGO    R116182   1.502  10.307   6.572  0.1776 -0.2295  0.0978
 1159ERGO    R216183   1.337  10.097   6.639  0.1904 -0.2876 -0.0130
 1159ERGO    R316184   1.483  10.097   6.869  0.0584 -0.2542  0.0698
 1159ERGO    R416185   1.239   9.947   6.935  0.0124 -0.1932 -0.0237
 1159ERGO    R516186   1.319  10.119   7.043 -0.0254 -0.1868 -0.0258
 1159ERGO    C116187   1.320   9.860   7.322 -0.2151 -0.1070  0.0478
 1159ERGO    C216188   1.457   9.822   7.634  0.4732  0.0981 -0.2718
 1160ERGO   ROH16189   7.227  15.342   5.901  0.1456  0.1347  0.0774
 1160ERGO    R116190   7.280  15.113   6.060  0.0052  0.1340  0.1247
 1160ERGO    R216191   7.523  14.981   6.054 -0.0933 -0.0504  0.1073
 1160ERGO    R316192   7.515  15.023   6.323 -0.0083  0.0255  0.1007
 1160ERGO    R416193   7.749  14.852   6.282 -0.1172 -0.1221  0.0912
 1160ERGO    R516194   7.584  14.815   6.418 -0.1092  0.0094  0.1400
 1160ERGO    C116195   7.873  14.817   6.666 -0.0513 -0.0928  0.0755
 1160ERGO    C216196   8.039  14.772   6.953  0.1452  0.2283  0.2678
 1161ERGO   ROH16197  13.897  16.109   8.990 -0.1667 -0.0304 -0.1195
 1161ERGO    R116198  13.912  16.141   8.709  0.0127 -0.2495 -0.1391
 1161ERGO    R216199  13.910  15.926   8.534 -0.3319 -0.3777  0.0063
 1161ERGO    R316200  13.701  16.060   8.423 -0.0336 -0.0406 -0.1636
 1161ERGO    R416201  13.808  15.895   8.206 -0.0932 -0.1652 -0.0899
 1161ERGO    R516202  13.775  16.111   8.201  0.2382 -0.1138 -0.0900
 1161ERGO    C116203  13.554  16.003   7.909  0.3260  0.2748 -0.3055
 1161ERGO    C216204  13.484  16.058   7.560  0.2442  0.1904 -0.1788
 1162ERGO   ROH16205  14.663   2.510   6.726  0.0048 -0.1187 -0.0168
 1162ERGO    R116206  14.674   2.408   6.990  0.0530 -0.0742  0.0014
 1162ERGO    R216207  14.544   2.529   7.203  0.1582  0.0168  0.0332
 1162ERGO    R316208  14.436   2.282   7.235  0.0808  0.0616  0.0932
 1162ERGO    R416209  14.511   2.365   7.505  0.2454  0.0107  0.0371
 1162ERGO    R516210  14.569   2.180   7.405  0.1159  0.0015  0.0139
 1162ERGO    C116211  14.391   2.037   7.711  0.2235  0.0492  0.0956
 1162ERGO    C216212  14.368   2.039   8.016 -0.0130 -0.0168 -0.0844
 1163ERGO   ROH16213  15.653   4.677   8.998  0.0102  0.0692 -0.0312
 1163ERGO    R116214  15.838   4.737   8.792  0.0119  0.1069 -0.0166
 1163ERGO    R216215  15.917   4.551   8.603  0.0455  0.1345 -0.0162
 1163ERGO    R316216  15.836   4.743   8.428  0.0376  0.1306 -0.0195
 1163ERGO    R416217  16.009   4.566   8.271  0.0434  0.1041 -0.0192
 1163ERGO    R516218  16.028   4.782   8.291  0.0464  0.1169 -0.0262
 1163ERGO    C116219  15.987   4.755   7.913  0.0347  0.0828 -0.0240
 1163ERGO    C216220  16.125   4.945   7.606 -0.2059  0.4060  0.0221
 1164ERGO   ROH16221  17.097   1.470   5.483  0.2800  0.3289 -0.0186
 1164ERGO    R116222  17.053   1.351   5.736  0.1209  0.2588 -0.0793
 1164ERGO    R216223  17.227   1.385   5.949  0.0381  0.1155  0.0045
 1164ERGO    R316224  17.001   1.466   6.077  0.0161  0.1580 -0.0583
 1164ERGO    R416225  17.155   1.325   6.282  0.0011  0.2298  0.0184
 1164ERGO    R516226  16.948   1.287   6.226  0.0033  0.2028  0.0001
 1164ERGO    C116227  16.901   1.367   6.596 -0.0413  0.3362 -0.0326
 1164ERGO    C216228  16.557   1.433   6.807  0.0861  0.0867 -0.0415
 1165ERGO   ROH16229  18.252  13.577   6.105  0.0600  0.1800 -0.0732
 1165ERGO    R116230  18.045  13.743   6.206  0.1668  0.2218  0.0779
 1165ERGO    R216231  17.825  13.642   6.339 -0.0418  0.2110 -0.2747
 1165ERGO    R316232  17.902  13.818   6.532  0.0042 -0.2230  0.1169
 1165ERGO    R416233  17.627  13.741   6.604 -0.3100  0.2196 -0.4740
 1165ERGO    R516234  17.704  13.944   6.578  0.1686  0.1198 -0.0549
 1165ERGO    C116235  17.584  13.964   6.940 -0.4229 -0.1828 -0.2224
 1165ERGO    C216236  17.310  14.049   7.112 -0.0576  0.0528  0.1243
 1166ERGO   ROH16237  13.917   4.097   5.529  0.2139  0.0255 -0.0406
 1166ERGO    R116238  13.865   4.142   5.804 -0.0347  0.1197 -0.1004
 1166ERGO    R216239  14.059   4.117   5.998 -0.2926 -0.1856  0.1294
 1166ERGO    R316240  13.983   4.370   6.062  0.0356 -0.0547  0.0232
 1166ERGO    R416241  14.130   4.276   6.297 -0.1340 -0.1714  0.0847
 1166ERGO    R516242  13.929   4.359   6.295 -0.0247  0.1015  0.0172
 1166ERGO    C116243  14.100   4.606   6.530  0.2663 -0.0401 -0.0409
 1166ERGO    C216244  14.269   4.804   6.781 -0.1012  0.1475  0.0669
 1167ERGO   ROH16245   0.387  14.893   5.914 -0.0850 -0.0082 -0.0142
 1167ERGO    R116246   0.381  14.892   6.197 -0.1614  0.0010 -0.0151
 1167ERGO    R216247   0.273  14.683   6.342 -0.1455 -0.0251 -0.0341
 1167ERGO    R316248   0.516  14.685   6.464 -0.1770  0.0468  0.0271
 1167ERGO    R416249   0.339  14.550   6.654 -0.1848  0.0270 -0.0039
 1167ERGO    R516250   0.467  14.722   6.695 -0.2389  0.0593  0.0089
 1167ERGO    C116251   0.605  14.474   6.950 -0.2372  0.1249  0.0711
 1167ERGO    C216252   0.884  14.278   7.117 -0.0641 -0.1596 -0.1944
 1168ERGO   ROH16253   3.584   8.955   6.383 -0.0344  0.0293 -0.1156
 1168ERGO    R116254   3.496   9.108   6.605  0.0240 -0.0640 -0.0262
 1168ERGO    R216255   3.572   9.052   6.864  0.1477 -0.1340 -0.0737
 1168ERGO    R316256   3.651   9.312   6.864  0.0891 -0.1167 -0.0246
 1168ERGO    R416257   3.671   9.228   7.144  0.3299 -0.2278 -0.0782
 1168ERGO    R516258   3.562   9.401   7.068  0.2318 -0.2212  0.0821
 1168ERGO    C116259   3.803   9.576   7.307  0.3810 -0.2662 -0.0348
 1168ERGO    C216260   3.753   9.746   7.641 -0.0572  0.4240  0.1808
 1169ERGO   ROH16261  10.204  15.299   5.642 -0.0276  0.0356  0.1460
 1169ERGO    R116262  10.240  15.435   5.887  0.0020 -0.0696  0.2001
 1169ERGO    R216263  10.110  15.671   5.948  0.2041  0.0404  0.2115
 1169ERGO    R316264  10.032  15.533   6.169 -0.0216  0.0513  0.1410
 1169ERGO    R416265   9.979  15.814   6.233  0.2445  0.0893  0.2060
 1169ERGO    R516266  10.096  15.674   6.352  0.0563 -0.0699  0.2081
 1169ERGO    C116267   9.828  15.769   6.607  0.0563  0.1280  0.1367
 1169ERGO    C216268   9.752  15.984   6.825  0.0431 -0.1517 -0.2262
 1170ERGO   ROH16269  18.488  18.928   6.040 -0.1811  0.0457 -0.0092
 1170ERGO    R116270  18.540  18.700   6.200 -0.1607  0.1225  0.0976
 1170ERGO    R216271  18.728  18.510   6.132 -0.3431 -0.0499  0.0309
 1170ERGO    R316272  18.824  18.563   6.381 -0.0564  0.0766 -0.1034
 1170ERGO    R416273  18.972  18.325   6.294 -0.0440  0.1366 -0.1986
 1170ERGO    R516274  18.859  18.347   6.479  0.1801  0.1349 -0.0690
 1170ERGO    C116275  19.203  18.267   6.621  0.3992  0.3639 -0.4582
 1170ERGO    C216276  19.549  18.104   6.671 -0.2092 -0.0446  0.1023
 1171ERGO   ROH16277   5.951  13.768   6.046  0.0824 -0.2433 -0.1435
 1171ERGO    R116278   6.081  13.656   6.272  0.1938 -0.1189 -0.1438
 1171ERGO    R216279   6.261  13.799   6.426  0.1170  0.0345 -0.1853
 1171ERGO    R316280   6.096  13.725   6.629  0.1918 -0.0532 -0.1578
 1171ERGO    R416281   6.331  13.839   6.762  0.0873  0.1932 -0.1978
 1171ERGO    R516282   6.245  13.642   6.798  0.2662  0.1294 -0.1376
 1171ERGO    C116283   6.218  13.792   7.148  0.1401  0.2033 -0.1792
 1171ERGO    C216284   6.376  13.844   7.404 -0.1022 -0.0601 -0.3402
 1172ERGO   ROH16285   9.823   8.440   5.861  0.1163  0.3708  0.0073
 1172ERGO    R116286   9.828   8.285   6.097  0.1941  0.2028 -0.1042
 1172ERGO    R216287   9.935   8.378   6.334  0.0104  0.1438  0.0008
 1172ERGO    R316288   9.691   8.309   6.434  0.0444 -0.1878 -0.1313
 1172ERGO    R416289   9.845   8.398   6.667 -0.2079  0.0522 -0.0502
 1172ERGO    R516290   9.740   8.208   6.646  0.0672 -0.1010 -0.0937
 1172ERGO    C116291   9.563   8.346   6.955 -0.3033 -0.3124 -0.2040
 1172ERGO    C216292   9.182   8.464   7.154  0.0239  0.0897 -0.1486
 1173ERGO   ROH16293  11.717  13.339   9.229  0.0046 -0.0078  0.0787
 1173ERGO    R116294  11.905  13.423   9.036  0.0030  0.0617  0.1079
 1173ERGO    R216295  11.955  13.279   8.805  0.1012  0.0735  0.1248
 1173ERGO    R316296  11.899  13.516   8.684  0.0268  0.0450  0.1022
 1173ERGO    R416297  12.008  13.348   8.470  0.0736  0.0509  0.1153
 1173ERGO    R516298  12.077  13.547   8.527  0.0165  0.0800  0.0942
 1173ERGO    C116299  11.986  13.611   8.162 -0.0123  0.0109  0.0886
 1173ERGO    C216300  11.985  13.580   7.782 -0.0595 -0.0702  0.0207
 1174ERGO   ROH16301   6.257   6.973   5.982  0.2034  0.1166  0.1254
 1174ERGO    R116302   6.262   7.032   6.259  0.0902  0.0896  0.1327
 1174ERGO    R216303   6.136   6.874   6.447  0.0911  0.0225  0.0718
 1174ERGO    R316304   6.382   6.869   6.562  0.0546  0.1059  0.1569
 1174ERGO    R416305   6.198   6.781   6.774  0.0145 -0.0385  0.0700
 1174ERGO    R516306   6.343   6.943   6.787 -0.0629  0.0287  0.1658
 1174ERGO    C116307   6.466   6.722   7.072 -0.0644  0.0044  0.1489
 1174ERGO    C216308   6.392   6.466   7.342 -0.3148 -0.4402  0.2208
 1175ERGO   ROH16309  18.089  19.196   5.993 -0.2126 -0.2237 -0.0567
 1175ERGO    R116310  17.970  19.070   6.217 -0.1166 -0.1624  0.0267
 1175ERGO    R216311  18.119  18.952   6.418 -0.0343 -0.0079  0.0412
 1175ERGO    R316312  17.972  19.116   6.578 -0.0620  0.0021  0.0099
 1175ERGO    R416313  18.105  18.932   6.763 -0.2662 -0.1653  0.0267
 1175ERGO    R516314  17.891  18.973   6.752 -0.2527 -0.0492 -0.1040
 1175ERGO    C116315  17.959  19.074   7.113 -0.4271 -0.2473 -0.0111
 1175ERGO    C216316  17.987  19.178   7.443 -0.2343  0.2878  0.0028
 1176ERGO   ROH16317   0.911   7.114   6.322  0.0599  0.1315  0.0737
 1176ERGO    R116318   0.814   7.104   6.588 -0.0239 -0.0304  0.0386
 1176ERGO    R216319   0.970   7.019   6.799 -0.0250  0.0326  0.0627
 1176ERGO    R316320   0.900   7.259   6.906 -0.2604 -0.0564  0.1178
 1176ERGO    R416321   0.996   7.101   7.134  0.1832  0.0758  0.0373
 1176ERGO    R516322   0.804   7.204   7.118  0.0169 -0.1891  0.2153
 1176ERGO    C116323   0.946   7.374   7.429  0.0834  0.0174  0.0744
 1176ERGO    C216324   0.904   7.636   7.658  0.2280  0.2664  0.1643
 1177ERGO   ROH16325  17.365  17.830   9.052 -0.3100 -0.2567 -0.0762
 1177ERGO    R116326  17.354  17.848   8.769 -0.0443 -0.0698 -0.0782
 1177ERGO    R216327  17.530  18.003   8.623  0.3471 -0.2765  0.1588
 1177ERGO    R316328  17.574  17.770   8.490  0.0627 -0.2804  0.0620
 1177ERGO    R416329  17.710  17.975   8.330 -0.0835 -0.3138 -0.1122
 1177ERGO    R516330  17.563  17.831   8.259 -0.2486 -0.2474  0.0807
 1177ERGO    C116331  17.857  17.740   8.034 -0.6012 -0.3393 -0.3610
 1177ERGO    C216332  17.944  17.769   7.687 -0.2063 -0.0828  0.0383
 1178ERGO   ROH16333   7.707   7.745   6.078  0.0537  0.0281  0.0026
 1178ERGO    R116334   7.899   7.776   6.284  0.0376  0.1529 -0.0008
 1178ERGO    R216335   7.876   7.968   6.481 -0.1995 -0.0019  0.1254
 1178ERGO    R316336   7.903   7.755   6.647  0.1066 -0.0771 -0.0126
 1178ERGO    R416337   7.920   7.990   6.823 -0.1592 -0.1569  0.1308
 1178ERGO    R516338   8.064   7.827   6.810  0.0508  0.0310 -0.0017
 1178ERGO    C116339   7.970   7.802   7.179  0.1515 -0.3178  0.0045
 1178ERGO    C216340   8.118   7.714   7.540  0.0904  0.3637  0.0175
 1179ERGO   ROH16341  11.575   9.740   5.407  0.0601 -0.0888  0.0770
 1179ERGO    R116342  11.736   9.728   5.640  0.0683 -0.0849  0.0719
 1179ERGO    R216343  11.948   9.900   5.683  0.0150 -0.0247  0.1023
 1179ERGO    R316344  11.818   9.951   5.916  0.0016 -0.1137  0.1154
 1179ERGO    R416345  12.088  10.058   5.957  0.0109 -0.1633  0.1850
 1179ERGO    R516346  11.984   9.916   6.085 -0.0163 -0.2091  0.1139
 1179ERGO    C116347  12.047  10.197   6.335 -0.0042 -0.3274  0.2454
 1179ERGO    C216348  12.053  10.490   6.532  0.4986 -0.5280  0.0891
 1180ERGO   ROH16349   0.325   4.317   6.309  0.2503 -0.0070  0.0500
 1180ERGO    R116350   0.308   4.054   6.412  0.1682 -0.0479 -0.0644
 1180ERGO    R216351   0.269   4.001   6.680  0.1503 -0.1536 -0.0859
 1180ERGO    R316352   0.061   3.854   6.588  0.1050 -0.0474 -0.1529
 1180ERGO    R416353   0.129   3.731   6.845  0.0748 -0.1922 -0.2132
 1180ERGO    R516354   0.112   3.629   6.653  0.0401 -0.0946 -0.2623
 1180ERGO    C116355  -0.149   3.436   6.854 -0.0119 -0.1150 -0.3502
 1180ERGO    C216356  -0.298   3.181   7.161  0.1808 -0.0805  0.0310
 1181ERGO   ROH16357   8.465   2.568   5.543 -0.2285  0.0568  0.0660
 1181ERGO    R116358   8.517   2.622   5.816 -0.1226  0.1114  0.0345
 1181ERGO    R216359   8.319   2.618   6.009 -0.0205  0.0102  0.1309
 1181ERGO    R316360   8.487   2.443   6.131  0.1452  0.1224  0.0705
 1181ERGO    R416361   8.298   2.524   6.340  0.0432 -0.1336  0.0958
 1181ERGO    R516362   8.516   2.533   6.352  0.0431  0.0734  0.1095
 1181ERGO    C116363   8.443   2.305   6.649  0.2360 -0.1120  0.0186
 1181ERGO    C216364   8.551   2.115   7.049 -0.2533 -0.1831  0.1773
 1182ERGO   ROH16365   3.303  12.322   6.292  0.0605  0.3334 -0.0526
 1182ERGO    R116366   3.167  12.319   6.540 -0.0586  0.3027 -0.1174
 1182ERGO    R216367   2.891  12.334   6.559 -0.0879  0.0124 -0.2605
 1182ERGO    R316368   2.922  12.106   6.705  0.0906  0.1109 -0.1398
 1182ERGO    R416369   2.767  12.285   6.878 -0.2067  0.0195 -0.3054
 1182ERGO    R516370   2.952  12.183   6.930 -0.1170  0.2507 -0.1568
 1182ERGO    C116371   2.723  12.043   7.200 -0.1083  0.1163 -0.2182
 1182ERGO    C216372   2.752  11.829   7.448 -0.1967  0.0851  0.2222
 1183ERGO   ROH16373  18.091  15.470   9.061 -0.0427  0.0920  0.2094
 1183ERGO    R116374  18.030  15.353   8.810 -0.1184  0.1313  0.2092
 1183ERGO    R216375  17.825  15.443   8.649  0.0284  0.3568  0.1450
 1183ERGO    R316376  18.022  15.461   8.463  0.0994  0.0992  0.1924
 1183ERGO    R416377  17.788  15.366   8.314  0.0342  0.3099  0.1551
 1183ERGO    R516378  17.985  15.273   8.319 -0.0631  0.0995  0.2315
 1183ERGO    C116379  17.951  15.337   7.945  0.1045  0.0408  0.2055
 1183ERGO    C216380  17.623  15.347   7.735 -0.0214  0.1405 -0.3922
 1184ERGO   ROH16381   1.195   5.919   9.741  0.0833  0.3425  0.1653
 1184ERGO    R116382   1.319   6.041   9.517  0.1338  0.1322  0.0765
 1184ERGO    R216383   1.443   5.895   9.318 -0.2326 -0.0831 -0.0009
 1184ERGO    R316384   1.276   6.035   9.156 -0.1176  0.1805  0.1026
 1184ERGO    R416385   1.506   5.968   8.986 -0.3156 -0.1881 -0.0407
 1184ERGO    R516386   1.423   6.167   9.020  0.0139 -0.0489  0.0126
 1184ERGO    C116387   1.387   6.143   8.641 -0.2559 -0.0017  0.0333
 1184ERGO    C216388   1.387   6.276   8.315 -0.0238 -0.2351  0.0613
 1185ERGO   ROH16389   9.143   1.512   8.952 -0.1921 -0.3784 -0.1731
 1185ERGO    R116390   9.243   1.550   8.690 -0.1364 -0.3125 -0.1416
 1185ERGO    R216391   9.128   1.433   8.468 -0.2123 -0.0930 -0.2166
 1185ERGO    R316392   9.119   1.688   8.377  0.0069 -0.0324 -0.0798
 1185ERGO    R416393   9.177   1.526   8.139 -0.4312 -0.0006 -0.2247
 1185ERGO    R516394   9.291   1.698   8.210 -0.1434 -0.1687 -0.2513
 1185ERGO    C116395   9.196   1.821   7.861 -0.3526  0.1101 -0.1011
 1185ERGO    C216396   9.141   1.963   7.539  0.0357 -0.2708 -0.3742
 1186ERGO   ROH16397  10.477   4.334   9.066 -0.0870 -0.3847 -0.0798
 1186ERGO    R116398  10.535   4.499   8.843 -0.1802 -0.1107  0.0951
 1186ERGO    R216399  10.654   4.402   8.613  0.1692  0.2669  0.1152
 1186ERGO    R316400  10.438   4.513   8.492  0.0789  0.0010  0.0232
 1186ERGO    R416401  10.637   4.488   8.279  0.3113  0.4579  0.1540
 1186ERGO    R516402  10.530   4.669   8.336 -0.0320  0.2605  0.1993
 1186ERGO    C116403  10.423   4.642   7.971  0.3093  0.3195  0.0901
 1186ERGO    C216404  10.371   4.643   7.689 -0.0739 -0.1892 -0.0272
 1187ERGO   ROH16405   8.928  18.000   5.536 -0.1044  0.0098 -0.0039
 1187ERGO    R116406   8.999  17.860   5.771 -0.0046 -0.0031 -0.0417
 1187ERGO    R216407   8.998  17.584   5.786  0.1527 -0.0074 -0.1036
 1187ERGO    R316408   9.254  17.619   5.868  0.1409  0.1182 -0.1174
 1187ERGO    R416409   9.142  17.425   6.057  0.2134  0.1406 -0.0478
 1187ERGO    R516410   9.242  17.612   6.107  0.1442  0.1974 -0.1137
 1187ERGO    C116411   9.467  17.365   6.292  0.2379  0.3447 -0.0283
 1187ERGO    C216412   9.789  17.362   6.499  0.0386  0.0238  0.0256
 1188ERGO   ROH16413   9.655   2.624   9.029 -0.0832 -0.0966 -0.0335
 1188ERGO    R116414   9.539   2.759   8.808 -0.2034 -0.2607 -0.0713
 1188ERGO    R216415   9.682   2.931   8.646 -0.4388  0.1154  0.1122
 1188ERGO    R316416   9.590   2.770   8.448  0.0623 -0.0157 -0.0311
 1188ERGO    R416417   9.608   3.035   8.325 -0.2185  0.0430  0.0351
 1188ERGO    R516418   9.433   2.905   8.329 -0.0221 -0.2497 -0.1988
 1188ERGO    C116419   9.478   2.943   7.952  0.3801 -0.1222 -0.1442
 1188ERGO    C216420   9.382   2.965   7.668 -0.1093  0.1045  0.1291
 1189ERGO   ROH16421   7.666  11.623   5.923  0.2656 -0.0643  0.0710
 1189ERGO    R116422   7.698  11.624   6.205 -0.0611 -0.0686  0.1113
 1189ERGO    R216423   7.932  11.705   6.329 -0.0643 -0.4300  0.3695
 1189ERGO    R316424   7.765  11.872   6.462  0.0471 -0.1288  0.1419
 1189ERGO    R416425   7.999  11.849   6.636  0.0029 -0.1045  0.2064
 1189ERGO    R516426   7.792  11.814   6.692 -0.0357  0.1300  0.2216
 1189ERGO    C116427   7.881  12.090   6.940  0.1467  0.3676 -0.1023
 1189ERGO    C216428   7.818  12.291   7.235  0.2561 -0.0635 -0.4264
 1190ERGO   ROH16429   2.680   3.697  10.069 -0.3061 -0.1364 -0.0921
 1190ERGO    R116430   2.834   3.550   9.883  0.0268  0.0997 -0.0102
 1190ERGO    R216431   2.722   3.369   9.706  0.4139 -0.1627  0.0081
 1190ERGO    R316432   2.852   3.519   9.521  0.1876  0.0330  0.0017
 1190ERGO    R416433   2.816   3.258   9.393  0.2413  0.0860 -0.1356
 1190ERGO    R516434   3.003   3.366   9.415  0.2001  0.1821 -0.2093
 1190ERGO    C116435   2.992   3.335   9.035 -0.0717  0.4146 -0.2251
 1190ERGO    C216436   3.218   3.360   8.695 -0.1484 -0.3050 -0.1494
 1191ERGO   ROH16437   4.965  13.496   6.452  0.2430 -0.1633 -0.2386
 1191ERGO    R116438   5.084  13.696   6.613  0.1904 -0.2238 -0.1237
 1191ERGO    R216439   5.013  13.736   6.877  0.0051 -0.2352 -0.1698
 1191ERGO    R316440   5.280  13.708   6.919 -0.0338 -0.3304  0.0266
 1191ERGO    R416441   5.175  13.821   7.170 -0.1343 -0.0499 -0.1437
 1191ERGO    R516442   5.339  13.901   7.050 -0.0189 -0.2419 -0.1123
 1191ERGO    C116443   5.520  13.844   7.381 -0.2519 -0.0315  0.0558
 1191ERGO    C216444   5.538  13.927   7.698  0.1722  0.1561  0.2130
 1192ERGO   ROH16445   1.580  15.237   9.061  0.3683 -0.2933  0.0074
 1192ERGO    R116446   1.543  15.042   8.859  0.0954 -0.1870 -0.0515
 1192ERGO    R216447   1.320  15.038   8.695  0.0237  0.1053  0.0085
 1192ERGO    R316448   1.507  15.040   8.497 -0.0249 -0.0102 -0.0360
 1192ERGO    R416449   1.251  15.016   8.357 -0.0420  0.2883  0.0094
 1192ERGO    R516450   1.423  14.885   8.335 -0.1904  0.1392 -0.0746
 1192ERGO    C116451   1.386  15.004   7.975 -0.1258  0.2865 -0.0319
 1192ERGO    C216452   1.296  14.945   7.603  0.0210 -0.0077 -0.3457
 1193ERGO   ROH16453   6.687  18.136   8.773 -0.1660 -0.1603 -0.0638
 1193ERGO    R116454   6.822  18.089   8.528 -0.0298 -0.2335  0.0232
 1193ERGO    R216455   6.895  17.836   8.444 -0.1493 -0.2809  0.0507
 1193ERGO    R316456   6.756  17.906   8.221  0.0491 -0.1607 -0.0367
 1193ERGO    R416457   6.937  17.694   8.132 -0.0388 -0.2720  0.0616
 1193ERGO    R516458   6.916  17.892   8.044  0.1567 -0.2501  0.0692
 1193ERGO    C116459   6.831  17.678   7.740  0.2117 -0.1539 -0.0140
 1193ERGO    C216460   6.747  17.714   7.378  0.0235  0.1481  0.0905
 1194ERGO   ROH16461  16.980  19.170   8.562  0.2172  0.0851 -0.0390
 1194ERGO    R116462  16.783  19.284   8.393  0.0994 -0.1010 -0.0288
 1194ERGO    R216463  16.800  19.543   8.298 -0.1955 -0.0545  0.0459
 1194ERGO    R316464  16.771  19.422   8.056 -0.0279 -0.0216  0.0061
 1194ERGO    R416465  16.818  19.704   7.992 -0.0674  0.0112  0.0864
 1194ERGO    R516466  16.651  19.581   7.924 -0.0003 -0.0256 -0.0301
 1194ERGO    C116467  16.801  19.684   7.588  0.1645  0.0803  0.0726
 1194ERGO    C216468  16.960  19.582   7.359  0.0220  0.1924  0.0096
 1195ERGO   ROH16469   8.577   9.540   6.043  0.0765 -0.1115 -0.0016
 1195ERGO    R116470   8.758   9.603   6.252  0.0894 -0.1544  0.0001
 1195ERGO    R216471   8.726   9.824   6.415  0.1543 -0.1335 -0.0169
 1195ERGO    R316472   8.741   9.640   6.614  0.0894 -0.1239 -0.0027
 1195ERGO    R416473   8.822   9.891   6.740  0.1793 -0.1406 -0.0228
 1195ERGO    R516474   8.934   9.704   6.740  0.1136 -0.1812 -0.0087
 1195ERGO    C116475   8.893   9.757   7.116  0.1330 -0.1357 -0.0129
 1195ERGO    C216476   8.777   9.885   7.480 -0.0689  0.2117  0.0652
 1196ERGO   ROH16477  10.583   5.390   5.865  0.1150 -0.1289 -0.0304
 1196ERGO    R116478  10.413   5.212   6.005 -0.0057  0.0028 -0.0068
 1196ERGO    R216479  10.509   5.014   6.172 -0.1306 -0.1418 -0.0988
 1196ERGO    R316480  10.343   5.131   6.352  0.0622 -0.0182  0.0012
 1196ERGO    R416481  10.361   4.851   6.439 -0.1525 -0.0438 -0.0512
 1196ERGO    R516482  10.178   4.963   6.399 -0.0688  0.1273  0.0564
 1196ERGO    C116483  10.119   4.866   6.763  0.0156  0.1291  0.0703
 1196ERGO    C216484  10.170   4.708   6.932 -0.2564 -0.0530 -0.1351
 1197ERGO   ROH16485  11.416   4.723   8.929 -0.1486 -0.0981 -0.1384
 1197ERGO    R116486  11.451   4.886   8.700  0.0282  0.0247 -0.0267
 1197ERGO    R216487  11.640   4.831   8.507 -0.0238 -0.0427 -0.0543
 1197ERGO    R316488  11.426   4.843   8.339 -0.0079  0.2988 -0.0599
 1197ERGO    R416489  11.660   4.853   8.162  0.0281 -0.1781 -0.0613
 1197ERGO    R516490  11.494   4.995   8.167  0.2776  0.1328 -0.1040
 1197ERGO    C116491  11.470   4.876   7.805  0.0733  0.0636 -0.0704
 1197ERGO    C216492  11.346   4.659   7.474 -0.1437  0.0891 -0.3311
 1198ERGO   ROH16493   6.063   3.593   6.149  0.2678 -0.1117 -0.0334
 1198ERGO    R116494   6.088   3.559   6.429  0.1868 -0.0290 -0.0150
 1198ERGO    R216495   5.879   3.607   6.604  0.1605  0.1137 -0.0773
 1198ERGO    R316496   5.932   3.353   6.685  0.0401  0.1179  0.0141
 1198ERGO    R416497   5.863   3.497   6.931  0.1806  0.2497 -0.0308
 1198ERGO    R516498   6.044   3.380   6.895  0.1043  0.1378 -0.0261
 1198ERGO    C116499   5.904   3.195   7.198  0.0794  0.3328  0.0821
 1198ERGO    C216500   5.723   3.045   7.441  0.0617  0.1889  0.0031
 1199ERGO   ROH16501   8.789   1.402   5.571  0.0804 -0.0447 -0.0623
 1199ERGO    R116502   8.833   1.473   5.841 -0.0030  0.0704 -0.0797
 1199ERGO    R216503   8.625   1.515   6.020 -0.0499 -0.1772 -0.0862
 1199ERGO    R316504   8.758   1.329   6.167  0.2101  0.0352 -0.0419
 1199ERGO    R416505   8.625   1.499   6.365 -0.1258 -0.1424 -0.0835
 1199ERGO    R516506   8.837   1.450   6.358 -0.0302  0.1885 -0.0259
 1199ERGO    C116507   8.749   1.315   6.704  0.0740  0.0772 -0.0404
 1199ERGO    C216508   8.815   1.212   6.938 -0.1115 -0.2368  0.0915
 1200ERGO   ROH16509  14.484   7.383   5.407  0.1727 -0.2989 -0.2567
 1200ERGO    R116510  14.399   7.244   5.639  0.0417 -0.1092 -0.1876
 1200ERGO    R216511  14.485   6.988   5.698  0.0296 -0.0541  0.0851
 1200ERGO    R316512  14.558   7.102   5.934 -0.1270  0.1557  0.0351
 1200ERGO    R416513  14.506   6.821   6.000 -0.1952  0.2218  0.2588
 1200ERGO    R516514  14.418   6.995   6.097 -0.2491  0.3187  0.0382
 1200ERGO    C116515  14.586   6.830   6.397 -0.4731  0.5793  0.3130
 1200ERGO    C216516  14.568   6.536   6.533 -0.0509 -0.2534 -0.0764
 1201ERGO   ROH16517   3.870  12.661   9.422  0.2994  0.1311  0.0130
 1201ERGO    R116518   3.858  12.510   9.183  0.0201  0.2320 -0.0394
 1201ERGO    R216519   3.967  12.598   8.945  0.0448  0.1804 -0.0430
 1201ERGO    R316520   4.096  12.358   8.953 -0.2533  0.0096 -0.1842
 1201ERGO    R416521   4.161  12.470   8.689  0.2975  0.3366  0.0656
 1201ERGO    R516522   4.075  12.274   8.729 -0.0106  0.3658 -0.3545
 1201ERGO    C116523   4.394  12.171   8.546  0.1649  0.2671 -0.0037
 1201ERGO    C216524   4.759  12.237   8.346 -0.1451 -0.1324 -0.1453
 1202ERGO   ROH16525  11.237  19.170   5.571 -0.4098 -0.0823  0.0559
 1202ERGO    R116526  11.444  19.186   5.764 -0.2519 -0.2126 -0.1000
 1202ERGO    R216527  11.431  19.355   5.982  0.0573 -0.1434 -0.1328
 1202ERGO    R316528  11.477  19.126   6.121 -0.0404 -0.1479 -0.1073
 1202ERGO    R416529  11.541  19.341   6.309 -0.0663 -0.1527 -0.0913
 1202ERGO    R516530  11.670  19.175   6.254 -0.0790 -0.1815 -0.0376
 1202ERGO    C116531  11.647  19.118   6.631 -0.2300 -0.1625 -0.0431
 1202ERGO    C216532  11.673  19.248   7.057  0.1399  0.4492 -0.1062
 1203ERGO   ROH16533   3.319  18.925   5.446 -0.1171  0.0211  0.1474
 1203ERGO    R116534   3.220  18.928   5.711 -0.0856  0.0505  0.1591
 1203ERGO    R216535   3.203  18.700   5.866 -0.1427  0.0537  0.1586
 1203ERGO    R316536   3.348  18.848   6.043 -0.0732  0.0041  0.1431
 1203ERGO    R416537   3.226  18.637   6.206 -0.1402  0.0543  0.1584
 1203ERGO    R516538   3.214  18.851   6.241 -0.0566  0.0598  0.1533
 1203ERGO    C116539   3.376  18.739   6.568 -0.0735  0.0081  0.1436
 1203ERGO    C216540   3.319  18.614   6.944  0.0125  0.3421 -0.1883
 1204ERGO   ROH16541   3.323   3.320   6.419  0.1041  0.2127  0.1737
 1204ERGO    R116542   3.162   3.344   6.650 -0.2244  0.3224 -0.0596
 1204ERGO    R216543   2.892   3.403   6.637 -0.3146 -0.1024 -0.4911
 1204ERGO    R316544   2.868   3.177   6.786 -0.1436  0.0785 -0.1813
 1204ERGO    R416545   2.630   3.335   6.852 -0.2894 -0.0376 -0.4407
 1204ERGO    R516546   2.774   3.252   6.993 -0.2421  0.2808 -0.2998
 1204ERGO    C116547   2.455   3.083   7.117 -0.1144  0.1700 -0.1206
 1204ERGO    C216548   2.156   2.959   6.990 -0.2162  0.2157  0.3945
 1205ERGO   ROH16549  15.098   0.090   5.019  0.1565 -0.0053  0.2339
 1205ERGO    R116550  15.032   0.082   5.293  0.0581  0.1564  0.2175
 1205ERGO    R216551  15.211   0.003   5.488 -0.0843  0.0225  0.3051
 1205ERGO    R316552  15.147   0.243   5.599  0.1385  0.1331  0.1976
 1205ERGO    R416553  15.309   0.107   5.802 -0.1793 -0.0157  0.3469
 1205ERGO    R516554  15.111   0.193   5.830 -0.0897  0.2417  0.1834
 1205ERGO    C116555  15.306   0.393   6.089 -0.0255  0.0661  0.2701
 1205ERGO    C216556  15.426   0.643   6.133  0.1224 -0.0194 -0.0736
 1206ERGO   ROH16557   2.182   2.529   6.362 -0.2263  0.3533 -0.0120
 1206ERGO    R116558   2.165   2.341   6.574 -0.2342  0.2351 -0.1168
 1206ERGO    R216559   2.238   2.402   6.833 -0.1017  0.0448 -0.1085
 1206ERGO    R316560   1.987   2.315   6.890 -0.1226  0.1337 -0.0610
 1206ERGO    R416561   2.114   2.349   7.152 -0.0141 -0.0415 -0.0882
 1206ERGO    R516562   2.015   2.169   7.078 -0.1220  0.0353 -0.1357
 1206ERGO    C116563   1.806   2.235   7.390  0.0173 -0.0084 -0.0319
 1206ERGO    C216564   1.715   2.512   7.668 -0.1246  0.5060 -0.0205
 1207ERGO   ROH16565   9.647  18.801   9.123 -0.0899  0.1276  0.0080
 1207ERGO    R116566   9.666  18.798   8.841 -0.0842  0.2197  0.0068
 1207ERGO    R216567   9.589  18.581   8.689  0.0660  0.2056 -0.0564
 1207ERGO    R316568   9.436  18.766   8.560 -0.0608  0.1398 -0.0018
 1207ERGO    R416569   9.541  18.593   8.347  0.2342  0.4137 -0.0743
 1207ERGO    R516570   9.556  18.811   8.358 -0.0021  0.4204  0.0956
 1207ERGO    C116571   9.370  18.774   8.027  0.2132  0.4733 -0.0334
 1207ERGO    C216572   9.401  18.849   7.733  0.0723 -0.0867 -0.0877
 1208ERGO   ROH16573   2.749  10.288   6.367  0.0550  0.3998  0.3837
 1208ERGO    R116574   2.686  10.198   6.627  0.1730  0.1338  0.3221
 1208ERGO    R216575   2.487  10.013   6.676  0.1048  0.1956  0.2310
 1208ERGO    R316576   2.687   9.881   6.805  0.1072 -0.0766 -0.0384
 1208ERGO    R416577   2.442   9.805   6.948  0.1600  0.1838  0.2328
 1208ERGO    R516578   2.623   9.888   7.036  0.3776 -0.0494  0.0464
 1208ERGO    C116579   2.602   9.559   7.227  0.1944 -0.0788 -0.0191
 1208ERGO    C216580   2.690   9.291   7.453  0.1097  0.2441 -0.0782
 1209ERGO   ROH16581   9.892   3.283   5.548 -0.1499 -0.3021 -0.2295
 1209ERGO    R116582   9.948   3.266   5.825 -0.0540 -0.0403 -0.2309
 1209ERGO    R216583   9.756   3.199   6.012  0.0796 -0.1602 -0.1369
 1209ERGO    R316584   9.937   3.009   6.082  0.3450  0.1165 -0.0470
 1209ERGO    R416585   9.809   3.086   6.334 -0.0791 -0.2361 -0.1365
 1209ERGO    R516586  10.023   3.083   6.293 -0.0160  0.1638  0.0933
 1209ERGO    C116587  10.010   2.841   6.587  0.0777 -0.0206 -0.0520
 1209ERGO    C216588   9.891   2.700   6.855 -0.1770 -0.0103  0.1755
 1210ERGO   ROH16589  18.323   7.599   6.154 -0.2796 -0.4012 -0.0458
 1210ERGO    R116590  18.053   7.667   6.204 -0.2155 -0.1239 -0.0654
 1210ERGO    R216591  17.867   7.482   6.293 -0.3887  0.0872 -0.0012
 1210ERGO    R316592  17.828   7.664   6.490 -0.2219  0.1932 -0.0622
 1210ERGO    R416593  17.608   7.474   6.522 -0.0870  0.0794  0.3519
 1210ERGO    R516594  17.590   7.690   6.502 -0.2304  0.0655  0.2341
 1210ERGO    C116595  17.421   7.641   6.840  0.2454  0.1742  0.5002
 1210ERGO    C216596  17.387   7.494   7.150  0.1363  0.2109 -0.0448
 1211ERGO   ROH16597  14.715   0.294   5.454  0.0028  0.0832 -0.1394
 1211ERGO    R116598  14.652   0.391   5.712  0.0459 -0.0570 -0.0746
 1211ERGO    R216599  14.713   0.252   5.943  0.2852 -0.0825 -0.1497
 1211ERGO    R316600  14.838   0.483   6.012  0.1172  0.0053 -0.1372
 1211ERGO    R416601  14.862   0.313   6.249  0.2765 -0.0091 -0.1605
 1211ERGO    R516602  14.781   0.515   6.242  0.1203 -0.0677 -0.1255
 1211ERGO    C116603  15.066   0.567   6.491  0.1137  0.1161 -0.1551
 1211ERGO    C216604  15.264   0.856   6.598 -0.2315 -0.0218  0.2294
 1212ERGO   ROH16605   2.498   0.181   5.660  0.1526 -0.0840  0.0148
 1212ERGO    R116606   2.435   0.215   5.934  0.1504  0.0379 -0.0007
 1212ERGO    R216607   2.486   0.020   6.123  0.0510  0.0809  0.0669
 1212ERGO    R316608   2.618   0.222   6.248  0.1331  0.0640  0.0098
 1212ERGO    R416609   2.636  -0.005   6.433 -0.2390  0.1908  0.2199
 1212ERGO    R516610   2.561   0.195   6.479 -0.0954  0.3053 -0.0102
 1212ERGO    C116611   2.847   0.171   6.732 -0.3307  0.2391  0.2555
 1212ERGO    C216612   2.954   0.231   7.033 -0.3145 -0.0161 -0.0866
 1213ERGO   ROH16613   0.147  16.900   9.092  0.2826  0.0847  0.0592
 1213ERGO    R116614   0.283  16.840   8.851  0.1829  0.0607  0.0086
 1213ERGO    R216615   0.175  16.677   8.655  0.0991  0.0483  0.0678
 1213ERGO    R316616   0.226  16.891   8.496  0.0408  0.0315  0.0258
 1213ERGO    R416617   0.207  16.664   8.312  0.2223 -0.0386  0.0820
 1213ERGO    R516618   0.372  16.805   8.326  0.1459  0.0555  0.0998
 1213ERGO    C116619   0.274  16.857   7.961  0.2393 -0.1048  0.0508
 1213ERGO    C216620   0.345  16.792   7.695  0.2455 -0.0051 -0.2907
 1214ERGO   ROH16621  19.338   5.254   6.101  0.0756 -0.0355  0.0621
 1214ERGO    R116622  19.231   5.299   6.359 -0.1531 -0.0783 -0.0216
 1214ERGO    R216623  18.978   5.216   6.431 -0.1106 -0.3632 -0.1628
 1214ERGO    R316624  19.111   5.095   6.635 -0.0900 -0.1374 -0.0398
 1214ERGO    R416625  18.842   5.147   6.741 -0.1576 -0.2788 -0.1651
 1214ERGO    R516626  19.031   5.206   6.832 -0.2385 -0.0809 -0.1356
 1214ERGO    C116627  18.887   4.993   7.113 -0.1657 -0.0177 -0.0509
 1214ERGO    C216628  18.884   4.921   7.423  0.2956 -0.1486  0.2309
 1215ERGO   ROH16629  13.052   9.845   5.469  0.1162 -0.2668  0.0262
 1215ERGO    R116630  12.880   9.737   5.666  0.0206 -0.2476 -0.0450
 1215ERGO    R216631  12.903   9.478   5.757 -0.0238 -0.2416 -0.0084
 1215ERGO    R316632  12.916   9.598   6.000 -0.1381 -0.2162 -0.0146
 1215ERGO    R416633  12.902   9.311   6.060  0.2424 -0.2347 -0.0019
 1215ERGO    R516634  12.772   9.467   6.139  0.0535 -0.3994  0.0144
 1215ERGO    C116635  12.914   9.327   6.465  0.2900 -0.2068 -0.0039
 1215ERGO    C216636  12.872   9.105   6.793  0.1706  0.0885 -0.0326
 1216ERGO   ROH16637  10.861  19.310   8.703 -0.1130 -0.1583 -0.0212
 1216ERGO    R116638  11.042  19.370   8.494  0.0314 -0.2224  0.0842
 1216ERGO    R216639  11.154  19.175   8.333 -0.1142 -0.2454  0.0127
 1216ERGO    R316640  11.052  19.327   8.132  0.1236 -0.0154  0.0599
 1216ERGO    R416641  11.260  19.164   8.005 -0.0568 -0.2362  0.0306
 1216ERGO    R516642  11.242  19.381   7.997  0.2294 -0.2019  0.1260
 1216ERGO    C116643  11.227  19.300   7.625  0.1999 -0.0149  0.0853
 1216ERGO    C216644  11.091  19.341   7.342 -0.2219  0.1968  0.1859
 1217ERGO   ROH16645   5.828   5.803   9.361 -0.1597 -0.0196 -0.0842
 1217ERGO    R116646   5.937   6.046   9.265  0.0038 -0.0719 -0.0338
 1217ERGO    R216647   6.113   6.056   9.053 -0.1738 -0.1272 -0.1856
 1217ERGO    R316648   5.933   6.234   8.953 -0.0857  0.1207  0.0814
 1217ERGO    R416649   6.147   6.225   8.753 -0.2968 -0.0293 -0.1455
 1217ERGO    R516650   6.067   6.403   8.850 -0.0018  0.0199  0.0218
 1217ERGO    C116651   5.997   6.489   8.484 -0.2858  0.2604  0.1284
 1217ERGO    C216652   5.786   6.584   8.315  0.0290 -0.2605 -0.1160
 1218ERGO   ROH16653  10.390  10.583   8.707 -0.0424 -0.1928 -0.1941
 1218ERGO    R116654  10.324  10.728   8.473 -0.0837 -0.1244 -0.1397
 1218ERGO    R216655  10.461  10.697   8.235 -0.0849 -0.0079 -0.1546
 1218ERGO    R316656  10.212  10.650   8.136 -0.0774 -0.0291 -0.1644
 1218ERGO    R416657  10.359  10.775   7.914 -0.0413 -0.1303 -0.1989
 1218ERGO    R516658  10.168  10.840   7.996 -0.0464 -0.0814 -0.2472
 1218ERGO    C116659  10.067  10.776   7.634 -0.0090 -0.2214 -0.2339
 1218ERGO    C216660   9.960  10.815   7.365 -0.0468  0.2442 -0.1447
 1219ERGO   ROH16661  13.192  10.601   5.124  0.0941 -0.1092 -0.0853
 1219ERGO    R116662  13.176  10.737   5.372  0.0303 -0.0816 -0.1055
 1219ERGO    R216663  13.171  10.604   5.615  0.1242 -0.0474 -0.0906
 1219ERGO    R316664  13.382  10.765   5.671  0.0321  0.0870 -0.1201
 1219ERGO    R416665  13.281  10.683   5.933  0.1382 -0.0169 -0.1018
 1219ERGO    R516666  13.314  10.887   5.865 -0.0112  0.0194 -0.0875
 1219ERGO    C116667  13.543  10.881   6.171  0.0600  0.1269 -0.1360
 1219ERGO    C216668  13.879  10.997   6.339 -0.1644 -0.0876 -0.0857
 1220ERGO   ROH16669   9.846   9.630   9.116 -0.3200 -0.1369  0.1847
 1220ERGO    R116670   9.646   9.767   8.970 -0.1805 -0.0070  0.1156
 1220ERGO    R216671   9.671   9.823   8.700 -0.0611 -0.0472  0.1219
 1220ERGO    R316672   9.431   9.696   8.685 -0.1511  0.1236  0.0588
 1220ERGO    R416673   9.465   9.823   8.422  0.2152 -0.2558 -0.0905
 1220ERGO    R516674   9.294   9.844   8.556  0.0928  0.0658 -0.2836
 1220ERGO    C116675   9.120   9.704   8.246  0.2917 -0.2170 -0.2733
 1220ERGO    C216676   9.072   9.613   7.916  0.1548 -0.2441  0.2161
 1221ERGO   ROH16677   3.837   5.876   6.492 -0.2076  0.2585 -0.0230
 1221ERGO    R116678   3.697   5.880   6.738 -0.1045  0.0015  0.0425
 1221ERGO    R216679   3.717   5.676   6.925  0.3465  0.0265  0.0299
 1221ERGO    R316680   3.784   5.880   7.092  0.0620  0.1464  0.0032
 1221ERGO    R416681   3.623   5.700   7.256  0.2725 -0.0372  0.0142
 1221ERGO    R516682   3.589   5.912   7.227 -0.0012 -0.0816 -0.0273
 1221ERGO    C116683   3.630   5.905   7.606 -0.0375  0.0383 -0.0200
 1221ERGO    C216684   3.481   5.906   7.949  0.2995 -0.0761 -0.0296
 1222ERGO   ROH16685  11.177   6.581   5.448 -0.1358  0.0379 -0.0057
 1222ERGO    R116686  11.146   6.544   5.727 -0.0324 -0.0164 -0.0009
 1222ERGO    R216687  11.192   6.301   5.851 -0.0085 -0.0468 -0.0689
 1222ERGO    R316688  11.358   6.449   6.007  0.0665 -0.0951 -0.1020
 1222ERGO    R416689  11.306   6.205   6.162  0.0578 -0.0941 -0.1070
 1222ERGO    R516690  11.279   6.411   6.230  0.1206 -0.0944 -0.0832
 1222ERGO    C116691  11.529   6.288   6.491  0.1667 -0.1668 -0.1604
 1222ERGO    C216692  11.522   6.020   6.692 -0.7338  0.1411  0.0827
 1223ERGO   ROH16693  13.993  17.362   5.442  0.0866  0.2379  0.0774
 1223ERGO    R116694  14.033  17.248   5.698  0.1203  0.2007  0.0558
 1223ERGO    R216695  14.114  17.396   5.917  0.0181  0.1952  0.0983
 1223ERGO    R316696  13.891  17.289   6.031  0.0621  0.0503  0.0501
 1223ERGO    R416697  14.033  17.420   6.252 -0.0541  0.1111  0.0873
 1223ERGO    R516698  13.966  17.212   6.245  0.0709  0.0718  0.0541
 1223ERGO    C116699  13.777  17.333   6.554 -0.0546 -0.0739  0.0356
 1223ERGO    C216700  13.536  17.248   6.770 -0.0596  0.2493 -0.1383
 1224ERGO   ROH16701   9.057   7.298   5.763 -0.2898 -0.2625 -0.0120
 1224ERGO    R116702   9.019   7.149   6.001 -0.0004 -0.2435  0.0499
 1224ERGO    R216703   9.230   7.056   6.155  0.1876  0.1863  0.0655
 1224ERGO    R316704   9.100   7.188   6.353 -0.0284  0.0372  0.0271
 1224ERGO    R416705   9.223   6.959   6.486  0.3118  0.2502  0.0878
 1224ERGO    R516706   9.013   7.016   6.494  0.2218 -0.0648  0.0608
 1224ERGO    C116707   9.096   7.027   6.866  0.1812  0.1475  0.0648
 1224ERGO    C216708   9.019   6.952   7.212 -0.0418 -0.2420 -0.1720
 1225ERGO   ROH16709  11.520   0.910   8.989 -0.0316 -0.1640 -0.0922
 1225ERGO    R116710  11.583   0.940   8.715 -0.2753 -0.0559 -0.1394
 1225ERGO    R216711  11.766   0.778   8.586  0.1786  0.4562 -0.1809
 1225ERGO    R316712  11.559   0.736   8.415  0.1888 -0.2545 -0.0502
 1225ERGO    R416713  11.792   0.777   8.241 -0.0312  0.4992 -0.1981
 1225ERGO    R516714  11.602   0.884   8.232 -0.4117 -0.1188 -0.1019
 1225ERGO    C116715  11.613   0.738   7.880 -0.1438 -0.1429 -0.0854
 1225ERGO    C216716  11.615   0.633   7.680  0.0875 -0.0572  0.0665
 1226ERGO   ROH16717  10.909  14.629   7.061 -0.0561 -0.0240 -0.0757
 1226ERGO    R116718  10.657  14.507   7.016 -0.1082  0.0571 -0.0017
 1226ERGO    R216719  10.599  14.250   7.099 -0.0667 -0.0280 -0.2388
 1226ERGO    R316720  10.389  14.372   7.221  0.0445 -0.1383  0.0737
 1226ERGO    R416721  10.286  14.109   7.139 -0.0672 -0.0170 -0.1993
 1226ERGO    R516722  10.198  14.304   7.093 -0.0631  0.0682  0.1158
 1226ERGO    C116723   9.906  14.141   7.277  0.0368 -0.1143  0.1170
 1226ERGO    C216724   9.732  13.912   7.333 -0.3916  0.0762  0.4980
 1227ERGO   ROH16725  13.292   1.014   5.106  0.1300 -0.0056  0.0427
 1227ERGO    R116726  13.195   1.132   5.344  0.0330  0.0571 -0.0267
 1227ERGO    R216727  12.927   1.188   5.384  0.0007 -0.0293 -0.1082
 1227ERGO    R316728  12.962   1.039   5.608  0.0117  0.0769 -0.0390
 1227ERGO    R416729  12.736   1.214   5.671  0.1316  0.2316 -0.0417
 1227ERGO    R516730  12.917   1.190   5.788  0.1661  0.2005 -0.1036
 1227ERGO    C116731  12.657   1.089   6.048  0.2179  0.4832  0.0619
 1227ERGO    C216732  12.414   1.056   6.262 -0.4862  0.1276 -0.0516
 1228ERGO   ROH16733   9.522  13.299   9.267 -0.2865  0.1765 -0.0411
 1228ERGO    R116734   9.650  13.248   9.020 -0.1124  0.1809  0.0471
 1228ERGO    R216735   9.560  13.057   8.841  0.0646  0.1249  0.0192
 1228ERGO    R316736   9.560  13.266   8.668  0.1061  0.0965 -0.0153
 1228ERGO    R416737   9.545  13.028   8.497  0.1794  0.0610  0.0188
 1228ERGO    R516738   9.691  13.189   8.482  0.1746  0.0716  0.0400
 1228ERGO    C116739   9.537  13.208   8.134  0.2851 -0.0026 -0.0140
 1228ERGO    C216740   9.457  13.269   7.720  0.3884 -0.0082  0.2986
 1229ERGO   ROH16741  16.470  11.474   6.084  0.2618  0.2235  0.1353
 1229ERGO    R116742  16.291  11.411   6.294  0.2375  0.2413  0.1195
 1229ERGO    R216743  16.296  11.168   6.426 -0.0354  0.0981 -0.1257
 1229ERGO    R316744  16.317  11.325   6.647  0.2263 -0.1471  0.0305
 1229ERGO    R416745  16.225  11.066   6.748 -0.2158 -0.1015 -0.2260
 1229ERGO    R516746  16.132  11.260   6.784  0.1079  0.0283 -0.0411
 1229ERGO    C116747  16.203  11.154   7.143 -0.0750 -0.4479 -0.1378
 1229ERGO    C216748  16.465  10.978   7.309 -0.0484  0.1590 -0.1994
 1230ERGO   ROH16749   4.371   9.506   6.165 -0.0735 -0.0929 -0.0086
 1230ERGO    R116750   4.379   9.544   6.445 -0.0162  0.0238 -0.0256
 1230ERGO    R216751   4.615   9.577   6.584  0.0198 -0.0142 -0.0746
 1230ERGO    R316752   4.494   9.803   6.673  0.1253  0.0752 -0.1545
 1230ERGO    R416753   4.693   9.740   6.879  0.0648  0.0363 -0.1140
 1230ERGO    R516754   4.480   9.773   6.910  0.0804  0.1549 -0.1486
 1230ERGO    C116755   4.623  10.047   7.135  0.1901  0.1497 -0.2118
 1230ERGO    C216756   4.674  10.235   7.395 -0.0473 -0.0139  0.3143
 1231ERGO   ROH16757   5.347   6.257   6.009 -0.0164  0.0053  0.0286
 1231ERGO    R116758   5.478   6.091   6.197  0.0592  0.1482  0.1012
 1231ERGO    R216759   5.602   6.191   6.423 -0.1820  0.2830  0.1685
 1231ERGO    R316760   5.442   6.011   6.550 -0.0540  0.1023  0.0813
 1231ERGO    R416761   5.656   6.070   6.742 -0.2825  0.4488  0.2513
 1231ERGO    R516762   5.595   5.873   6.673  0.0381  0.3383  0.2491
 1231ERGO    C116763   5.537   5.831   7.047 -0.2208  0.3758  0.2176
 1231ERGO    C216764   5.587   5.805   7.387  0.2292 -0.0415 -0.1953
 1232ERGO   ROH16765  17.965   4.834   9.414  0.0299  0.1330 -0.0484
 1232ERGO    R116766  18.022   4.971   9.173 -0.0331  0.1534 -0.0506
 1232ERGO    R216767  18.032   4.844   8.928  0.1212  0.1363 -0.0298
 1232ERGO    R316768  17.850   5.034   8.858 -0.0189 -0.0174 -0.0951
 1232ERGO    R416769  17.964   4.941   8.604  0.3284  0.2274 -0.0484
 1232ERGO    R516770  17.952   5.147   8.673  0.0440  0.1879  0.0560
 1232ERGO    C116771  17.754   5.176   8.349  0.3175  0.1362 -0.1205
 1232ERGO    C216772  17.595   5.395   8.093  0.0612  0.0994 -0.5119
 1233ERGO   ROH16773   2.724   2.143   6.065  0.0536  0.1191  0.0757
 1233ERGO    R116774   2.976   2.108   6.187  0.0960  0.2393  0.0203
 1233ERGO    R216775   3.144   2.319   6.245 -0.1138  0.3429  0.2324
 1233ERGO    R316776   3.138   2.214   6.496  0.0138  0.0699  0.1247
 1233ERGO    R416777   3.371   2.392   6.496 -0.1925  0.3612  0.3009
 1233ERGO    R516778   3.369   2.181   6.552  0.0613  0.2892  0.0811
 1233ERGO    C116779   3.498   2.336   6.876 -0.1186  0.1155  0.2397
 1233ERGO    C216780   3.593   2.566   7.168  0.3608 -0.0373 -0.0883
 1234ERGO   ROH16781  18.560   0.743   5.634 -0.2443  0.1004 -0.1416
 1234ERGO    R116782  18.468   0.738   5.901 -0.1881  0.0247 -0.1223
 1234ERGO    R216783  18.551   0.921   6.091  0.0707 -0.1948 -0.0104
 1234ERGO    R316784  18.285   0.962   6.122  0.1218  0.0927  0.0698
 1234ERGO    R416785  18.407   1.087   6.358  0.3143 -0.0700  0.0465
 1234ERGO    R516786  18.248   0.938   6.357  0.1547  0.1060  0.0719
 1234ERGO    C116787  18.072   1.222   6.542  0.5042  0.2726  0.1548
 1234ERGO    C216788  17.873   1.459   6.674 -0.0554  0.0484  0.1624
 1235ERGO   ROH16789   6.396   3.835   9.567  0.0599 -0.0344 -0.0311
 1235ERGO    R116790   6.415   3.872   9.287  0.0658 -0.0044 -0.0258
 1235ERGO    R216791   6.388   3.664   9.107  0.0240  0.0254 -0.0477
 1235ERGO    R316792   6.198   3.825   8.998  0.0563  0.0749 -0.0333
 1235ERGO    R416793   6.261   3.632   8.787  0.0350  0.0859 -0.0589
 1235ERGO    R516794   6.264   3.849   8.769  0.0745  0.0923 -0.0296
 1235ERGO    C116795   6.009   3.765   8.499  0.0716  0.1676 -0.0518
 1235ERGO    C216796   5.853   3.816   8.173 -0.0572  0.1472 -0.2693
 1236ERGO   ROH16797   5.320  15.224   5.786  0.2120  0.3075 -0.2569
 1236ERGO    R116798   5.416  15.163   6.045  0.0961  0.0928 -0.2624
 1236ERGO    R216799   5.666  15.054   6.090  0.1456  0.2178 -0.2317
 1236ERGO    R316800   5.693  15.268   6.256 -0.1021  0.0612  0.0204
 1236ERGO    R416801   5.901  15.079   6.342  0.1788  0.2277 -0.2637
 1236ERGO    R516802   5.749  15.172   6.468  0.0814 -0.1263 -0.1078
 1236ERGO    C116803   6.064  15.294   6.645 -0.0344  0.0865 -0.0456
 1236ERGO    C216804   6.322  15.517   6.630  0.2781 -0.3696 -0.1550
 1237ERGO   ROH16805  14.864  11.805   5.497 -0.1465 -0.0988 -0.0088
 1237ERGO    R116806  14.776  11.769   5.764 -0.0966  0.0352  0.0264
 1237ERGO    R216807  14.949  11.779   5.980 -0.0464  0.0858 -0.0145
 1237ERGO    R316808  14.774  11.967   6.070  0.0181  0.1659 -0.0564
 1237ERGO    R416809  14.967  11.935   6.288 -0.0931  0.0195  0.0218
 1237ERGO    R516810  14.751  11.919   6.303 -0.1088  0.1361 -0.0750
 1237ERGO    C116811  14.813  12.202   6.551 -0.0597  0.0561  0.0036
 1237ERGO    C216812  14.739  12.421   6.670 -0.2486  0.1136 -0.0300
 1238ERGO   ROH16813   5.321  17.792   5.627 -0.3189 -0.0853 -0.0537
 1238ERGO    R116814   5.282  17.608   5.839 -0.0574 -0.0422  0.0371
 1238ERGO    R216815   5.405  17.635   6.085 -0.0531  0.2256  0.0134
 1238ERGO    R316816   5.150  17.619   6.178 -0.0243 -0.0502  0.0487
 1238ERGO    R416817   5.318  17.571   6.413  0.0502  0.0150  0.0001
 1238ERGO    R516818   5.157  17.443   6.340  0.1607 -0.1055 -0.0221
 1238ERGO    C116819   5.029  17.518   6.691  0.1374 -0.3665  0.0254
 1238ERGO    C216820   4.894  17.611   7.005  0.2704 -0.0476 -0.0147
 1239ERGO   ROH16821   6.745   2.876   5.670 -0.0657 -0.2413 -0.2725
 1239ERGO    R116822   6.527   2.829   5.845  0.1615 -0.1951  0.0323
 1239ERGO    R216823   6.319   2.658   5.781 -0.1385  0.1068  0.1647
 1239ERGO    R316824   6.384   2.543   6.019  0.1304 -0.2394 -0.0661
 1239ERGO    R416825   6.124   2.428   5.949 -0.2290  0.2945  0.3201
 1239ERGO    R516826   6.176   2.527   6.136  0.3200  0.0275  0.3275
 1239ERGO    C116827   6.071   2.186   6.270 -0.0293  0.0787  0.1939
 1239ERGO    C216828   5.967   1.911   6.485 -0.2751 -0.2094 -0.2426
 1240ERGO   ROH16829  11.476  16.207   5.920  0.0873 -0.2925 -0.0693
 1240ERGO    R116830  11.377  16.346   6.146 -0.0853 -0.3198 -0.1274
 1240ERGO    R216831  11.192  16.236   6.318  0.0426 -0.4775 -0.0898
 1240ERGO    R316832  11.377  16.297   6.507 -0.0329 -0.1761 -0.1076
 1240ERGO    R416833  11.127  16.261   6.657  0.0449 -0.6162 -0.0778
 1240ERGO    R516834  11.259  16.435   6.664 -0.2484 -0.3881 -0.0797
 1240ERGO    C116835  11.264  16.333   7.031 -0.0245 -0.4139 -0.0874
 1240ERGO    C216836  10.950  16.189   7.274  0.0262 -0.1495  0.2216
 1241ERGO   ROH16837  13.549   9.622   9.065  0.1180  0.2509  0.1147
 1241ERGO    R116838  13.447   9.631   8.801  0.2789  0.0788  0.0442
 1241ERGO    R216839  13.259   9.816   8.720 -0.0228 -0.2617 -0.0679
 1241ERGO    R316840  13.442   9.871   8.527  0.0165  0.0989  0.0643
 1241ERGO    R416841  13.183   9.924   8.401 -0.0006 -0.3428 -0.1004
 1241ERGO    R516842  13.340   9.794   8.325  0.2890 -0.0528 -0.0195
 1241ERGO    C116843  13.310  10.038   8.034  0.0492 -0.0514  0.0046
 1241ERGO    C216844  13.499  10.272   7.746  0.0037  0.2476 -0.2325
 1242ERGO   ROH16845   1.914  15.268   6.026  0.2011  0.4757 -0.2343
 1242ERGO    R116846   1.902  15.398   6.278 -0.2133  0.0299 -0.0064
 1242ERGO    R216847   1.813  15.271   6.507  0.0555 -0.6102 -0.2303
 1242ERGO    R316848   2.052  15.353   6.606 -0.1706 -0.1317 -0.0483
 1242ERGO    R416849   1.944  15.174   6.811  0.1126 -0.5142 -0.2245
 1242ERGO    R516850   2.014  15.379   6.841 -0.3583 -0.3675 -0.0515
 1242ERGO    C116851   2.245  15.195   7.082 -0.0665 -0.0092 -0.0503
 1242ERGO    C216852   2.485  15.254   7.281  0.0882 -0.0173 -0.2142
 1243ERGO   ROH16853  11.069  17.093   5.615  0.0217  0.2902  0.0422
 1243ERGO    R116854  11.141  16.972   5.861 -0.0571  0.0588 -0.0450
 1243ERGO    R216855  11.152  17.112   6.098  0.1532 -0.0928  0.0437
 1243ERGO    R316856  10.984  16.917   6.184 -0.0502  0.0400 -0.0464
 1243ERGO    R416857  11.120  17.011   6.427  0.0289 -0.2078 -0.0038
 1243ERGO    R516858  11.107  16.805   6.356 -0.1779 -0.1618 -0.0896
 1243ERGO    C116859  10.943  16.768   6.699 -0.2345 -0.1504 -0.1160
 1243ERGO    C216860  10.864  16.626   7.006 -0.1848  0.2649  0.2318
 1244ERGO   ROH16861  15.812   9.572   6.414  0.1371  0.0069 -0.1476
 1244ERGO    R116862  16.017   9.487   6.590  0.1685  0.0067 -0.1818
 1244ERGO    R216863  16.284   9.545   6.547  0.1509  0.1628 -0.1333
 1244ERGO    R316864  16.268   9.647   6.798  0.0754  0.0165 -0.0794
 1244ERGO    R416865  16.554   9.617   6.750  0.0814  0.0755 -0.0112
 1244ERGO    R516866  16.443   9.538   6.919  0.0475 -0.0292 -0.0915
 1244ERGO    C116867  16.696   9.754   7.104 -0.0298 -0.1127  0.1104
 1244ERGO    C216868  16.772   9.923   7.421 -0.0843  0.0097  0.0064
 1245ERGO   ROH16869   8.691  17.509   5.461 -0.1671  0.0335 -0.0142
 1245ERGO    R116870   8.539  17.620   5.672 -0.1176  0.0415  0.0183
 1245ERGO    R216871   8.264  17.641   5.662 -0.1248  0.0099  0.0974
 1245ERGO    R316872   8.276  17.507   5.898 -0.0388  0.0381  0.1085
 1245ERGO    R416873   8.031  17.668   5.916  0.0397  0.1444  0.2349
 1245ERGO    R516874   8.196  17.665   6.060  0.1256  0.0951  0.1357
 1245ERGO    C116875   7.908  17.558   6.286  0.2163  0.2493  0.3254
 1245ERGO    C216876   7.840  17.467   6.607  0.1627  0.0045  0.0381
 1246ERGO   ROH16877  14.940   5.716   5.428 -0.1964 -0.0185  0.0354
 1246ERGO    R116878  15.109   5.792   5.642 -0.1787  0.1706 -0.0433
 1246ERGO    R216879  15.024   5.955   5.849 -0.2506  0.1159 -0.0289
 1246ERGO    R316880  15.113   5.749   6.004  0.0106  0.2174 -0.0388
 1246ERGO    R416881  15.129   5.985   6.177 -0.0802  0.2646 -0.0949
 1246ERGO    R516882  15.290   5.845   6.134  0.0110  0.3885 -0.1613
 1246ERGO    C116883  15.272   5.809   6.513  0.2644  0.4466 -0.1426
 1246ERGO    C216884  14.992   5.786   6.813  0.0402 -0.1560  0.1218
 1247ERGO   ROH16885  16.198  15.665   5.602  0.0238 -0.1137 -0.1529
 1247ERGO    R116886  16.196  15.743   5.874  0.0381 -0.0993 -0.1570
 1247ERGO    R216887  16.427  15.807   6.012  0.0327  0.0389 -0.2104
 1247ERGO    R316888  16.293  16.038   6.065 -0.0866 -0.0332 -0.1949
 1247ERGO    R416889  16.507  16.028   6.265  0.0783  0.1907 -0.3552
 1247ERGO    R516890  16.294  16.053   6.304  0.0888  0.0567 -0.1997
 1247ERGO    C116891  16.428  16.373   6.463 -0.0072  0.2116 -0.4249
 1247ERGO    C216892  16.591  16.548   6.757 -0.1830 -0.0092  0.1513
 1248ERGO   ROH16893   2.547   6.510   6.631  0.1447  0.0278  0.1167
 1248ERGO    R116894   2.506   6.567   6.905  0.0539  0.0973  0.0901
 1248ERGO    R216895   2.376   6.393   7.076 -0.0831  0.1753  0.0769
 1248ERGO    R316896   2.603   6.421   7.224 -0.1288  0.1209  0.1554
 1248ERGO    R416897   2.414   6.285   7.402 -0.1593  0.0288  0.0369
 1248ERGO    R516898   2.524   6.468   7.445 -0.1869  0.0106  0.1535
 1248ERGO    C116899   2.648   6.247   7.730 -0.2466 -0.1075  0.0873
 1248ERGO    C216900   2.510   6.047   8.015 -0.1310 -0.2761  0.1411
 1249ERGO   ROH16901   7.867   8.862   6.181  0.0393 -0.2263  0.2564
 1249ERGO    R116902   7.637   8.971   6.305  0.0330 -0.0484  0.0922
 1249ERGO    R216903   7.543   8.882   6.549 -0.1633  0.0798  0.0648
 1249ERGO    R316904   7.562   9.145   6.616 -0.0417  0.0888 -0.0013
 1249ERGO    R416905   7.438   9.017   6.849 -0.0437  0.1935  0.0564
 1249ERGO    R516906   7.361   9.189   6.739  0.0020  0.1993  0.0322
 1249ERGO    C116907   7.394   9.343   7.086  0.1401  0.2679 -0.0105
 1249ERGO    C216908   7.507   9.273   7.348  0.3543  0.1972  0.2502
 1250ERGO   ROH16909  14.103   2.175   5.570  0.0723  0.2008 -0.1285
 1250ERGO    R116910  14.081   1.972   5.766 -0.0321  0.1796 -0.1630
 1250ERGO    R216911  14.266   1.941   5.969  0.0277 -0.0356 -0.2526
 1250ERGO    R316912  14.045   1.957   6.127  0.1112  0.1351 -0.1490
 1250ERGO    R416913  14.236   1.798   6.282  0.0515 -0.0544 -0.2581
 1250ERGO    R516914  14.031   1.742   6.232 -0.0244  0.1283 -0.1734
 1250ERGO    C116915  14.012   1.729   6.613  0.1437  0.0948 -0.1639
 1250ERGO    C216916  14.018   1.603   6.937  0.2026  0.4086 -0.0193
 1251ERGO   ROH16917   4.913  16.667   5.607 -0.0521  0.1917 -0.0452
 1251ERGO    R116918   5.117  16.559   5.771  0.0305 -0.0429 -0.2945
 1251ERGO    R216919   5.383  16.555   5.694  0.0358  0.3246 -0.3273
 1251ERGO    R316920   5.420  16.681   5.932 -0.0533 -0.1811 -0.0233
 1251ERGO    R416921   5.687  16.587   5.854  0.0558  0.3784 -0.3769
 1251ERGO    R516922   5.586  16.549   6.044  0.1832 -0.2246 -0.4072
 1251ERGO    C116923   5.899  16.725   6.170 -0.0164 -0.0648 -0.1203
 1251ERGO    C216924   6.182  16.805   6.195 -0.0436  0.1410 -0.1088
 1252ERGO   ROH16925  16.619  17.042   8.874 -0.3801 -0.0978  0.0526
 1252ERGO    R116926  16.803  17.007   8.662 -0.1078  0.0761  0.2545
 1252ERGO    R216927  16.736  16.881   8.426  0.3213 -0.1519  0.2432
 1252ERGO    R316928  16.829  17.111   8.315  0.0800 -0.0591  0.2273
 1252ERGO    R416929  16.829  16.917   8.095  0.2689 -0.0665  0.2375
 1252ERGO    R516930  16.997  17.038   8.160  0.1472  0.1096  0.2222
 1252ERGO    C116931  16.970  17.154   7.798  0.0118  0.0703  0.2192
 1252ERGO    C216932  17.009  17.158   7.399  0.1354  0.1643 -0.0951
 1253ERGO   ROH16933   0.630   6.060   6.419  0.1535 -0.0385  0.0401
 1253ERGO    R116934   0.485   6.102   6.658  0.0219  0.0823 -0.0611
 1253ERGO    R216935   0.545   5.971   6.894 -0.1584  0.1446  0.0130
 1253ERGO    R316936   0.557   6.223   6.994 -0.1489  0.1723 -0.0539
 1253ERGO    R416937   0.515   6.053   7.229 -0.1917  0.2259 -0.0086
 1253ERGO    R516938   0.395   6.225   7.170 -0.1750  0.2260 -0.0710
 1253ERGO    C116939   0.508   6.338   7.517 -0.2021  0.2993 -0.0840
 1253ERGO    C216940   0.469   6.271   7.909  0.2255 -0.0086  0.3698
 1254ERGO   ROH16941  11.580   4.819   5.706  0.1254 -0.0114 -0.1484
 1254ERGO    R116942  11.491   4.822   5.975 -0.0076 -0.0935 -0.1910
 1254ERGO    R216943  11.370   4.603   6.094  0.1986 -0.2307 -0.2315
 1254ERGO    R316944  11.566   4.638   6.279  0.0708  0.0237 -0.1383
 1254ERGO    R416945  11.344   4.521   6.429  0.1451 -0.2655 -0.2438
 1254ERGO    R516946  11.450   4.704   6.478 -0.1117 -0.1236 -0.1917
 1254ERGO    C116947  11.512   4.506   6.797 -0.0060 -0.0470 -0.1633
 1254ERGO    C216948  11.626   4.197   6.946 -0.0164 -0.0302 -0.2366
 1255ERGO   ROH16949  12.115  15.987   5.358 -0.0199 -0.0638 -0.0680
 1255ERGO    R116950  11.990  15.835   5.562 -0.0633 -0.0608 -0.0922
 1255ERGO    R216951  12.041  15.877   5.831 -0.0254 -0.1412 -0.0878
 1255ERGO    R316952  11.771  15.902   5.845 -0.0149 -0.0385 -0.0592
 1255ERGO    R416953  11.858  15.882   6.124 -0.0062 -0.2623 -0.0734
 1255ERGO    R516954  11.707  15.759   6.026 -0.0633 -0.1358 -0.1505
 1255ERGO    C116955  11.497  15.908   6.308  0.0149 -0.2365 -0.0382
 1255ERGO    C216956  11.453  15.863   6.614  0.2545  0.2867  0.1712
 1256ERGO   ROH16957  17.858  12.773   5.568 -0.0643  0.0834 -0.0389
 1256ERGO    R116958  17.733  12.893   5.792 -0.0969 -0.0010 -0.0121
 1256ERGO    R216959  17.462  12.943   5.802 -0.1061 -0.0596 -0.0090
 1256ERGO    R316960  17.477  12.800   6.033 -0.0870 -0.1162 -0.0445
 1256ERGO    R416961  17.222  12.945   6.051 -0.0696 -0.0911  0.0272
 1256ERGO    R516962  17.383  12.945   6.199 -0.0463 -0.1436  0.0041
 1256ERGO    C116963  17.096  12.811   6.413 -0.0305 -0.1625  0.0149
 1256ERGO    C216964  16.945  12.891   6.804 -0.0198 -0.0058 -0.0035
 1257ERGO   ROH16965   3.485  11.314   6.606 -0.0693  0.2268 -0.1122
 1257ERGO    R116966   3.711  11.350   6.771  0.0277  0.1094 -0.2180
 1257ERGO    R216967   3.870  11.577   6.760 -0.0148  0.1439 -0.1110
 1257ERGO    R316968   3.817  11.587   7.026  0.1484 -0.1051 -0.0650
 1257ERGO    R416969   4.054  11.755   6.991 -0.0914  0.2342 -0.1184
 1257ERGO    R516970   4.033  11.589   7.130  0.2212  0.1081 -0.2114
 1257ERGO    C116971   4.112  11.869   7.376  0.0172  0.0530 -0.0797
 1257ERGO    C216972   4.363  12.074   7.433  0.3183  0.2341 -0.0654
 1258ERGO   ROH16973  12.108   7.780   5.706  0.0619  0.0963 -0.0346
 1258ERGO    R116974  12.336   7.659   5.820 -0.0788 -0.1536 -0.0099
 1258ERGO    R216975  12.497   7.788   6.004  0.1579 -0.2492 -0.1403
 1258ERGO    R316976  12.447   7.566   6.154 -0.1276 -0.0772  0.0269
 1258ERGO    R416977  12.652   7.713   6.304  0.1144 -0.2625 -0.1220
 1258ERGO    R516978  12.661   7.504   6.242 -0.1964 -0.3227  0.0224
 1258ERGO    C116979  12.695   7.461   6.620 -0.1788 -0.1087  0.0456
 1258ERGO    C216980  12.609   7.320   6.931  0.1929  0.5192  0.0247
 1259ERGO   ROH16981   2.310   5.470   6.743 -0.1228  0.0807  0.1797
 1259ERGO    R116982   2.396   5.301   6.955 -0.1320  0.1917  0.2735
 1259ERGO    R216983   2.653   5.202   6.971 -0.2015 -0.0139  0.1928
 1259ERGO    R316984   2.647   5.315   7.218  0.0497  0.2145  0.1010
 1259ERGO    R416985   2.842   5.098   7.241 -0.2085 -0.0088  0.1994
 1259ERGO    R516986   2.668   5.130   7.369 -0.1129  0.3184  0.2534
 1259ERGO    C116987   2.945   5.144   7.631  0.0232  0.2086  0.1170
 1259ERGO    C216988   3.191   5.020   7.969 -0.2119 -0.0671  0.2231
 1260ERGO   ROH16989  10.899  10.551   5.410 -0.0894 -0.0651  0.0436
 1260ERGO    R116990  10.868  10.729   5.628  0.1044  0.0553 -0.0245
 1260ERGO    R216991  10.682  10.689   5.829 -0.0101  0.3868 -0.0560
 1260ERGO    R316992  10.899  10.711   5.990 -0.0168  0.1326 -0.0102
 1260ERGO    R416993  10.670  10.750   6.168 -0.0113  0.2897 -0.0390
 1260ERGO    R516994  10.841  10.883   6.146  0.1173  0.1379  0.0339
 1260ERGO    C116995  10.867  10.806   6.518 -0.0185 -0.0054  0.0140
 1260ERGO    C216996  10.783  10.707   6.748 -0.1779 -0.1041  0.0576
 1261ERGO   ROH16997   1.569  13.741   5.926 -0.1997 -0.2481  0.0793
 1261ERGO    R116998   1.586  13.623   6.183  0.1281 -0.1610  0.1016
 1261ERGO    R216999   1.826  13.539   6.292  0.3043  0.1038 -0.0694
 1261ERGO    R317000   1.751  13.699   6.498  0.3168  0.0889 -0.0531
 1261ERGO    R417001   1.993  13.563   6.593  0.2176 -0.0620 -0.0060
 1261ERGO    R517002   1.801  13.571   6.695  0.1852  0.0108 -0.0691
 1261ERGO    C117003   2.022  13.729   6.962  0.1788 -0.1726  0.0462
 1261ERGO    C217004   2.158  13.806   7.296 -0.2777  0.1108  0.2853
 1262ERGO   ROH17005  15.906  12.559   5.804 -0.1331  0.0322 -0.1895
 1262ERGO    R117006  15.700  12.628   5.985  0.0520 -0.1844  0.1128
 1262ERGO    R217007  15.732  12.617   6.259  0.5865  0.1839  0.0790
 1262ERGO    R317008  15.649  12.875   6.247  0.0429  0.0153 -0.0745
 1262ERGO    R417009  15.653  12.811   6.534  0.5594  0.2953 -0.0071
 1262ERGO    R517010  15.485  12.893   6.421  0.2324 -0.1528  0.1276
 1262ERGO    C117011  15.529  13.167   6.682  0.0332  0.2019 -0.2013
 1262ERGO    C217012  15.661  13.309   6.977  0.2088  0.2263  0.2337
 1263ERGO   ROH17013  15.920  19.308   6.072  0.0323 -0.0902  0.0083
 1263ERGO    R117014  16.134  19.393   6.236 -0.0679 -0.0115  0.1006
 1263ERGO    R217015  16.173  19.297   6.492  0.0251 -0.2218  0.0122
 1263ERGO    R317016  16.421  19.238   6.398  0.0970  0.1426 -0.0400
 1263ERGO    R417017  16.463  19.310   6.680 -0.0128 -0.2081  0.0691
 1263ERGO    R517018  16.564  19.396   6.507 -0.0674  0.1305  0.1997
 1263ERGO    C117019  16.864  19.263   6.701  0.0328  0.1421  0.0534
 1263ERGO    C217020  17.037  19.322   6.979  0.2124  0.2439  0.1142
 1264ERGO   ROH17021  10.868   2.326   5.532 -0.0194 -0.0278  0.0863
 1264ERGO    R117022  10.650   2.216   5.674  0.0718 -0.2191  0.0816
 1264ERGO    R217023  10.683   2.055   5.896  0.2075 -0.0269  0.2041
 1264ERGO    R317024  10.517   2.237   6.012 -0.0755 -0.1598  0.0214
 1264ERGO    R417025  10.645   2.097   6.237  0.0515  0.1732  0.1643
 1264ERGO    R517026  10.430   2.123   6.204  0.0211 -0.1389  0.0783
 1264ERGO    C117027  10.467   2.291   6.545 -0.3050  0.1650 -0.0305
 1264ERGO    C217028  10.421   2.670   6.803 -0.2519  0.1789  0.2638
 1265ERGO   ROH17029  11.200  13.085   6.904  0.0252 -0.1864  0.1151
 1265ERGO    R117030  11.388  12.876   6.872  0.0646 -0.1468  0.0900
 1265ERGO    R217031  11.507  12.818   6.629  0.0929 -0.0779  0.0909
 1265ERGO    R317032  11.737  12.847   6.772  0.0792 -0.0681  0.1129
 1265ERGO    R417033  11.824  12.836   6.493  0.0949  0.0139  0.1066
 1265ERGO    R517034  11.897  12.712   6.656  0.1101 -0.0141  0.0854
 1265ERGO    C117035  12.224  12.874   6.547  0.0832  0.0766  0.1364
 1265ERGO    C217036  12.531  13.025   6.553 -0.1908  0.0161  0.0603
 1266ERGO   ROH17037  16.790   7.611   5.800  0.0675 -0.0019 -0.0774
 1266ERGO    R117038  16.711   7.490   6.043 -0.0057 -0.0754 -0.1363
 1266ERGO    R217039  16.736   7.618   6.287  0.1420 -0.2373 -0.0606
 1266ERGO    R317040  16.470   7.561   6.307  0.0929 -0.0132 -0.0641
 1266ERGO    R417041  16.554   7.631   6.580  0.1786 -0.2335 -0.0386
 1266ERGO    R517042  16.450   7.449   6.518  0.0115 -0.1071 -0.1244
 1266ERGO    C117043  16.199   7.585   6.771  0.1538 -0.0208 -0.0291
 1266ERGO    C217044  16.103   7.778   7.123 -0.0260  0.2292  0.1805
 1267ERGO   ROH17045   2.090   4.239   6.404 -0.1120 -0.2989 -0.2429
 1267ERGO    R117046   2.158   4.138   6.660 -0.0623 -0.2635 -0.2415
 1267ERGO    R217047   2.090   4.268   6.894  0.2556 -0.0659 -0.2512
 1267ERGO    R317048   1.980   4.028   6.957 -0.0016  0.0970 -0.0656
 1267ERGO    R417049   2.110   4.118   7.205  0.4744 -0.0417 -0.2526
 1267ERGO    R517050   2.139   3.926   7.104  0.0648 -0.1046 -0.2707
 1267ERGO    C117051   2.018   3.805   7.445  0.3603  0.1254 -0.0792
 1267ERGO    C217052   1.920   3.765   7.749 -0.3176 -0.0922 -0.1028
 1268ERGO   ROH17053   6.393  15.899   8.928 -0.1457  0.1347 -0.0799
 1268ERGO    R117054   6.334  15.770   8.683  0.0275  0.1010 -0.1059
 1268ERGO    R217055   6.081  15.772   8.572  0.0397 -0.1514 -0.1450
 1268ERGO    R317056   6.213  15.869   8.355 -0.0273  0.0154 -0.1119
 1268ERGO    R417057   5.936  15.836   8.265 -0.0156 -0.1128 -0.1102
 1268ERGO    R517058   6.114  15.755   8.169  0.0298  0.0311 -0.1529
 1268ERGO    C117059   5.975  15.965   7.882 -0.1108  0.0663 -0.0588
 1268ERGO    C217060   6.048  16.116   7.599  0.0419  0.1382  0.1228
 1269ERGO   ROH17061   2.730  18.624   9.137 -0.2740  0.1979  0.1302
 1269ERGO    R117062   2.806  18.569   8.870 -0.1609 -0.0905  0.2178
 1269ERGO    R217063   2.622  18.541   8.666 -0.0614 -0.0061  0.1134
 1269ERGO    R317064   2.774  18.733   8.547  0.2616 -0.2785  0.0739
 1269ERGO    R417065   2.639  18.595   8.325 -0.2331  0.1033  0.1208
 1269ERGO    R517066   2.854  18.628   8.347 -0.1319 -0.3734 -0.0418
 1269ERGO    C117067   2.792  18.805   8.015 -0.0298 -0.0892  0.0882
 1269ERGO    C217068   2.941  18.961   7.760 -0.0871 -0.0110 -0.1294
 1270ERGO   ROH17069   6.671  11.024   6.479  0.2048 -0.2953 -0.0500
 1270ERGO    R117070   6.692  10.967   6.755  0.0597 -0.3141 -0.0420
 1270ERGO    R217071   6.674  11.162   6.949  0.3056 -0.2727 -0.0573
 1270ERGO    R317072   6.480  11.000   7.049  0.0387  0.0151 -0.0902
 1270ERGO    R417073   6.583  11.145   7.282  0.2815 -0.1988 -0.0598
 1270ERGO    R517074   6.566  10.929   7.262 -0.0704 -0.1723 -0.1065
 1270ERGO    C117075   6.349  10.983   7.570  0.0168  0.1143 -0.0922
 1270ERGO    C217076   6.389  11.080   7.938  0.0351  0.1883  0.0489
 1271ERGO   ROH17077  12.863  10.542   8.915 -0.0008  0.0538 -0.0924
 1271ERGO    R117078  12.854  10.733   8.707 -0.0398  0.0567 -0.0898
 1271ERGO    R217079  13.081  10.833   8.586 -0.0488  0.2112  0.0025
 1271ERGO    R317080  12.957  10.751   8.359  0.0934  0.1320 -0.0452
 1271ERGO    R417081  13.165  10.937   8.267  0.1698  0.0577  0.0090
 1271ERGO    R517082  12.952  10.946   8.220  0.2088  0.0657 -0.1356
 1271ERGO    C117083  13.097  10.920   7.868  0.4304 -0.1060 -0.0320
 1271ERGO    C217084  13.254  11.137   7.655  0.0864 -0.0497  0.1000
 1272ERGO   ROH17085  14.972   1.601   5.268 -0.1581 -0.2101  0.0318
 1272ERGO    R117086  15.003   1.771   5.491  0.0193 -0.2216  0.0179
 1272ERGO    R217087  14.792   1.841   5.655  0.0233  0.2473 -0.1571
 1272ERGO    R317088  14.955   1.747   5.851 -0.3131 -0.0548 -0.0119
 1272ERGO    R417089  14.778   1.937   5.987  0.0509  0.4376 -0.2100
 1272ERGO    R517090  14.996   1.937   5.991  0.0570 -0.0802 -0.0798
 1272ERGO    C117091  14.923   1.904   6.364 -0.2490  0.2649 -0.1044
 1272ERGO    C217092  14.967   2.009   6.656 -0.0539  0.2242  0.1052
 1273ERGO   ROH17093  10.823   2.875   7.008 -0.1696  0.0181  0.0668
 1273ERGO    R117094  10.860   2.610   7.099 -0.0247  0.0509  0.1065
 1273ERGO    R217095  10.817   2.390   6.937 -0.2176 -0.0050  0.2314
 1273ERGO    R317096  11.071   2.327   7.010 -0.1108  0.0439 -0.0803
 1273ERGO    R417097  10.968   2.084   6.881 -0.2707 -0.0192  0.1613
 1273ERGO    R517098  11.057   2.098   7.079 -0.0039  0.0729  0.0391
 1273ERGO    C117099  11.294   1.847   6.917 -0.2014  0.0183 -0.1721
 1273ERGO    C217100  11.612   1.680   6.723 -0.1559 -0.0369  0.0535
 1274ERGO   ROH17101  17.519   0.684   9.011  0.0331  0.2031 -0.0375
 1274ERGO    R117102  17.563   0.616   8.740  0.1419  0.1338 -0.0025
 1274ERGO    R217103  17.809   0.532   8.645  0.1092 -0.1703  0.1769
 1274ERGO    R317104  17.665   0.320   8.555 -0.0857 -0.0048  0.0879
 1274ERGO    R417105  17.902   0.328   8.382 -0.0447 -0.1786  0.1273
 1274ERGO    R517106  17.694   0.325   8.317 -0.0421  0.0441  0.0919
 1274ERGO    C117107  17.821   0.010   8.145 -0.3172 -0.0282  0.0148
 1274ERGO    C217108  17.954  -0.092   7.894 -0.0475 -0.1298 -0.0804
 1275ERGO   ROH17109   7.488   2.020   9.100 -0.2994 -0.3180 -0.1786
 1275ERGO    R117110   7.527   2.178   8.868 -0.2546 -0.0927 -0.0212
 1275ERGO    R217111   7.500   2.076   8.612  0.0065  0.0951 -0.1305
 1275ERGO    R317112   7.327   2.284   8.583 -0.1360 -0.0136 -0.0747
 1275ERGO    R417113   7.364   2.179   8.312  0.0819  0.2073 -0.1271
 1275ERGO    R517114   7.391   2.385   8.376 -0.1075  0.1821  0.0306
 1275ERGO    C117115   7.123   2.434   8.109 -0.0079  0.1706 -0.0728
 1275ERGO    C217116   6.932   2.468   7.826 -0.3002  0.0745 -0.2398
 1276ERGO   ROH17117  13.206   7.238   8.593 -0.1527  0.0012  0.1886
 1276ERGO    R117118  13.210   7.076   8.361 -0.0811  0.0401  0.1629
 1276ERGO    R217119  13.094   7.154   8.123 -0.1452  0.0119  0.1869
 1276ERGO    R317120  13.341   7.102   8.023 -0.1247  0.1664  0.1549
 1276ERGO    R417121  13.180   7.178   7.789 -0.2167  0.0313  0.1695
 1276ERGO    R517122  13.299   6.996   7.812 -0.0890  0.1115  0.1734
 1276ERGO    C117123  13.462   7.144   7.500 -0.2392  0.1877  0.1293
 1276ERGO    C217124  13.478   7.032   7.272  0.2125  0.1887  0.0413
 1277ERGO   ROH17125   3.431   7.726   6.157  0.0700  0.2658  0.0803
 1277ERGO    R117126   3.282   7.679   6.394  0.0184  0.0584  0.0080
 1277ERGO    R217127   3.124   7.454   6.428  0.1905 -0.0865 -0.1329
 1277ERGO    R317128   3.273   7.424   6.653  0.1310 -0.0432 -0.0865
 1277ERGO    R417129   3.009   7.324   6.727  0.1898 -0.3055 -0.2260
 1277ERGO    R517130   3.123   7.475   6.832  0.0162 -0.2446 -0.1219
 1277ERGO    C117131   3.082   7.220   7.112  0.1335 -0.3924 -0.2366
 1277ERGO    C217132   3.012   7.208   7.439  0.0523 -0.0106  0.5212
 1278ERGO   ROH17133  16.444  13.877   5.780  0.0910  0.1044 -0.0804
 1278ERGO    R117134  16.481  13.906   6.059 -0.1691  0.0090 -0.0347
 1278ERGO    R217135  16.687  14.053   6.168 -0.1547 -0.1909  0.2084
 1278ERGO    R317136  16.485  14.181   6.298 -0.1808 -0.0496  0.0356
 1278ERGO    R417137  16.730  14.270   6.434 -0.2143 -0.1166  0.1587
 1278ERGO    R517138  16.554  14.181   6.528 -0.3204 -0.0034  0.0821
 1278ERGO    C117139  16.566  14.516   6.711 -0.2735  0.0592 -0.0326
 1278ERGO    C217140  16.431  14.881   6.816  0.1424  0.1656 -0.0738
 1279ERGO   ROH17141   1.058  12.809   6.190 -0.0176 -0.1873  0.0421
 1279ERGO    R117142   0.962  12.687   6.426  0.0065 -0.1132  0.0912
 1279ERGO    R217143   1.022  12.784   6.679 -0.0236  0.0072  0.0561
 1279ERGO    R317144   0.752  12.785   6.707 -0.0241 -0.0473  0.0446
 1279ERGO    R417145   0.854  12.787   6.981 -0.0397 -0.1399  0.0484
 1279ERGO    R517146   0.711  12.646   6.897 -0.0120 -0.1283 -0.0133
 1279ERGO    C117147   0.502  12.789   7.182 -0.0495 -0.2767  0.0332
 1279ERGO    C217148   0.505  12.943   7.454  0.1499  0.4545 -0.1507
 1280ERGO   ROH17149   8.348  19.062   5.690  0.0522 -0.3029  0.1526
 1280ERGO    R117150   8.308  19.238   5.907  0.0357 -0.2407  0.0973
 1280ERGO    R217151   8.462  19.229   6.136  0.1843 -0.0062  0.0005
 1280ERGO    R317152   8.503  19.492   6.081 -0.0765  0.0106 -0.1323
 1280ERGO    R417153   8.529  19.472   6.372  0.5356  0.0577 -0.1565
 1280ERGO    R517154   8.398  19.608   6.262  0.2211 -0.0277  0.0801
 1280ERGO    C117155   8.606  19.861   6.458  0.4952  0.1107 -0.3726
 1280ERGO    C217156   8.725  20.065   6.743  0.1877 -0.2404 -0.0843
 1281ERGO   ROH17157  11.566   6.148   8.841 -0.0643  0.0695 -0.1187
 1281ERGO    R117158  11.464   6.250   8.597  0.0263  0.1456 -0.1266
 1281ERGO    R217159  11.550   6.488   8.488  0.1168  0.1491 -0.0567
 1281ERGO    R317160  11.597   6.333   8.269  0.1371  0.1793 -0.0727
 1281ERGO    R417161  11.529   6.596   8.160 -0.0427  0.1415 -0.0488
 1281ERGO    R517162  11.436   6.406   8.108  0.0483  0.0912 -0.0228
 1281ERGO    C117163  11.561   6.514   7.764 -0.1166  0.1654 -0.0593
 1281ERGO    C217164  11.739   6.567   7.519  0.0975  0.1220 -0.2881
 1282ERGO   ROH17165  11.861   1.815   5.937 -0.0789 -0.1989 -0.0379
 1282ERGO    R117166  11.899   1.705   6.195 -0.0605 -0.1729 -0.0297
 1282ERGO    R217167  11.740   1.504   6.297 -0.0012 -0.2186 -0.0301
 1282ERGO    R317168  11.978   1.378   6.335  0.0364 -0.1403 -0.0058
 1282ERGO    R417169  11.792   1.240   6.514  0.0655 -0.1799  0.0009
 1282ERGO    R517170  11.983   1.330   6.569  0.0374 -0.1135  0.0015
 1282ERGO    C117171  12.046   0.969   6.677  0.1398 -0.0839  0.0417
 1282ERGO    C217172  11.922   0.654   6.930  0.0190 -0.0106 -0.1003
 1283ERGO   ROH17173  14.855   4.633   5.594 -0.0139  0.1696 -0.0322
 1283ERGO    R117174  14.914   4.777   5.831  0.0720  0.1418 -0.0363
 1283ERGO    R217175  14.973   4.651   6.070 -0.0345  0.1132 -0.0261
 1283ERGO    R317176  15.196   4.807   6.058  0.0782 -0.0455 -0.0164
 1283ERGO    R417177  15.171   4.734   6.341 -0.2529  0.3353  0.0691
 1283ERGO    R517178  15.190   4.935   6.260 -0.0450  0.2250 -0.1837
 1283ERGO    C117179  15.496   4.928   6.487 -0.2744  0.3156  0.1337
 1283ERGO    C217180  15.717   5.007   6.704 -0.1157  0.0261 -0.0656
 1284ERGO   ROH17181   0.262   1.634   5.904  0.0060  0.2597  0.0765
 1284ERGO    R117182   0.184   1.373   5.981  0.0574  0.2001 -0.0655
 1284ERGO    R217183   0.118   1.309   6.242  0.1798  0.0160 -0.0751
 1284ERGO    R317184  -0.112   1.219   6.128  0.1334  0.0843 -0.0347
 1284ERGO    R417185  -0.124   1.124   6.405  0.3062 -0.1922 -0.1205
 1284ERGO    R517186  -0.146   1.003   6.226  0.2295 -0.0190 -0.2284
 1284ERGO    C117187  -0.481   0.932   6.394  0.3362 -0.2493 -0.1091
 1284ERGO    C217188  -0.606   0.859   6.620  0.1299 -0.0848 -0.0365
 1285ERGO   ROH17189  19.229  13.798   6.166 -0.0344 -0.0720  0.0658
 1285ERGO    R117190  19.051  13.935   6.339 -0.0085 -0.0899  0.1075
 1285ERGO    R217191  19.040  13.885   6.611  0.1584  0.0087  0.1358
 1285ERGO    R317192  19.079  14.154   6.628  0.0428  0.0342  0.0083
 1285ERGO    R417193  18.928  14.086   6.870  0.0803  0.0879  0.0410
 1285ERGO    R517194  18.876  14.238   6.723  0.0118 -0.0057 -0.0281
 1285ERGO    C117195  18.900  14.454   7.036 -0.0736  0.1577 -0.1339
 1285ERGO    C217196  19.026  14.399   7.371  0.0975 -0.2193 -0.0792
 1286ERGO   ROH17197   9.166  18.711   5.526 -0.0516 -0.1100  0.2898
 1286ERGO    R117198   9.301  18.782   5.764 -0.1412 -0.0939  0.3378
 1286ERGO    R217199   9.527  18.942   5.764  0.0850 -0.3913  0.3763
 1286ERGO    R317200   9.381  19.090   5.940  0.1325 -0.0472  0.1331
 1286ERGO    R417201   9.654  19.196   5.962  0.1922 -0.2357  0.1110
 1286ERGO    R517202   9.529  19.125   6.125  0.0735  0.0759  0.1496
 1286ERGO    C117203   9.592  19.483   6.241  0.2991  0.1782 -0.2717
 1286ERGO    C217204   9.796  19.696   6.460  0.1926 -0.0575  0.0728
 1287ERGO   ROH17205  16.852   5.491   9.054 -0.1519  0.0877 -0.0060
 1287ERGO    R117206  16.842   5.649   8.819 -0.0192  0.0936 -0.0080
 1287ERGO    R217207  17.016   5.614   8.608  0.0305  0.0288  0.0487
 1287ERGO    R317208  16.786   5.592   8.464  0.0676  0.1208 -0.0275
 1287ERGO    R417209  16.994   5.640   8.264  0.1776 -0.0571  0.0311
 1287ERGO    R517210  16.810   5.753   8.289  0.2293  0.0606 -0.0675
 1287ERGO    C117211  16.765   5.635   7.929  0.2980 -0.0209 -0.0504
 1287ERGO    C217212  16.807   5.467   7.628 -0.2951 -0.0630  0.0145
 1288ERGO   ROH17213  16.142   2.068   8.704 -0.2333 -0.0096 -0.1558
 1288ERGO    R117214  16.266   2.026   8.453 -0.1277 -0.0314 -0.1009
 1288ERGO    R217215  16.143   1.887   8.248 -0.0631 -0.0047 -0.1591
 1288ERGO    R317216  16.197   2.113   8.106  0.0462 -0.0134 -0.1315
 1288ERGO    R417217  16.153   1.906   7.903 -0.1104  0.0453 -0.1576
 1288ERGO    R517218  16.327   2.036   7.920 -0.0305 -0.0600 -0.1657
 1288ERGO    C117219  16.209   2.129   7.569 -0.0355  0.0662 -0.1307
 1288ERGO    C217220  16.340   1.958   7.278  0.2154  0.0590  0.2864
 1289ERGO   ROH17221  15.887  18.933   8.446  0.0926  0.1674 -0.0563
 1289ERGO    R117222  15.814  18.941   8.173  0.0360  0.0736 -0.0451
 1289ERGO    R217223  15.795  19.178   8.031 -0.0340  0.0315 -0.1137
 1289ERGO    R317224  15.967  19.052   7.862 -0.0441  0.0092 -0.1065
 1289ERGO    R417225  15.818  19.239   7.692  0.1738  0.2091 -0.0695
 1289ERGO    R517226  15.842  19.025   7.660  0.0358  0.2146 -0.1826
 1289ERGO    C117227  15.993  19.157   7.335  0.2853  0.2918 -0.0370
 1289ERGO    C217228  16.067  19.348   6.946 -0.0556  0.2564 -0.0211
 1290ERGO   ROH17229  18.998   2.096   5.815 -0.0819  0.1017  0.0099
 1290ERGO    R117230  18.936   2.200   6.071 -0.0448  0.0724  0.0306
 1290ERGO    R217231  19.090   2.394   6.195 -0.0235  0.0558  0.0324
 1290ERGO    R317232  18.853   2.525   6.212 -0.0198  0.0572  0.0787
 1290ERGO    R417233  19.025   2.660   6.405  0.1081  0.2598 -0.1805
 1290ERGO    R517234  18.828   2.576   6.444  0.1435  0.2848  0.0466
 1290ERGO    C117235  18.765   2.939   6.543  0.1880  0.3799 -0.2608
 1290ERGO    C217236  18.725   3.315   6.757 -0.1050 -0.3442  0.1152
 1291ERGO   ROH17237   5.539   9.688   9.887  0.4178  0.0851  0.0112
 1291ERGO    R117238   5.647   9.735   9.630  0.6871 -0.2087  0.0655
 1291ERGO    R217239   5.795   9.547   9.494  0.0027 -0.7462  0.0285
 1291ERGO    R317240   5.612   9.592   9.297  0.2087  0.0662 -0.0144
 1291ERGO    R417241   5.853   9.498   9.156 -0.1234 -1.0526  0.0463
 1291ERGO    R517242   5.742   9.682   9.116  0.6865 -0.5127  0.0017
 1291ERGO    C117243   5.716   9.512   8.776 -0.0034 -0.4684  0.0164
 1291ERGO    C217244   5.747   9.646   8.434 -0.1283 -0.2465  0.1437
 1292ERGO   ROH17245  15.319  16.796   5.532 -0.2208 -0.0656 -0.2704
 1292ERGO    R117246  15.292  16.871   5.804 -0.2362 -0.1541 -0.2470
 1292ERGO    R217247  15.359  17.123   5.896  0.0157 -0.2653 -0.1117
 1292ERGO    R317248  15.104  17.120   5.992 -0.0268 -0.0225 -0.2103
 1292ERGO    R417249  15.253  17.286   6.182  0.0700 -0.2135 -0.1212
 1292ERGO    R517250  15.130  17.113   6.230 -0.1278 -0.0966 -0.2024
 1292ERGO    C117251  14.953  17.378   6.439  0.0615  0.0449 -0.2195
 1292ERGO    C217252  14.641  17.438   6.514 -0.0899 -0.0114  0.2086
 1293ERGO   ROH17253   2.227   1.300   6.021  0.0789 -0.1053 -0.0185
 1293ERGO    R117254   2.237   1.303   6.303  0.1308 -0.1817 -0.0194
 1293ERGO    R217255   2.419   1.152   6.446  0.1998 -0.1725 -0.0947
 1293ERGO    R317256   2.481   1.392   6.558  0.1539 -0.1858 -0.0406
 1293ERGO    R417257   2.609   1.193   6.732 -0.0148 -0.2088  0.0551
 1293ERGO    R517258   2.472   1.352   6.794 -0.0360 -0.1881 -0.0480
 1293ERGO    C117259   2.778   1.442   7.004 -0.1829 -0.2424  0.1930
 1293ERGO    C217260   2.971   1.650   7.238  0.2718  0.5031 -0.1489
 1294ERGO   ROH17261   9.172  14.560   9.041 -0.0808  0.0995 -0.0368
 1294ERGO    R117262   9.220  14.573   8.762 -0.0666  0.0078 -0.0389
 1294ERGO    R217263   9.085  14.415   8.581 -0.1488  0.0390 -0.0047
 1294ERGO    R317264   9.028  14.654   8.464 -0.0150  0.0435 -0.0625
 1294ERGO    R417265   9.019  14.459   8.244 -0.1947 -0.0166 -0.0033
 1294ERGO    R517266   9.137  14.643   8.251 -0.0696 -0.0927 -0.0843
 1294ERGO    C117267   8.928  14.709   7.939 -0.0958 -0.0447 -0.0567
 1294ERGO    C217268   8.639  14.619   7.617  0.0599 -0.2155  0.1541
 1295ERGO   ROH17269   0.336   0.686   9.375 -0.2963  0.0789 -0.1231
 1295ERGO    R117270   0.529   0.701   9.169 -0.0584  0.3862  0.1141
 1295ERGO    R217271   0.470   0.646   8.905  0.4072  0.0353  0.0753
 1295ERGO    R317272   0.575   0.893   8.863 -0.1298  0.2707  0.0286
 1295ERGO    R417273   0.473   0.810   8.601  0.3071 -0.1538 -0.0299
 1295ERGO    R517274   0.675   0.879   8.646  0.1191  0.3567  0.1291
 1295ERGO    C117275   0.573   1.137   8.384 -0.2552 -0.0428 -0.1353
 1295ERGO    C217276   0.598   1.441   8.201  0.0869  0.0373 -0.0525
 1296ERGO   ROH17277  17.261  13.562   8.825  0.1443  0.1088 -0.0396
 1296ERGO    R117278  17.144  13.566   8.568  0.2132  0.1657 -0.0705
 1296ERGO    R217279  17.294  13.545   8.336  0.2540 -0.0439 -0.0288
 1296ERGO    R317280  17.124  13.339   8.283  0.0558  0.1144 -0.0186
 1296ERGO    R417281  17.264  13.386   8.030  0.1357 -0.0679 -0.0054
 1296ERGO    R517282  17.048  13.380   8.060  0.1255  0.1512 -0.0341
 1296ERGO    C117283  17.087  13.101   7.803 -0.1195  0.0665  0.0178
 1296ERGO    C217284  17.093  12.936   7.529 -0.3918  0.1595 -0.3972
 1297ERGO   ROH17285   8.212  10.469   5.907  0.3169 -0.1983 -0.0490
 1297ERGO    R117286   8.366  10.559   6.127  0.2438 -0.0505 -0.0567
 1297ERGO    R217287   8.447  10.822   6.155  0.1406 -0.0072 -0.1490
 1297ERGO    R317288   8.326  10.799   6.397  0.1038  0.0462 -0.1623
 1297ERGO    R417289   8.545  10.989   6.441  0.1405 -0.0022 -0.1519
 1297ERGO    R517290   8.506  10.807   6.554  0.0832  0.0197 -0.1389
 1297ERGO    C117291   8.489  11.065   6.835  0.1057  0.0507 -0.1661
 1297ERGO    C217292   8.450  11.167   7.157  0.2911 -0.3171  0.1571
 1298ERGO   ROH17293  17.805   5.885   5.721  0.1640  0.2036  0.1944
 1298ERGO    R117294  17.818   5.740   5.964  0.0416  0.1593  0.1752
 1298ERGO    R217295  18.055   5.639   6.064 -0.0219  0.0690  0.2341
 1298ERGO    R317296  17.983   5.778   6.286 -0.0487  0.0543  0.2348
 1298ERGO    R417297  18.066   5.515   6.386  0.2805  0.1626  0.2628
 1298ERGO    R517298  17.877   5.616   6.426  0.1940 -0.0232  0.3361
 1298ERGO    C117299  18.005   5.574   6.783  0.4313  0.2032  0.2802
 1298ERGO    C217300  18.024   5.610   7.121 -0.0286 -0.0289  0.0950
 1299ERGO   ROH17301  13.799   0.318   5.246 -0.0753 -0.1135  0.0117
 1299ERGO    R117302  13.713   0.276   5.513 -0.0772 -0.1675  0.0035
 1299ERGO    R217303  13.858   0.127   5.694 -0.1010 -0.2477 -0.0369
 1299ERGO    R317304  13.838   0.352   5.846 -0.0510 -0.2815  0.0186
 1299ERGO    R417305  13.846   0.131   6.040 -0.0978 -0.3211 -0.0363
 1299ERGO    R517306  13.695   0.288   6.028 -0.0606 -0.2888  0.0038
 1299ERGO    C117307  13.820   0.344   6.383 -0.0493 -0.3955  0.0162
 1299ERGO    C217308  13.953   0.432   6.717  0.0779 -0.2435 -0.1171
 1300ERGO   ROH17309   9.596   4.448   5.816  0.0323 -0.1611  0.0040
 1300ERGO    R117310   9.655   4.236   5.994 -0.0052 -0.3197 -0.1720
 1300ERGO    R217311   9.559   4.228   6.253  0.2535 -0.3532 -0.0824
 1300ERGO    R317312   9.467   3.984   6.177 -0.0821 -0.2246 -0.1142
 1300ERGO    R417313   9.377   4.013   6.454  0.1938 -0.2369 -0.0080
 1300ERGO    R517314   9.491   3.847   6.371 -0.0530 -0.3348 -0.1870
 1300ERGO    C117315   9.185   3.659   6.499 -0.1559 -0.0484  0.0055
 1300ERGO    C217316   8.926   3.437   6.696 -0.0034 -0.2269 -0.2835
 1301ERGO   ROH17317   6.606   4.412   6.140  0.0011  0.0855 -0.0978
 1301ERGO    R117318   6.777   4.345   6.355 -0.0186 -0.0300 -0.1168
 1301ERGO    R217319   6.765   4.474   6.600  0.1394  0.0254 -0.1362
 1301ERGO    R317320   6.739   4.220   6.695 -0.0713  0.0641 -0.0880
 1301ERGO    R417321   6.957   4.336   6.852 -0.0476 -0.0535 -0.0352
 1301ERGO    R517322   6.963   4.150   6.740 -0.1361 -0.0829  0.0096
 1301ERGO    C117323   7.044   4.018   7.089 -0.3542 -0.0630  0.0689
 1301ERGO    C217324   7.215   3.896   7.442  0.1386 -0.0555  0.0066
 1302ERGO   ROH17325   9.677   5.835   5.867 -0.1338 -0.1516 -0.1206
 1302ERGO    R117326   9.661   5.769   6.142 -0.0486 -0.0916 -0.1017
 1302ERGO    R217327   9.522   5.924   6.323  0.0256 -0.0434 -0.0913
 1302ERGO    R317328   9.398   5.689   6.380  0.0241 -0.0209  0.0052
 1302ERGO    R417329   9.279   5.883   6.565 -0.0505  0.0868 -0.1438
 1302ERGO    R517330   9.371   5.692   6.618 -0.0518  0.1198 -0.0013
 1302ERGO    C117331   9.020   5.638   6.758 -0.0961  0.1838 -0.0837
 1302ERGO    C217332   8.686   5.473   6.822 -0.0619 -0.0504  0.0115
 1303ERGO   ROH17333  16.978  15.443   8.583 -0.1267  0.1062  0.0134
 1303ERGO    R117334  16.770  15.450   8.391 -0.0525  0.0232 -0.0710
 1303ERGO    R217335  16.805  15.555   8.138  0.0358 -0.0550 -0.0901
 1303ERGO    R317336  16.711  15.312   8.060  0.0908 -0.0894 -0.0509
 1303ERGO    R417337  16.684  15.482   7.822  0.2502 -0.1875 -0.1436
 1303ERGO    R517338  16.527  15.363   7.915  0.1868 -0.1499 -0.1986
 1303ERGO    C117339  16.526  15.211   7.565  0.4270 -0.2970 -0.1380
 1303ERGO    C217340  16.325  15.058   7.236  0.0405  0.3352 -0.0988
 1304ERGO   ROH17341   8.546  16.183   5.424  0.0976  0.3084 -0.1695
 1304ERGO    R117342   8.510  16.294   5.682 -0.0406  0.1500 -0.1180
 1304ERGO    R217343   8.272  16.274   5.821 -0.0583 -0.1047 -0.1728
 1304ERGO    R317344   8.432  16.169   6.014 -0.0143 -0.0843 -0.1988
 1304ERGO    R417345   8.174  16.214   6.147  0.0382 -0.0228 -0.1288
 1304ERGO    R517346   8.369  16.287   6.213  0.0655 -0.0360 -0.2046
 1304ERGO    C117347   8.267  16.081   6.518  0.1358  0.0439 -0.1276
 1304ERGO    C217348   8.279  16.250   6.793  0.0651 -0.0623  0.0345
 1305ERGO   ROH17349   6.722  16.596   5.495  0.1639 -0.1904  0.2679
 1305ERGO    R117350   6.795  16.698   5.750  0.0806  0.0349  0.2043
 1305ERGO    R217351   6.735  16.956   5.830 -0.2211  0.0095  0.0752
 1305ERGO    R317352   6.621  16.828   6.042 -0.0361 -0.0187  0.1591
 1305ERGO    R417353   6.699  17.090   6.146 -0.0668  0.0160  0.0905
 1305ERGO    R517354   6.752  16.896   6.230  0.0602  0.0424  0.0698
 1305ERGO    C117355   6.572  17.049   6.529  0.1968 -0.0067  0.1781
 1305ERGO    C217356   6.644  17.114   6.694  0.1419 -0.2154  0.1300
 1306ERGO   ROH17357  10.405   1.317   8.560  0.0825 -0.0378 -0.0384
 1306ERGO    R117358  10.557   1.203   8.350  0.1951 -0.1300  0.0908
 1306ERGO    R217359  10.622   0.934   8.342 -0.1704 -0.2242  0.0276
 1306ERGO    R317360  10.506   0.946   8.097  0.1549  0.0814 -0.1183
 1306ERGO    R417361  10.733   0.763   8.063 -0.0549 -0.2186  0.0701
 1306ERGO    R517362  10.691   0.940   7.944  0.3455 -0.0870  0.1123
 1306ERGO    C117363  10.689   0.675   7.670  0.3176  0.0716 -0.0421
 1306ERGO    C217364  10.519   0.464   7.477 -0.2113 -0.1941 -0.0031
 1307ERGO   ROH17365  14.095   3.750   9.189 -0.1369  0.1331 -0.0700
 1307ERGO    R117366  14.041   3.765   8.912  0.2289  0.3168 -0.1378
 1307ERGO    R217367  14.237   3.731   8.720  0.3718 -0.2581  0.0866
 1307ERGO    R317368  14.065   3.543   8.625 -0.0978  0.2459 -0.1129
 1307ERGO    R417369  14.257   3.585   8.407  0.4605 -0.4883  0.1975
 1307ERGO    R517370  14.039   3.597   8.393  0.4981  0.2255 -0.1966
 1307ERGO    C117371  14.107   3.324   8.135  0.0713 -0.1491  0.0747
 1307ERGO    C217372  14.211   3.138   7.967 -0.1500 -0.0955 -0.0733
 1308ERGO   ROH17373  19.368   7.090   6.001 -0.1962 -0.0457  0.0808
 1308ERGO    R117374  19.335   7.225   6.248 -0.2612 -0.0140  0.0550
 1308ERGO    R217375  19.142   7.155   6.431 -0.2268 -0.0625  0.0775
 1308ERGO    R317376  19.353   7.139   6.601 -0.2270  0.0688  0.0677
 1308ERGO    R417377  19.116   7.149   6.775 -0.2001 -0.0784  0.0794
 1308ERGO    R517378  19.291   7.280   6.785 -0.2970  0.0170  0.0704
 1308ERGO    C117379  19.299   7.131   7.136 -0.1848  0.0356  0.0712
 1308ERGO    C217380  19.185   7.069   7.590  0.0758  0.0910  0.0777
 1309ERGO   ROH17381   0.639   7.830   6.362 -0.2347 -0.0856 -0.0198
 1309ERGO    R117382   0.556   8.061   6.503  0.2045  0.0868 -0.0270
 1309ERGO    R217383   0.364   8.052   6.702  0.0247  0.4861 -0.1775
 1309ERGO    R317384   0.558   8.175   6.849  0.2148 -0.0054  0.0047
 1309ERGO    R417385   0.342   8.120   7.040 -0.0695  0.4222 -0.1697
 1309ERGO    R517386   0.437   8.313   7.003  0.4125  0.2298 -0.0407
 1309ERGO    C117387   0.511   8.274   7.375  0.0541 -0.0764  0.0060
 1309ERGO    C217388   0.447   8.495   7.697  0.1201 -0.1387 -0.1970
 1310ERGO   ROH17389   5.035   3.287   5.987  0.0405 -0.3265 -0.3839
 1310ERGO    R117390   5.102   3.228   6.256  0.2253 -0.0091 -0.3544
 1310ERGO    R217391   4.968   3.037   6.404  0.2047  0.2905  0.0259
 1310ERGO    R317392   5.218   2.937   6.441  0.1621  0.1524 -0.0528
 1310ERGO    R417393   5.055   2.810   6.649  0.2027  0.4624  0.1872
 1310ERGO    R517394   5.240   2.921   6.679  0.3070  0.3666 -0.0458
 1310ERGO    C117395   5.340   2.584   6.828  0.1615  0.4329  0.2071
 1310ERGO    C217396   5.337   2.389   7.122 -0.0426  0.0302 -0.2025
 1311ERGO   ROH17397  13.989  12.782   5.543  0.1452 -0.2151 -0.0993
 1311ERGO    R117398  13.857  12.596   5.711 -0.0363 -0.0799 -0.0919
 1311ERGO    R217399  13.993  12.415   5.869 -0.2127 -0.2299 -0.1170
 1311ERGO    R317400  13.843  12.524   6.067 -0.0757 -0.0799 -0.0922
 1311ERGO    R417401  13.949  12.276   6.182  0.0639  0.0365  0.0467
 1311ERGO    R517402  13.740  12.337   6.174  0.0418 -0.0098  0.1585
 1311ERGO    C117403  13.782  12.299   6.551  0.3536  0.3324  0.1653
 1311ERGO    C217404  13.853  12.179   6.802 -0.1137  0.1173 -0.0891
 1312ERGO   ROH17405  15.236   8.673   5.944 -0.2876  0.0244 -0.0195
 1312ERGO    R117406  15.233   8.815   6.188 -0.2132 -0.0666  0.0357
 1312ERGO    R217407  15.343   8.714   6.420 -0.0420 -0.1061 -0.0602
 1312ERGO    R317408  15.480   8.950   6.419 -0.1417 -0.0484 -0.0508
 1312ERGO    R417409  15.503   8.851   6.695  0.0206 -0.1244 -0.0881
 1312ERGO    R517410  15.431   9.047   6.633 -0.0902 -0.1346  0.0015
 1312ERGO    C117411  15.724   9.151   6.854 -0.0365 -0.0810 -0.0956
 1312ERGO    C217412  15.941   9.264   7.126  0.2953  0.2044 -0.2448
 1313ERGO   ROH17413  16.207   1.335   5.378 -0.0129  0.0244  0.1007
 1313ERGO    R117414  16.219   1.415   5.649 -0.0856  0.2471  0.0409
 1313ERGO    R217415  16.062   1.618   5.751 -0.4155  0.0622 -0.0750
 1313ERGO    R317416  15.989   1.428   5.931 -0.0494  0.0610  0.0797
 1313ERGO    R417417  15.968   1.682   6.078 -0.3810  0.1273 -0.0781
 1313ERGO    R517418  16.080   1.505   6.139 -0.0813  0.3377 -0.0061
 1313ERGO    C117419  15.844   1.540   6.437 -0.0170  0.1641  0.0653
 1313ERGO    C217420  15.556   1.334   6.709 -0.1792 -0.0487  0.0910
 1314ERGO   ROH17421  18.555   8.262   5.974 -0.0219 -0.2562 -0.0510
 1314ERGO    R117422  18.482   8.210   6.243 -0.3430 -0.2423 -0.1319
 1314ERGO    R217423  18.282   8.031   6.310 -0.1064 -0.6063 -0.3491
 1314ERGO    R317424  18.478   7.921   6.464 -0.1132 -0.1296  0.0209
 1314ERGO    R417425  18.227   7.834   6.589 -0.1534 -0.7802 -0.4792
 1314ERGO    R517426  18.393   7.936   6.688 -0.5921 -0.3639 -0.1357
 1314ERGO    C117427  18.379   7.617   6.896 -0.1871 -0.4339 -0.2077
 1314ERGO    C217428  18.250   7.385   7.142  0.2253 -0.0619 -0.4706
 1315ERGO   ROH17429  18.773   6.361   5.745  0.0419 -0.2080 -0.2537
 1315ERGO    R117430  18.739   6.228   5.993  0.0233 -0.2129 -0.2580
 1315ERGO    R217431  18.942   6.206   6.179  0.0368 -0.2784 -0.2774
 1315ERGO    R317432  18.757   6.317   6.345  0.0763 -0.2319 -0.2541
 1315ERGO    R417433  18.936   6.167   6.522  0.0232 -0.3422 -0.2847
 1315ERGO    R517434  18.719   6.150   6.512  0.0088 -0.2537 -0.2868
 1315ERGO    C117435  18.760   6.248   6.878  0.0520 -0.3357 -0.2672
 1315ERGO    C217436  18.828   6.157   7.119 -0.0615  0.3393  0.2593
 1316ERGO   ROH17437   1.403   3.036   5.940  0.1118 -0.0200 -0.0569
 1316ERGO    R117438   1.473   3.015   6.214 -0.0259 -0.0263 -0.0206
 1316ERGO    R217439   1.507   3.237   6.375  0.0408 -0.0221 -0.0346
 1316ERGO    R317440   1.325   3.110   6.532 -0.1141  0.1138 -0.1032
 1316ERGO    R417441   1.441   3.317   6.705  0.0731 -0.0656 -0.0181
 1316ERGO    R517442   1.428   3.103   6.749 -0.1542 -0.0652 -0.0907
 1316ERGO    C117443   1.232   3.244   7.044 -0.0536  0.0366 -0.0730
 1316ERGO    C217444   1.227   3.162   7.406 -0.1172  0.0169  0.2095
 1317ERGO   ROH17445  15.684  10.039   8.866 -0.2711 -0.0778  0.0301
 1317ERGO    R117446  15.855   9.818   8.819 -0.2857 -0.1218  0.1737
 1317ERGO    R217447  15.764   9.578   8.718 -0.2526 -0.0792  0.0281
 1317ERGO    R317448  15.957   9.619   8.532 -0.0385 -0.0967  0.2436
 1317ERGO    R417449  15.850   9.354   8.469 -0.2419  0.0690 -0.1019
 1317ERGO    R517450  16.059   9.405   8.503 -0.2232 -0.1682  0.1385
 1317ERGO    C117451  16.082   9.263   8.149 -0.0346  0.1389  0.0247
 1317ERGO    C217452  16.198   9.260   7.890 -0.1072 -0.3328  0.1337
 1318ERGO   ROH17453  11.308  11.741   8.770  0.0939 -0.1682  0.1850
 1318ERGO    R117454  11.457  11.926   8.616  0.1894 -0.2496  0.1767
 1318ERGO    R217455  11.621  11.848   8.407  0.0473 -0.3325  0.0877
 1318ERGO    R317456  11.472  12.027   8.267  0.1347 -0.1722  0.1979
 1318ERGO    R417457  11.686  11.949   8.083  0.1206 -0.1132  0.1696
 1318ERGO    R517458  11.633  12.152   8.140  0.1917 -0.1386  0.3101
 1318ERGO    C117459  11.585  12.175   7.762  0.2453  0.1649  0.3208
 1318ERGO    C217460  11.460  12.432   7.460 -0.4252 -0.1732 -0.2967
 1319ERGO   ROH17461  12.024  16.894   5.510  0.3574  0.0056  0.0603
 1319ERGO    R117462  12.161  16.894   5.758  0.1843 -0.0278  0.1575
 1319ERGO    R217463  12.074  17.041   5.975  0.0576 -0.0208  0.1035
 1319ERGO    R317464  12.085  16.801   6.101 -0.0732 -0.0274  0.1032
 1319ERGO    R417465  12.101  16.999   6.317 -0.2379 -0.0351  0.1270
 1319ERGO    R517466  12.240  16.835   6.281 -0.2213 -0.0480  0.2379
 1319ERGO    C117467  12.127  16.748   6.634 -0.5329 -0.0494  0.1402
 1319ERGO    C217468  12.185  16.736   6.905 -0.1879 -0.2920  0.1758
 1320ERGO   ROH17469   1.516   3.260   9.685  0.0265  0.1330  0.0991
 1320ERGO    R117470   1.582   3.173   9.424 -0.1250  0.0199  0.0967
 1320ERGO    R217471   1.415   3.211   9.207 -0.1615  0.1121  0.1402
 1320ERGO    R317472   1.634   3.329   9.098 -0.0947 -0.0932  0.0472
 1320ERGO    R417473   1.448   3.296   8.874 -0.1971  0.0291  0.1151
 1320ERGO    R517474   1.655   3.227   8.882 -0.2524 -0.1471  0.0568
 1320ERGO    C117475   1.674   3.456   8.578 -0.1551 -0.2120  0.0132
 1320ERGO    C217476   1.554   3.351   8.128  0.2795  0.2212 -0.3531
 1321ERGO   ROH17477  13.200   2.347   5.862 -0.3323 -0.1395  0.0235
 1321ERGO    R117478  13.109   2.299   6.126 -0.3010 -0.0616  0.0471
 1321ERGO    R217479  13.263   2.170   6.315 -0.3571 -0.1808  0.0017
 1321ERGO    R317480  13.211   2.393   6.462 -0.1389 -0.1399  0.0229
 1321ERGO    R417481  13.249   2.179   6.660 -0.6658 -0.2873 -0.0036
 1321ERGO    R517482  13.078   2.314   6.645 -0.4468  0.0014 -0.1266
 1321ERGO    C117483  13.192   2.394   6.999 -0.6406 -0.3110  0.0134
 1321ERGO    C217484  13.524   2.344   7.189  0.4597 -0.1051  0.1046
 1322ERGO   ROH17485   3.858  14.687   9.222 -0.1708 -0.0430  0.2245
 1322ERGO    R117486   3.893  14.682   8.941  0.1191 -0.0391  0.2580
 1322ERGO    R217487   3.888  14.448   8.795  0.0148 -0.0131  0.2227
 1322ERGO    R317488   3.697  14.579   8.651  0.3052  0.2184  0.0347
 1322ERGO    R417489   3.752  14.334   8.498 -0.2050 -0.1219  0.3613
 1322ERGO    R517490   3.758  14.540   8.423  0.2488 -0.2205  0.0862
 1322ERGO    C117491   3.495  14.391   8.190 -0.0604  0.0320  0.2655
 1322ERGO    C217492   3.435  14.190   7.919 -0.1681 -0.1854  0.0823
 1323ERGO   ROH17493  15.961   7.022   8.987 -0.2809 -0.2664  0.0222
 1323ERGO    R117494  16.064   6.887   8.761 -0.2169 -0.1479 -0.0202
 1323ERGO    R217495  15.956   6.916   8.508 -0.1369 -0.0051 -0.0383
 1323ERGO    R317496  16.212   6.980   8.442 -0.1130  0.0198  0.0754
 1323ERGO    R417497  16.073   6.957   8.185  0.0178 -0.0573  0.0097
 1323ERGO    R517498  16.256   6.854   8.243  0.0059 -0.0171  0.1234
 1323ERGO    C117499  16.380   7.041   7.935  0.1306 -0.0643  0.1443
 1323ERGO    C217500  16.670   7.154   7.829  0.0073 -0.3803 -0.2931
 1324ERGO   ROH17501   3.033   6.548   6.380  0.2385  0.1656 -0.2395
 1324ERGO    R117502   3.213   6.665   6.565  0.1736  0.1521 -0.1683
 1324ERGO    R217503   3.232   6.939   6.601  0.0484  0.1414 -0.0283
 1324ERGO    R317504   3.187   6.875   6.862  0.0612 -0.0094 -0.0615
 1324ERGO    R417505   3.414   7.060   6.869 -0.0265  0.0998  0.0427
 1324ERGO    R517506   3.406   6.862   6.958  0.0635  0.0489 -0.0549
 1324ERGO    C117507   3.478   7.071   7.269 -0.0581 -0.0661  0.0530
 1324ERGO    C217508   3.484   7.094   7.626 -0.2417 -0.1494  0.3285
 1325W        W17509   7.953   7.259   1.954 -0.0792 -0.1914 -0.1413
 1326W        W17510  16.425  10.995  14.923  0.1322 -0.0484  0.2752
 1327W        W17511  11.184  10.317   0.393  0.1224  0.1352 -0.0449
 1328W        W17512  16.122   5.830   2.045 -0.1864  0.1809  0.3361
 1329W        W17513   1.343   6.986   3.409 -0.0376 -0.0150 -0.0673
 1330W        W17514   0.115  17.609   4.038  0.0706  0.1437 -0.1906
 1331W        W17515  15.064  15.846   2.228 -0.3230  0.2320 -0.0523
 1332W        W17516  13.335   8.309   4.188  0.2084 -0.0662  0.1372
 1333W        W17517  17.531  13.662   9.616  0.3454  0.1034 -0.1745
 1334W        W17518  15.327   5.463   4.615  0.1089 -0.2175  0.1366
 1335W        W17519  17.167  10.265   1.054  0.2978 -0.2007  0.4723
 1336W        W17520   8.518   6.211   3.724  0.1683 -0.0237  0.0348
 1337W        W17521   7.677  10.771   0.066  0.1119  0.0859  0.0335
 1338W        W17522  15.780  12.467  13.341  0.0001  0.0262  0.1789
 1339W        W17523  18.726  14.626   9.221 -0.0761 -0.2556  0.1462
 1340W        W17524  15.280  13.262   1.399 -0.1759 -0.1799  0.2982
 1341W        W17525   5.727   3.752  11.648 -0.3057 -0.2070  0.1357
 1342W        W17526   7.971   3.968   2.620  0.0852 -0.0261 -0.3687
 1343W        W17527  18.975   3.494   0.667  0.0695 -0.2172 -0.2020
 1344W        W17528  18.748  10.442  12.663  0.0933  0.0216  0.1176
 1345W        W17529   2.107   3.802  12.380  0.1299 -0.0086 -0.0741
 1346W        W17530  16.746   2.838   1.992 -0.0740 -0.1534  0.0382
 1347W        W17531   0.188  18.498  11.367  0.2118  0.1705 -0.0459
 1348W        W17532  13.535  17.623  10.443  0.0526 -0.1844 -0.0660
 1349W        W17533   5.469  10.320  12.266  0.2327 -0.0182 -0.1737
 1350W        W17534  13.792  14.868   3.136 -0.0677 -0.0011 -0.2341
 1351W        W17535   6.170  14.306  11.781  0.2145  0.1094  0.3493
 1352W        W17536   3.253  11.556   2.284  0.3522 -0.2066  0.1757
 1353W        W17537  17.355   3.418   2.800  0.0525 -0.3526 -0.0734
 1354W        W17538   0.641   4.831   3.892 -0.2057 -0.1145 -0.0163
 1355W        W17539  16.165   7.153  12.009 -0.0452 -0.0123 -0.0504
 1356W        W17540  18.538   0.883  10.962 -0.1481 -0.0221  0.2153
 1357W        W17541   3.761  17.754  13.559 -0.1904 -0.0190 -0.3068
 1358W        W17542   4.396   8.796  13.938 -0.3870 -0.0009 -0.2494
 1359W        W17543   0.531   1.378  11.274 -0.0605 -0.1096 -0.0164
 1360W        W17544  16.384  16.747   2.441  0.3463 -0.1064  0.3115
 1361W        W17545   3.185   0.863  12.408  0.2969  0.1527 -0.0034
 1362W        W17546   7.647   5.517   2.043  0.0980 -0.1012  0.1747
 1363W        W17547   2.686  18.644   3.579  0.0770 -0.0131 -0.0366
 1364W        W17548  14.848   5.022  14.283  0.2735 -0.2555  0.1255
 1365W        W17549  11.499  15.823   1.021 -0.2278  0.0907 -0.1655
 1366W        W17550  16.963   1.886  10.370  0.0989 -0.1164 -0.0158
 1367W        W17551  17.069  16.543   4.023 -0.0473  0.3612  0.2102
 1368W        W17552  16.805  15.953   0.298  0.0649 -0.2344  0.1147
 1369W        W17553  16.914  19.053   0.178  0.0230 -0.0960  0.1235
 1370W        W17554   4.744   2.769   4.602  0.2857  0.1490  0.1266
 1371W        W17555   6.850   7.296  11.581  0.2194 -0.0794  0.2315
 1372W        W17556   4.977   2.662  11.344 -0.2243  0.2410  0.0153
 1373W        W17557   3.402  11.773  11.333 -0.0665 -0.1236  0.0756
 1374W        W17558  17.134   7.094   9.466 -0.2821  0.0882 -0.0527
 1375W        W17559  17.726  13.871  11.971  0.1331  0.1140  0.1871
 1376W        W17560   8.505  16.783  11.539  0.1642  0.2278 -0.0216
 1377W        W17561  19.178   4.788   3.441  0.1568  0.1798 -0.1790
 1378W        W17562   5.026   3.161   0.219 -0.0539  0.0423 -0.2186
 1379W        W17563   9.517   9.753   0.928 -0.0820 -0.1419  0.1053
 1380W        W17564   9.615   1.737  11.112 -0.1239  0.0797  0.1432
 1381W        W17565   6.006  19.240   2.483 -0.0443 -0.0657 -0.1364
 1382W        W17566  13.050   7.782   3.876  0.1784  0.3598  0.1168
 1383W        W17567   6.002   8.109  12.455  0.4038 -0.2564  0.0162
 1384W        W17568  16.028   9.969   1.649  0.0643 -0.1128 -0.0165
 1385W        W17569   8.903   3.885   0.471  0.0658  0.0264  0.3114
 1386W        W17570  11.954   9.148  13.212 -0.0007  0.3469 -0.1439
 1387W        W17571  11.050  17.560   2.869  0.1921  0.0238 -0.0338
 1388W        W17572  11.906   1.357   3.932 -0.2299 -0.1045  0.2386
 1389W        W17573   0.030   8.749  13.286 -0.0851  0.0578 -0.1398
 1390W        W17574  12.205  10.655  11.031  0.0970  0.2215 -0.1588
 1391W        W17575  15.330   0.091  11.559 -0.4705  0.5138  0.4077
 1392W        W17576   9.715  13.288  13.557 -0.3146  0.4011 -0.0808
 1393W        W17577  17.928  14.202   2.728  0.0103  0.1948  0.0165
 1394W        W17578  11.166  11.147   1.102  0.0757 -0.4192  0.4479
 1395W        W17579  11.379   1.258   3.387 -0.1887 -0.2037 -0.3615
 1396W        W17580  12.388   3.838  14.404 -0.0316 -0.0474  0.1896
 1397W        W17581   7.429  15.112   4.081 -0.1319  0.0880 -0.0440
 1398W        W17582  10.095  19.378   2.371  0.2082  0.0921  0.0560
 1399W        W17583  18.211  17.289   0.702  0.0860 -0.1078  0.4652
 1400W        W17584   2.861   1.086  12.049  0.1817  0.0072  0.4176
 1401W        W17585  16.317   9.343   2.213 -0.0130 -0.0203 -0.0889
 1402W        W17586   5.515   4.902   2.629  0.3809  0.3211 -0.2075
 1403W        W17587  16.081   1.525   2.524 -0.1338 -0.1127 -0.5223
 1404W        W17588  13.328   6.922   3.248  0.2438  0.1909 -0.1146
 1405W        W17589  18.566   9.930  12.580  0.0480 -0.1098  0.0342
 1406W        W17590   0.551  12.914   1.749  0.0425 -0.0611  0.3589
 1407W        W17591   3.582  11.835   0.318  0.1095  0.0536  0.1431
 1408W        W17592   9.516  18.238  11.754  0.2766  0.0764  0.1302
 1409W        W17593   2.534   0.923  10.561 -0.0987  0.1379  0.1578
 1410W        W17594   3.803   4.328  13.434  0.2075  0.0108  0.1655
 1411W        W17595   8.226  11.577   1.249  0.0399  0.1084  0.3519
 1412W        W17596  17.844   0.325  12.145 -0.2623 -0.3028 -0.0807
 1413W        W17597   7.345   4.674  11.119 -0.2489  0.0019 -0.0401
 1414W        W17598   5.690   3.559  14.949  0.1188 -0.1835  0.3752
 1415W        W17599  10.981   8.873   1.520 -0.2641  0.2178  0.0788
 1416W        W17600   8.685  18.112  11.256 -0.2661  0.1865 -0.1209
 1417W        W17601   8.716  16.247   2.246  0.0284  0.0781 -0.0170
 1418W        W17602   8.464  11.515   3.786 -0.3044 -0.2204 -0.0054
 1419W        W17603   9.334   0.145   0.728  0.0416 -0.3398  0.0344
 1420W        W17604  13.050  17.701   3.210 -0.0342 -0.2993 -0.2500
 1421W        W17605   8.064   0.575  11.839  0.1438 -0.2744 -0.3860
 1422W        W17606   8.540   2.216   1.501  0.0691 -0.2045 -0.0259
 1423W        W17607  12.512  14.483   0.796  0.0862 -0.2385  0.0559
 1424W        W17608  14.224  10.687  11.269  0.3946 -0.3433 -0.2182
 1425W        W17609   7.391  13.409   4.008 -0.0920 -0.1291 -0.0222
 1426W        W17610   9.759   1.679   2.161 -0.0035  0.3774  0.1915
 1427W        W17611   6.467   8.165  10.553  0.0111 -0.2747  0.1285
 1428W        W17612  15.160   5.061   3.514  0.2407 -0.0291 -0.0151
 1429W        W17613   0.096  16.265  11.749  0.1665  0.0363 -0.1628
 1430W        W17614   1.332   1.417  13.631 -0.2596  0.1041 -0.3288
 1431W        W17615  18.842  15.109   0.406 -0.1760  0.0007  0.1601
 1432W        W17616  15.016  13.093  10.830 -0.0597  0.1828  0.1989
 1433W        W17617  13.911  11.962   0.268 -0.3094 -0.4136  0.2191
 1434W        W17618   1.730   2.892   1.653 -0.1770 -0.0823 -0.1881
 1435W        W17619   9.358   8.376   0.845  0.0941 -0.1235  0.0204
 1436W        W17620   4.172  18.224   0.961  0.4405  0.1824  0.2141
 1437W        W17621   9.808  15.754   1.036 -0.0308  0.2516 -0.0129
 1438W        W17622   4.447  14.962  12.462 -0.1224  0.0772  0.4616
 1439W        W17623  16.532   1.687  12.469 -0.1507 -0.2063  0.0528
 1440W        W17624  16.657   2.718   0.551 -0.0729  0.5346  0.0254
 1441W        W17625   5.051   6.216   2.307 -0.0817  0.1418  0.3842
 1442W        W17626  14.597  14.547   1.375 -0.4239  0.1317  0.1160
 1443W        W17627  11.060  13.377   1.646  0.0064  0.0434  0.0725
 1444W        W17628  15.207   9.227  11.213 -0.1695  0.0359  0.0660
 1445W        W17629  10.979   4.797   3.860  0.0482 -0.1464  0.2792
 1446W        W17630  19.142  16.189   4.767  0.1317  0.1151  0.0217
 1447W        W17631  17.061   9.725   2.754  0.0525  0.0648 -0.0384
 1448W        W17632  17.457   0.979  10.794 -0.0048 -0.0526  0.1167
 1449W        W17633  10.772   0.477   1.886  0.0112  0.0955 -0.1089
 1450W        W17634   0.180   1.418   1.311  0.0966 -0.1714 -0.1420
 1451W        W17635   5.604  16.509  10.757  0.1591 -0.1405  0.0626
 1452W        W17636   7.863  11.597   0.617  0.1101  0.0272  0.0560
 1453W        W17637   7.280   0.382   1.376 -0.1003  0.2596  0.1397
 1454W        W17638   3.541   3.002   5.561  0.0073 -0.0545 -0.0369
 1455W        W17639  16.639  11.084   0.946 -0.1425  0.1513  0.0563
 1456W        W17640  14.752   6.429   1.111  0.0577  0.1505  0.5488
 1457W        W17641  14.954  19.359  11.156  0.3491 -0.2465  0.0740
 1458W        W17642  13.772  16.696   0.812  0.0874 -0.2931 -0.2458
 1459W        W17643  17.315  12.943   4.745  0.1435 -0.0790 -0.0298
 1460W        W17644  16.193   6.997   5.346  0.2131  0.1977  0.0263
 1461W        W17645  12.156  14.494   4.545  0.1834 -0.1519 -0.0254
 1462W        W17646  17.795   1.170   2.048 -0.1703  0.3835 -0.1150
 1463W        W17647   4.802  10.232  13.116  0.2336 -0.0681 -0.0802
 1464W        W17648  15.524   8.950  13.444 -0.1355 -0.0259  0.3683
 1465W        W17649  12.350   7.546   2.320 -0.0122  0.0951  0.0772
 1466W        W17650  12.255  13.960   3.832  0.1916 -0.0019 -0.3178
 1467W        W17651   3.810  14.731   1.606 -0.1673 -0.1260 -0.2689
 1468W        W17652  14.943   5.104  11.981 -0.0280  0.1223  0.0997
 1469W        W17653   5.114   1.789   4.503  0.1335 -0.1954 -0.1170
 1470W        W17654  17.235   7.702  13.112 -0.1448  0.1629  0.1733
 1471W        W17655  18.466  10.745  10.747 -0.0619 -0.0170  0.0575
 1472W        W17656   0.337  12.482   0.801  0.1310  0.2664 -0.2539
 1473W        W17657   3.489   2.747   1.545 -0.1483 -0.1068 -0.0654
 1474W        W17658  13.273   0.122   4.353 -0.1805  0.0711 -0.5023
 1475W        W17659  15.911  18.956   1.193 -0.0046  0.0762  0.0953
 1476W        W17660   9.974  13.627  14.109 -0.1009  0.0430 -0.1203
 1477W        W17661  16.148  13.640   0.639 -0.1600  0.0615  0.0486
 1478W        W17662  11.431  16.055  13.468 -0.2045  0.1073  0.0109
 1479W        W17663  16.762  13.955  12.218 -0.4755  0.1283  0.0122
 1480W        W17664   6.029   0.344   2.182 -0.0832 -0.1976 -0.1141
 1481W        W17665   9.558  10.983   1.761  0.2448  0.2139 -0.4558
 1482W        W17666  15.640   0.167   3.409  0.0173 -0.0074  0.2722
 1483W        W17667  18.607   7.385  12.122  0.3899  0.1800 -0.2097
 1484W        W17668   5.680  16.450   4.264 -0.0682 -0.1636 -0.2443
 1485W        W17669  14.845  11.778   0.525 -0.1524  0.1246  0.2058
 1486W        W17670  10.658  11.828   0.137 -0.0981 -0.2968 -0.0289
 1487W        W17671  11.710   8.923  13.583  0.0414 -0.0279  0.3448
 1488W        W17672  16.184   9.842   4.286  0.0160 -0.0747 -0.0164
 1489W        W17673  15.148   4.159  12.948 -0.0008  0.1917 -0.3068
 1490W        W17674   5.883  15.042  12.826  0.0128  0.2611  0.0872
 1491W        W17675   8.286  16.005   3.626 -0.0728 -0.4304 -0.1858
 1492W        W17676   3.638   2.284  10.801 -0.0464 -0.0657 -0.0822
 1493W        W17677  15.155  15.313   2.256 -0.1205 -0.0509 -0.0005
 1494W        W17678  14.253   1.706   2.845 -0.1822 -0.0102 -0.1067
 1495W        W17679  13.050  16.823   3.304 -0.0376  0.1042 -0.0691
 1496W        W17680  12.731  17.946  11.403 -0.2140 -0.0989 -0.1455
 1497W        W17681  14.081  18.640   1.784 -0.2907  0.0325 -0.1014
 1498W        W17682  15.470  17.996  12.408 -0.0294  0.4694 -0.1045
 1499W        W17683   4.100   1.106  12.620  0.1686  0.0376  0.0650
 1500W        W17684   7.598   5.600   2.905  0.1440 -0.0104 -0.5434
 1501W        W17685  10.745   4.335   0.747  0.0703 -0.3616  0.3765
 1502W        W17686  17.974  16.418   3.612 -0.1154  0.1575 -0.1261
 1503W        W17687   8.336   3.731  12.492  0.0324  0.1753  0.5361
 1504W        W17688  10.957   4.523   4.334  0.4020  0.0889 -0.0458
 1505W        W17689   8.538  17.458   9.677 -0.2610 -0.0961  0.2435
 1506W        W17690  18.619   3.805   2.557 -0.0689 -0.3166  0.1462
 1507W        W17691  11.958  14.358   9.452 -0.3132  0.3381 -0.0829
 1508W        W17692   7.024   5.010  10.966 -0.1784  0.0476  0.1141
 1509W        W17693  13.649   2.765   1.417 -0.1528  0.0256  0.0598
 1510W        W17694   0.437   2.129  12.125  0.1389 -0.1591 -0.0069
 1511W        W17695  13.968   8.264  12.187  0.0523 -0.1296 -0.3721
 1512W        W17696   4.940  11.910   3.348 -0.1196 -0.3460  0.0467
 1513W        W17697   8.417  14.912  12.382  0.0008 -0.3591 -0.1461
 1514W        W17698  14.154  17.706   4.566  0.1278 -0.2720 -0.1691
 1515W        W17699  18.183   7.428   4.432  0.3700 -0.2366 -0.2089
 1516W        W17700   3.189  18.529   3.499  0.0269  0.0142 -0.1336
 1517W        W17701  15.851   2.718   2.658 -0.1134  0.1813 -0.0468
 1518W        W17702   2.904  10.063  13.832 -0.2206  0.2950  0.0326
 1519W        W17703  16.190   3.637   3.695  0.1984 -0.0697  0.0707
 1520W        W17704   4.054  12.604   2.925 -0.0608  0.0666  0.0569
 1521W        W17705   1.621   1.569   1.338  0.2754  0.2043  0.0517
 1522W        W17706  15.645  16.305  13.901  0.0924  0.0360  0.1550
 1523W        W17707  14.840   6.589   1.586 -0.0625 -0.1542  0.1603
 1524W        W17708   9.832   0.192  13.656  0.2195 -0.2110  0.0190
 1525W        W17709   5.655  11.149   3.867 -0.0572  0.1197  0.1481
 1526W        W17710  11.491   8.279   1.026  0.2760  0.0582 -0.3547
 1527W        W17711  16.322  14.960   4.545  0.1383 -0.0848  0.1698
 1528W        W17712   7.161   5.471   4.102  0.0555 -0.2374 -0.0070
 1529W        W17713   7.342   3.037   1.005  0.0218  0.0906  0.0070
 1530W        W17714  14.183  17.639  12.048 -0.1284  0.4005 -0.1831
 1531W        W17715   1.843  10.587   0.839  0.1506 -0.0165  0.0067
 1532W        W17716   3.707  10.877   5.352 -0.0393  0.2429  0.1113
 1533W        W17717  11.347   2.835  11.445 -0.0219 -0.4019  0.1534
 1534W        W17718  13.298  19.141   0.805  0.2889  0.2519  0.1377
 1535W        W17719   2.759  13.053  10.924 -0.2530  0.3276 -0.1624
 1536W        W17720  11.575  16.777   1.218 -0.0552  0.1439  0.0370
 1537W        W17721  17.379   6.408  12.806 -0.3628 -0.1483  0.2973
 1538W        W17722   6.579  15.962  14.318  0.3920 -0.3902 -0.1300
 1539W        W17723  18.843   4.447   1.222 -0.5054  0.1313  0.2291
 1540W        W17724  11.161   6.549   0.897 -0.2256 -0.0287 -0.2272
 1541W        W17725   9.405   7.818   0.728 -0.1390  0.0658 -0.1737
 1542W        W17726  10.627  11.428  13.465  0.1776 -0.1173  0.1246
 1543W        W17727  10.334  14.548  12.836  0.0209 -0.0697  0.1246
 1544W        W17728   3.891  10.457   1.784 -0.5363 -0.0264 -0.2133
 1545W        W17729   5.806  16.421  13.360 -0.0639 -0.2080  0.2126
 1546W        W17730  15.013  13.219   4.278  0.0351  0.0335  0.0848
 1547W        W17731  15.299  11.463   0.786  0.1772 -0.0893  0.1216
 1548W        W17732  11.534  18.328   0.598 -0.1900  0.0101 -0.1805
 1549W        W17733  13.496   7.441   5.285  0.0136  0.0535 -0.0260
 1550W        W17734  10.374   1.987   1.514  0.3479  0.1821 -0.1289
 1551W        W17735   5.150   3.618  14.223  0.0474  0.2530  0.0359
 1552W        W17736   7.426  14.804  13.638  0.0654  0.0224 -0.1096
 1553W        W17737   6.501  19.333  12.238  0.0639 -0.0812  0.0016
 1554W        W17738  13.404  14.976   3.772 -0.0746  0.1503 -0.0800
 1555W        W17739  18.351   6.309  14.526  0.2037 -0.0504 -0.1166
 1556W        W17740  16.768  14.195  14.314 -0.3135  0.3019  0.0246
 1557W        W17741  15.061   2.443   2.774  0.1991  0.1488  0.2217
 1558W        W17742  11.399   8.048   2.536 -0.0498  0.2728 -0.0298
 1559W        W17743   9.036  15.957  14.673  0.1281  0.1247 -0.1955
 1560W        W17744   2.338  13.814   2.422  0.2629 -0.1577  0.0067
 1561W        W17745   1.249   0.592   3.554 -0.1063  0.2895  0.1776
 1562W        W17746   7.806   8.281   1.329 -0.2979 -0.3219  0.2125
 1563W        W17747   2.897  17.722  11.258  0.2412 -0.0729  0.1910
 1564W        W17748   3.032   9.872  11.953 -0.0524  0.0187 -0.2796
 1565W        W17749  13.163   4.113   9.146  0.0834  0.0542  0.0761
 1566W        W17750   9.148  12.751  14.623 -0.2761  0.1592 -0.0876
 1567W        W17751  12.446  15.999   3.195 -0.2252  0.3676  0.2211
 1568W        W17752   2.516  16.374   2.142  0.0851  0.1378  0.1389
 1569W        W17753  16.572  10.014  14.160  0.2008 -0.2945  0.0815
 1570W        W17754  11.941   4.569  12.806 -0.1112  0.1572  0.0562
 1571W        W17755  17.459  18.655   2.162 -0.1647 -0.1003 -0.2201
 1572W        W17756  17.042   8.086  10.952 -0.5820 -0.0264  0.0687
 1573W        W17757  15.897   8.152  14.871 -0.2245  0.0684  0.0121
 1574W        W17758  11.860  13.525   4.628 -0.0894  0.3298 -0.1409
 1575W        W17759   9.039  15.809   1.785 -0.0469  0.1306 -0.0586
 1576W        W17760   6.156  12.051  14.346 -0.2635  0.2250  0.0644
 1577W        W17761  12.007   2.334  14.144  0.1630  0.0753 -0.2800
 1578W        W17762  18.206   6.141  10.752 -0.5087  0.1937 -0.1672
 1579W        W17763   2.346   4.313  12.413  0.1132  0.0552  0.2082
 1580W        W17764   1.608  15.629  10.285 -0.1565 -0.0109  0.1172
 1581W        W17765   1.275  16.083   1.732 -0.1574 -0.0688 -0.1490
 1582W        W17766  18.234  14.638   2.857  0.0981  0.0949  0.0350
 1583W        W17767  10.085  13.299   1.411 -0.0192  0.0445 -0.0237
 1584W        W17768  13.998  13.900   4.437  0.3832 -0.4214 -0.2613
 1585W        W17769  18.187  13.764  14.004  0.1397  0.0588 -0.3612
 1586W        W17770  18.043   6.490  11.223  0.1039 -0.1311  0.2217
 1587W        W17771  13.935  13.633   0.348  0.0954 -0.0237  0.0114
 1588W        W17772   1.255   3.493  12.275 -0.1408  0.0467 -0.2486
 1589W        W17773   8.821  11.213   3.117  0.1886 -0.2898 -0.1471
 1590W        W17774   5.244   9.912   2.963 -0.1347 -0.0389 -0.1761
 1591W        W17775   7.270  10.654  14.679  0.1171  0.0695 -0.2164
 1592W        W17776  10.324  13.543   4.803 -0.2008  0.2139  0.0966
 1593W        W17777   3.089  13.991   3.613 -0.1275  0.0896 -0.0404
 1594W        W17778  15.338  12.675   0.710 -0.0106  0.4204  0.2793
 1595W        W17779  14.515  16.746  13.431  0.2469 -0.0079 -0.2541
 1596W        W17780  15.124   0.582  14.065 -0.1343 -0.1152  0.1630
 1597W        W17781  17.761  18.201   4.627 -0.1229  0.3232  0.2475
 1598W        W17782  17.277   0.459   3.339 -0.2483  0.0926  0.2469
 1599W        W17783  16.167   7.393   1.666 -0.2393 -0.0880 -0.2154
 1600W        W17784  11.466  15.575  14.760 -0.0826  0.1808  0.1959
 1601W        W17785   6.272  17.946  14.244  0.0884  0.1559  0.0917
 1602W        W17786   9.217   6.936  12.604  0.1740 -0.1534 -0.1301
 1603W        W17787   3.490   6.324   3.795 -0.4251  0.3383  0.2031
 1604W        W17788  13.411  16.962  11.789  0.2214  0.0272 -0.0590
 1605W        W17789   2.472   4.090  11.592  0.0568 -0.2241 -0.2381
 1606W        W17790   6.826   7.068   0.852  0.1281 -0.1076  0.0920
 1607W        W17791  13.705   5.656  10.327 -0.1147 -0.0356 -0.0046
 1608W        W17792   7.403   5.192   0.361  0.0606  0.0539  0.1419
 1609W        W17793  18.577  18.509  13.049  0.0238  0.1727  0.2207
 1610W        W17794   3.515  11.455   4.516  0.2470  0.3464  0.1889
 1611W        W17795  18.507  12.086  11.569  0.0002 -0.2433 -0.1479
 1612W        W17796   4.567  16.343  10.402 -0.0693  0.3630  0.0537
 1613W        W17797  11.053   6.670  12.966 -0.2300  0.0409  0.3663
 1614W        W17798   7.331  13.289  13.751 -0.0982 -0.3198  0.0317
 1615W        W17799  19.318  17.236  10.247  0.1723 -0.0734  0.1418
 1616W        W17800   4.065   8.479   4.027  0.0431 -0.0528 -0.1828
 1617W        W17801  16.595   4.959  13.358 -0.0580 -0.0481 -0.0966
 1618W        W17802  18.675  15.885  12.392 -0.4427 -0.0734 -0.1151
 1619W        W17803  11.364  19.074   3.199 -0.0269  0.3212  0.1414
 1620W        W17804   3.055  13.820  12.009 -0.0420 -0.1537 -0.2625
 1621W        W17805  16.516   3.739  11.015 -0.0321 -0.5322 -0.1099
 1622W        W17806   0.271   6.643   5.304 -0.3748 -0.1379  0.0575
 1623W        W17807   2.554  19.371  13.228  0.1190 -0.1380 -0.1684
 1624W        W17808   9.604   4.875  10.784 -0.0438 -0.6189 -0.1421
 1625W        W17809   2.507  16.239  12.581 -0.0406 -0.1243 -0.0186
 1626W        W17810   9.790  11.416  13.660  0.1328  0.1298 -0.0060
 1627W        W17811  16.003   3.638   2.551  0.0917 -0.2115  0.4695
 1628W        W17812  19.254   2.245   2.488 -0.2542 -0.0033  0.1502
 1629W        W17813   1.096   7.183   4.974 -0.1414  0.1477  0.0213
 1630W        W17814   8.778  16.163  10.704 -0.1477  0.0716  0.1915
 1631W        W17815   7.916   3.648  14.368  0.1899 -0.1542 -0.3375
 1632W        W17816   6.868  17.062   9.935  0.0272  0.1279  0.1021
 1633W        W17817  14.425   2.653   2.617 -0.1099  0.3483 -0.0780
 1634W        W17818  17.723  12.374   4.130 -0.0373  0.0518  0.2412
 1635W        W17819   4.722   0.962   2.887  0.0585  0.3412  0.0166
 1636W        W17820   2.161  15.131  12.770  0.1280  0.1138  0.1418
 1637W        W17821  16.918   3.044   0.020  0.0746  0.2985 -0.2335
 1638W        W17822  13.093   0.396   1.574  0.3518  0.5176  0.1514
 1639W        W17823   2.106  15.017  14.906  0.2030  0.0768  0.0050
 1640W        W17824   6.976   6.644   4.594  0.2389 -0.1387  0.0438
 1641W        W17825  11.586   0.322   0.688 -0.0931  0.1704  0.2902
 1642W        W17826  19.199   8.026   5.002  0.2740 -0.1764  0.0813
 1643W        W17827  19.109  12.249   2.305  0.0097 -0.1547 -0.3759
 1644W        W17828  13.841   6.508  13.618 -0.0362 -0.2573  0.3145
 1645W        W17829   4.940   2.194   2.981  0.2214 -0.3759 -0.0016
 1646W        W17830   9.125  10.059   1.914 -0.0479  0.1462 -0.0938
 1647W        W17831   2.945   3.144   0.657 -0.2205 -0.0160 -0.3125
 1648W        W17832   5.046  10.270   4.085 -0.1378  0.0008 -0.1494
 1649W        W17833  11.787  11.724   5.146  0.3664  0.0460  0.2925
 1650W        W17834  18.950   2.606  13.063  0.0875 -0.1798  0.0678
 1651W        W17835   0.895  15.396   3.309  0.2412  0.2360  0.3052
 1652W        W17836   5.773  14.637   0.185 -0.0425 -0.0935  0.3179
 1653W        W17837   5.205   5.426  11.981  0.1780  0.1811  0.0012
 1654W        W17838   9.506   4.841   1.886  0.0461 -0.0206  0.0943
 1655W        W17839   3.747  17.399   3.817  0.0087  0.0815 -0.2673
 1656W        W17840   7.231   1.813  12.625 -0.0799  0.1281  0.0335
 1657W        W17841  12.871  12.543  14.591 -0.2642  0.2300 -0.0716
 1658W        W17842   3.842  11.627  13.040  0.2024 -0.0524  0.1697
 1659W        W17843  13.536   1.782   0.655 -0.1578  0.2015  0.0879
 1660W        W17844  15.829  13.124  12.119  0.1234  0.2258 -0.0356
 1661W        W17845  12.461   5.411  13.825 -0.0599  0.0286  0.0022
 1662W        W17846   6.400   8.860   5.065 -0.2443 -0.2289 -0.1564
 1663W        W17847  10.128  10.359   0.579 -0.1218  0.2754 -0.1790
 1664W        W17848  12.612  11.939   3.989 -0.2355  0.1305 -0.2065
 1665W        W17849   8.920   5.704   4.390 -0.4255 -0.0316 -0.3910
 1666W        W17850  16.276  16.803   1.325 -0.1640  0.3595 -0.0179
 1667W        W17851   3.461   7.306  10.079  0.2133 -0.2368  0.0705
 1668W        W17852  17.541  10.044   1.355  0.0229 -0.0317 -0.1430
 1669W        W17853  10.624  14.517  11.159 -0.1687 -0.0621  0.0961
 1670W        W17854  13.109   2.790  13.061 -0.0243  0.6639  0.0666
 1671W        W17855   0.298  14.133  10.614  0.1372  0.2342  0.0084
 1672W        W17856   7.878  16.955   9.117  0.1934  0.0016 -0.2357
 1673W        W17857   3.070   6.954   3.966  0.1146 -0.1247  0.1083
 1674W        W17858  15.434  19.297  12.876  0.0545 -0.1886 -0.3002
 1675W        W17859  15.062   1.344  13.595  0.1926 -0.0433  0.0694
 1676W        W17860   5.682  14.414   5.246 -0.0619 -0.1785  0.0243
 1677W        W17861  10.711   0.928  10.705  0.4515  0.0007 -0.1317
 1678W        W17862  15.762  13.162   0.539 -0.2337 -0.0046 -0.0777
 1679W        W17863  12.995  12.877  14.199 -0.1338  0.1733  0.0044
 1680W        W17864  16.969   5.262  14.893 -0.0249  0.0468  0.1892
 1681W        W17865   4.350   7.011   2.479  0.0599 -0.1386 -0.0948
 1682W        W17866   3.453  13.364   2.949 -0.0078  0.0168 -0.0021
 1683W        W17867  18.190  11.894   3.747 -0.1394  0.3041  0.2913
 1684W        W17868   5.878  15.187  11.413  0.4856  0.0147 -0.0044
 1685W        W17869   7.347  12.418   0.943 -0.0743 -0.4758  0.3264
 1686W        W17870  12.771   7.198  12.383 -0.1973 -0.2394  0.0596
 1687W        W17871  13.603  19.324  12.306  0.1297  0.0555 -0.1829
 1688W        W17872   2.028  14.497  14.281  0.1666 -0.0216 -0.1011
 1689W        W17873   4.422  16.033  14.159  0.1791  0.2050 -0.2569
 1690W        W17874  17.962  17.266   9.758  0.1972  0.3680  0.0139
 1691W        W17875  11.072  16.760   1.204 -0.0201  0.1715  0.0699
 1692W        W17876   4.108  18.075  10.116  0.1200  0.2005  0.2235
 1693W        W17877   9.114  17.434   1.412  0.0844  0.2249  0.1654
 1694W        W17878   7.402  12.563  11.235  0.0289 -0.1444  0.2348
 1695W        W17879   7.270   4.208   5.233 -0.2873  0.2203  0.4562
 1696W        W17880  13.630  18.063   0.544  0.2298 -0.2572  0.3308
 1697W        W17881   9.539  13.341   2.207 -0.0512  0.3609 -0.0586
 1698W        W17882   7.923  16.682  10.593 -0.0254  0.0450  0.1117
 1699W        W17883   2.477   1.038  11.734 -0.4812 -0.0692 -0.1884
 1700W        W17884   2.063  16.849   5.168 -0.1270 -0.3547  0.2569
 1701W        W17885   3.901  11.295   5.520 -0.3568  0.2519  0.1143
 1702W        W17886   0.137   5.553   9.621  0.1241  0.1660  0.5197
 1703W        W17887   5.535  14.705  12.012 -0.1333  0.1095 -0.5545
 1704W        W17888  13.679  11.481  12.819 -0.1393 -0.3108  0.2967
 1705W        W17889  19.019   2.582   2.992  0.1500 -0.2206 -0.1623
 1706W        W17890  14.895   2.002   2.015  0.0150 -0.0731 -0.1076
 1707W        W17891  14.787  17.074  14.485 -0.2363 -0.2793  0.2176
 1708W        W17892   8.911   3.211  11.917 -0.0091  0.2586  0.1375
 1709W        W17893   9.643   1.275  12.619  0.1924 -0.0343  0.4414
 1710W        W17894   4.482   8.341   5.677  0.4293 -0.0898  0.1552
 1711W        W17895   7.570   0.964  11.010  0.1987  0.0396 -0.2603
 1712W        W17896   6.580   1.551   5.525 -0.1256  0.2179  0.0597
 1713W        W17897  18.923  17.288  10.899  0.2540  0.0217  0.0054
 1714W        W17898   4.389  15.991   2.284  0.0909 -0.2383 -0.3605
 1715W        W17899   9.802   0.577  12.345 -0.3342  0.1082 -0.1840
 1716W        W17900   9.320  10.519   1.848 -0.2378 -0.2908  0.2582
 1717W        W17901   6.143   9.514   5.192 -0.0834 -0.2190  0.0374
 1718W        W17902   4.828  15.300   0.654  0.0185  0.1204  0.0239
 1719W        W17903   9.573  10.181   5.256 -0.3600 -0.2251 -0.0563
 1720W        W17904  14.841   6.130   4.355 -0.2640 -0.1197 -0.0973
 1721W        W17905   6.589  19.155   0.405  0.2788  0.0346 -0.0587
 1722W        W17906  10.669  18.015   4.795 -0.2111  0.0658  0.4995
 1723W        W17907  10.301  13.541  14.467 -0.0595  0.0898 -0.2249
 1724W        W17908  14.487  12.281  14.786  0.2146  0.3501  0.1276
 1725W        W17909   4.714  11.816  13.665 -0.0397 -0.2232  0.3662
 1726W        W17910  12.215  17.684  10.527  0.1311 -0.0135 -0.2900
 1727W        W17911   4.527  13.902   4.686 -0.4371  0.3044  0.1252
 1728W        W17912   6.051   8.320  13.055 -0.0527  0.0173  0.0040
 1729W        W17913  14.511   1.493   4.615 -0.1466 -0.0952  0.1998
 1730W        W17914  11.926   6.531   3.336 -0.1529  0.0075  0.3506
 1731W        W17915  11.511  12.439   0.991 -0.1253 -0.1098 -0.1207
 1732W        W17916  16.901  16.752  14.685 -0.1247 -0.2528  0.1267
 1733W        W17917  10.398  15.480   0.299  0.0961  0.0057  0.1366
 1734W        W17918  14.648  13.245   0.156 -0.2076 -0.3911  0.1235
 1735W        W17919   9.737   8.888   3.587 -0.3862  0.1550  0.5318
 1736W        W17920  16.490   8.322  11.261  0.1224 -0.1787 -0.1737
 1737W        W17921  16.273   9.311   3.034  0.0065  0.0172  0.3303
 1738W        W17922  12.353  16.981   1.444 -0.3135 -0.2614 -0.0848
 1739W        W17923  16.751  12.918   2.067  0.1551 -0.1727 -0.2290
 1740W        W17924   1.075   5.180   3.871 -0.3593 -0.3700 -0.0975
 1741W        W17925   9.131   6.163   2.376 -0.0940 -0.2328  0.0269
 1742W        W17926  16.806  12.019   2.626  0.2793  0.1454 -0.1817
 1743W        W17927   2.478  19.132  10.793  0.0201 -0.6775  0.3427
 1744W        W17928  14.726  17.640   0.567 -0.1921 -0.1106 -0.0556
 1745W        W17929  12.323   1.645  11.152 -0.2466  0.0767 -0.0339
 1746W        W17930   0.786   7.321  12.034  0.0244 -0.0370 -0.0201
 1747W        W17931  19.178  11.484  10.983 -0.0372 -0.0917  0.1126
 1748W        W17932   4.894   8.392   2.551 -0.2122 -0.0216  0.1208
 1749W        W17933  11.057  11.672  14.743  0.1561  0.1788  0.2520
 1750W        W17934  16.777   3.436  11.590  0.0770 -0.1429 -0.1594
 1751W        W17935   3.909   0.784   2.775 -0.0773 -0.0477 -0.1949
 1752W        W17936  18.966  14.386  13.142 -0.2087 -0.4646 -0.2418
 1753W        W17937  16.603   0.718  13.332  0.1146  0.1845  0.1151
 1754W        W17938  15.298   2.483   4.785  0.1001  0.0705 -0.2800
 1755W        W17939   7.359  18.215  11.684  0.0054  0.0806 -0.1070
 1756W        W17940   5.356  15.114   1.898 -0.2095  0.1485  0.2992
 1757W        W17941  10.727   1.234  11.424 -0.1879  0.1926  0.0595
 1758W        W17942   3.039   5.935   2.012 -0.0897 -0.1108  0.0244
 1759W        W17943  11.206  13.920  12.228  0.0907  0.0457  0.0292
 1760W        W17944  17.375  18.366   4.868  0.2556  0.0087  0.2447
 1761W        W17945  10.540   9.015  13.683  0.3455 -0.1963 -0.0227
 1762W        W17946   2.351   6.598  11.734  0.1090 -0.1758  0.0177
 1763W        W17947   0.652  18.296  13.406 -0.0159 -0.0075 -0.2570
 1764W        W17948   8.021   3.030  11.321  0.1110  0.0876  0.1635
 1765W        W17949   1.104   2.919   2.480 -0.0553 -0.1124  0.0864
 1766W        W17950   3.974  16.908   4.721 -0.0373  0.0284  0.0663
 1767W        W17951   6.086  18.289   3.881  0.2119 -0.1243 -0.0616
 1768W        W17952   7.240  15.279   2.841 -0.1733  0.2469 -0.1877
 1769W        W17953  13.569  13.195   0.502 -0.0319  0.0710 -0.3951
 1770W        W17954  14.100  13.139   3.628  0.1010  0.0298 -0.1631
 1771W        W17955  16.278  16.744  13.335 -0.2447 -0.0600  0.0133
 1772W        W17956  14.739  14.928  11.142  0.0944  0.0921 -0.3797
 1773W        W17957  16.952   7.148  11.808  0.0310 -0.2765  0.3036
 1774W        W17958  16.432  17.314  14.019 -0.5026  0.1746  0.0610
 1775W        W17959   6.097  15.206   4.715  0.0895 -0.1930  0.1502
 1776W        W17960   9.366   9.914   4.012 -0.1122 -0.0823 -0.0554
 1777W        W17961   0.322  14.169   1.428  0.3568  0.0364  0.2150
 1778W        W17962  17.191  13.791   1.178  0.0748  0.0530 -0.2573
 1779W        W17963   1.982   2.394   1.926  0.1649 -0.2199 -0.1192
 1780W        W17964  15.567  16.128   3.151  0.0836  0.1663  0.1242
 1781W        W17965  11.415  16.553   3.538 -0.1011 -0.2035 -0.2005
 1782W        W17966   7.624   2.405  14.362 -0.3369  0.1235  0.1073
 1783W        W17967  13.273   2.682  10.280  0.1903 -0.1337  0.0219
 1784W        W17968   6.121   3.929  11.925 -0.1688 -0.1569 -0.0658
 1785W        W17969   0.908   4.119   4.366 -0.2104  0.1131 -0.0041
 1786W        W17970   6.425  11.477   5.283 -0.1135  0.0154 -0.0317
 1787W        W17971   9.818  14.214   2.099  0.0329 -0.0759  0.2376
 1788W        W17972  14.984  16.191   0.291 -0.0734 -0.0108  0.1476
 1789W        W17973  17.230  11.483  14.683 -0.3768 -0.1015 -0.1432
 1790W        W17974   7.498   6.379   1.661 -0.0676  0.0720  0.0253
 1791W        W17975   7.008  15.560  14.739  0.0279 -0.0389  0.0348
 1792W        W17976   4.767  11.542   4.808 -0.1966  0.0881  0.1463
 1793W        W17977   0.691  17.402  11.078  0.1513  0.3233 -0.1654
 1794W        W17978  18.078  16.450   4.172 -0.3895 -0.1795  0.0495
 1795W        W17979   6.061   9.226   2.316 -0.0092  0.1315  0.1098
 1796W        W17980  10.103  17.134  13.491  0.2242  0.0017 -0.1824
 1797W        W17981   9.815  10.694  10.167 -0.1405 -0.1421  0.1987
 1798W        W17982  17.891   6.525   1.580  0.0157 -0.0285 -0.1613
 1799W        W17983   1.770  17.332   9.645 -0.2659  0.1955  0.1250
 1800W        W17984   3.286  19.258  11.096  0.3527 -0.1501 -0.1210
 1801W        W17985   2.969  14.108   1.379 -0.2244  0.1328  0.0818
 1802W        W17986  14.337  11.872  11.678  0.1818 -0.1022  0.2640
 1803W        W17987   6.648  10.578   2.656 -0.0191 -0.3427  0.1308
 1804W        W17988   6.569   3.122  13.623 -0.2673  0.0864  0.0379
 1805W        W17989   1.723  14.040   2.399  0.0282 -0.0439  0.0146
 1806W        W17990  11.168  12.921   1.697  0.5248  0.0633 -0.3433
 1807W        W17991  13.750  14.349  12.226 -0.3725  0.0389 -0.2510
 1808W        W17992  11.770  10.044   2.430  0.2015 -0.1857 -0.0823
 1809W        W17993   5.240   7.389   3.595 -0.0441 -0.0163 -0.1678
 1810W        W17994   2.293  10.188   5.909  0.1159 -0.0527  0.4956
 1811W        W17995  10.827   6.611   5.043  0.2727  0.4406 -0.0368
 1812W        W17996   3.613  13.057   5.907  0.2108  0.3487 -0.0536
 1813W        W17997   9.826   9.706   2.976 -0.0724 -0.2100 -0.1451
 1814W        W17998  15.115   6.257   3.010 -0.1637 -0.4322  0.2172
 1815W        W17999  18.135  14.712  11.926 -0.2598  0.1384 -0.1096
 1816W        W18000   6.497   0.301   2.391  0.1639 -0.0406 -0.0437
 1817W        W18001  12.958   1.491   5.017 -0.0640 -0.1392  0.1785
 1818W        W18002  19.348   6.539  13.304 -0.3198 -0.0901  0.0711
 1819W        W18003  15.747   9.799   4.032 -0.1598 -0.0282  0.4011
 1820W        W18004   8.090   1.433  14.586  0.1080 -0.1057 -0.5504
 1821W        W18005   2.260   6.784   6.270  0.0124 -0.1345  0.3144
 1822W        W18006  14.089  16.365  13.151 -0.2742 -0.2528  0.2722
 1823W        W18007  12.669  12.920  11.932  0.0988 -0.1966 -0.0448
 1824W        W18008   9.486   6.003  10.775 -0.3402 -0.0351  0.1978
 1825W        W18009   8.558   9.216   5.248  0.0187 -0.0011  0.0780
 1826W        W18010   7.509  18.992  13.789  0.1990  0.1119 -0.0377
 1827W        W18011  10.409   7.031   3.166 -0.0927 -0.0619 -0.1661
 1828W        W18012   0.526  10.432   1.318 -0.5841 -0.1885 -0.1949
 1829W        W18013  18.641  13.426   2.962  0.0048  0.0439 -0.2534
 1830W        W18014   5.040  16.475  10.657  0.0465 -0.0007 -0.0478
 1831W        W18015  17.315  10.398  11.521  0.0429 -0.0893 -0.0144
 1832W        W18016  10.547  10.169   3.339  0.1420 -0.0878 -0.2415
 1833W        W18017   0.118   5.640  11.228  0.0963 -0.3104  0.5213
 1834W        W18018   2.616  13.667   2.965  0.0233 -0.0044  0.1362
 1835W        W18019  11.246  15.586   4.526  0.3941 -0.3255  0.0304
 1836W        W18020  10.613  15.167   3.308 -0.0063  0.2438 -0.1339
 1837W        W18021  16.789  12.756  12.248 -0.0626 -0.0582  0.1086
 1838W        W18022   5.139  12.932  11.540  0.1494  0.0110 -0.0635
 1839W        W18023  18.659  17.919   4.629  0.0974 -0.4943  0.6659
 1840W        W18024   5.203  14.406  12.232 -0.2159  0.1498  0.1238
 1841W        W18025   1.773   1.188   2.001  0.0626  0.0382  0.1542
 1842W        W18026   4.929   6.844  11.744 -0.1413  0.0555  0.1415
 1843W        W18027  12.191  18.765   2.302  0.3339  0.0121 -0.2174
 1844W        W18028   6.529   9.478  14.694  0.1486  0.2379  0.2485
 1845W        W18029  19.152   2.909  11.724 -0.1810 -0.3027  0.1557
 1846W        W18030  12.574  12.128  12.293 -0.1293  0.0849 -0.2348
 1847W        W18031  18.303  10.821   0.526  0.1379  0.1564  0.2914
 1848W        W18032   3.692  18.023   2.979  0.2991  0.2923 -0.1423
 1849W        W18033  13.534  19.066  10.417 -0.0346  0.0897 -0.0627
 1850W        W18034   3.507  17.874   0.554 -0.0720 -0.1173  0.3252
 1851W        W18035  12.613   1.791   2.367 -0.1518 -0.2218  0.1978
 1852W        W18036  13.789   9.156  14.136  0.3032 -0.0903 -0.0071
 1853W        W18037   3.595   7.744   0.890 -0.2172 -0.1695 -0.1334
 1854W        W18038   2.101   1.703  12.314  0.0816  0.1500 -0.0009
 1855W        W18039   7.271   0.842   2.194 -0.0744 -0.3496 -0.1294
 1856W        W18040   2.071  13.843  12.982 -0.0359  0.2574  0.0565
 1857W        W18041   0.561  16.678  12.908 -0.3911 -0.2885  0.1536
 1858W        W18042  18.572   5.629  14.754  0.2061 -0.0257  0.4065
 1859W        W18043   5.560   1.457  12.718 -0.0945  0.3107  0.3253
 1860W        W18044   5.851  18.238  13.897 -0.3029 -0.0074 -0.0947
 1861W        W18045  14.850  18.247  10.700 -0.2567  0.2526  0.3829
 1862W        W18046  10.362   6.139  10.421 -0.0278  0.0170  0.2655
 1863W        W18047   1.506   2.634  13.660  0.0399 -0.3707 -0.1958
 1864W        W18048   8.552   5.264   2.165 -0.1815  0.4305  0.0738
 1865W        W18049  17.574  18.621  14.616  0.3368  0.3037 -0.2047
 1866W        W18050   7.382  16.457  12.276 -0.0424 -0.0075 -0.2793
 1867W        W18051   2.080  16.386   1.883 -0.4337  0.1212 -0.2487
 1868W        W18052  12.894   4.576  10.786  0.0122  0.3027  0.2392
 1869W        W18053  12.103   6.055   9.730  0.0685  0.0570  0.1584
 1870W        W18054  10.054  18.272  13.931  0.0387  0.2325 -0.1492
 1871W        W18055  12.863   8.463  10.232  0.0022  0.1104 -0.0362
 1872W        W18056  14.420  12.235  12.140 -0.1546  0.1644  0.0103
 1873W        W18057  13.738   6.030  12.477  0.1845 -0.4180  0.1220
 1874W        W18058   4.063  18.518   3.296  0.3426  0.1573  0.1097
 1875W        W18059   4.864   6.949  14.059 -0.0108 -0.1354  0.3539
 1876W        W18060   1.820   6.423  10.978 -0.0944 -0.0921 -0.0216
 1877W        W18061  10.737  11.614   1.668 -0.2135  0.2346 -0.3021
 1878W        W18062   0.172  16.758   4.057 -0.2140  0.1315 -0.1145
 1879W        W18063  15.443   9.437  13.070 -0.4061  0.1829  0.1352
 1880W        W18064  15.610  11.616  12.366 -0.0602 -0.1206 -0.1833
 1881W        W18065  14.312   5.173   4.274  0.1746 -0.0559  0.0574
 1882W        W18066  15.815   5.780  12.899  0.0507 -0.0576  0.0840
 1883W        W18067   9.544  15.749   2.308  0.2891  0.0058  0.1174
 1884W        W18068  14.523   1.472   3.269 -0.2115 -0.0446 -0.1605
 1885W        W18069  12.092  15.472   4.350 -0.3448 -0.1167  0.1699
 1886W        W18070   6.386   9.960   5.442  0.2460  0.2881 -0.1291
 1887W        W18071  12.664  11.281  11.454 -0.1778 -0.2589  0.2089
 1888W        W18072   3.907  15.812   1.458  0.1441  0.0324  0.1644
 1889W        W18073   3.480   3.107  13.133 -0.0048 -0.2668 -0.0419
 1890W        W18074  15.152   2.189   3.237 -0.2530  0.0300 -0.3868
 1891W        W18075  13.394  14.246   9.500  0.2736  0.2310 -0.0426
 1892W        W18076  11.159  15.727  11.295  0.0670  0.1105  0.1378
 1893W        W18077   9.194  15.194   2.094 -0.1364  0.0819 -0.0484
 1894W        W18078   6.910   5.165   0.443  0.1032 -0.1229 -0.3157
 1895W        W18079   6.930  17.355   0.542 -0.1215  0.3981 -0.2971
 1896W        W18080   5.177   2.387  10.720 -0.2069 -0.2901  0.2991
 1897W        W18081   5.082   4.336  14.568  0.2466 -0.1121 -0.1502
 1898W        W18082  13.114   8.265   4.642  0.5614 -0.1023 -0.0950
 1899W        W18083  13.309  18.714   2.338 -0.0988 -0.1366 -0.3769
 1900W        W18084   7.560  19.139   2.923  0.0753 -0.0507 -0.0237
 1901W        W18085  19.226  19.373   3.023  0.1754 -0.1249 -0.1375
 1902W        W18086  11.092  16.161   1.549 -0.1002 -0.2569  0.2623
 1903W        W18087  11.950   8.566  13.072 -0.1800 -0.3332 -0.1092
 1904W        W18088   3.900  16.089  10.688 -0.0763  0.0038  0.4767
 1905W        W18089   1.329   2.510   0.215  0.0476 -0.3669 -0.0025
 1906W        W18090  10.866   7.956   1.216 -0.1608 -0.0550  0.0847
 1907W        W18091  16.752   2.467   4.466 -0.1623 -0.2120  0.0197
 1908W        W18092  13.563   2.788   4.655 -0.1086 -0.3239 -0.4261
 1909W        W18093   1.697  12.500   2.382 -0.3554 -0.1098  0.3320
 1910W        W18094   3.867   9.246  10.660 -0.2543  0.0385 -0.3650
 1911W        W18095  10.637  14.693  12.129  0.2456 -0.1254 -0.5092
 1912W        W18096  12.989   9.230  13.510  0.2799  0.0571 -0.1332
 1913W        W18097  16.396   0.746  11.909 -0.0123  0.3064 -0.0458
 1914W        W18098   9.224  12.954   5.426 -0.1070  0.1772  0.0918
 1915W        W18099  18.021   2.335   0.630 -0.0844  0.1464  0.0434
 1916W        W18100  15.744  13.464  11.716  0.2502 -0.0407  0.2213
 1917W        W18101  17.238   5.150   0.378 -0.1555 -0.2795  0.0245
 1918W        W18102  15.816   5.095  10.923 -0.1407 -0.0272 -0.0799
 1919W        W18103   1.255  11.484  14.543 -0.2207  0.3350 -0.1270
 1920W        W18104  15.591  13.066   2.097 -0.0393 -0.0348  0.0573
 1921W        W18105  11.553  12.880   3.969 -0.2465 -0.1501 -0.2247
 1922W        W18106   8.448   1.745  12.306 -0.0304  0.1792 -0.0114
 1923W        W18107   4.757   7.479  12.531  0.1607  0.0874 -0.2063
 1924W        W18108  15.813  14.202   0.075 -0.0832  0.0797 -0.3554
 1925W        W18109   7.327  15.697  13.606  0.2638  0.0830  0.3960
 1926W        W18110   7.879  17.524   2.351 -0.0046 -0.0756 -0.0864
 1927W        W18111   4.494   1.527   1.248  0.1761 -0.4396  0.0886
 1928W        W18112  17.152   4.921   3.633  0.1763 -0.0787 -0.1184
 1929W        W18113   4.275   7.418  14.531  0.2115  0.2853 -0.4183
 1930W        W18114  14.073  15.370   1.368 -0.0715 -0.0559  0.0398
 1931W        W18115  11.519  11.453   1.049 -0.1171  0.1776  0.4383
 1932W        W18116  17.178  17.874  11.573 -0.2294  0.2086  0.1257
 1933W        W18117  16.390  12.011   4.425 -0.2961  0.1979  0.0361
 1934W        W18118   1.603   8.555  10.753  0.1487  0.2883  0.0874
 1935W        W18119  19.246   7.384  11.469 -0.2054  0.4071 -0.0839
 1936W        W18120   6.852   0.655  14.073  0.0834 -0.0322 -0.3645
 1937W        W18121  19.140  17.116   1.771  0.0778  0.2483 -0.0438
 1938W        W18122  14.571  18.612   0.642 -0.1494 -0.0953 -0.2734
 1939W        W18123   5.732   0.552  11.265 -0.0817 -0.0732 -0.1026
 1940W        W18124   6.306   1.666  10.606 -0.1202  0.2976 -0.0399
 1941W        W18125  17.460   5.258  14.120  0.1122  0.1071 -0.1521
 1942W        W18126   1.965  13.020   2.217 -0.0614  0.1945 -0.1848
 1943W        W18127   0.518  11.128   0.071 -0.1247 -0.0883 -0.0202
 1944W        W18128   3.140  15.006  10.769  0.2199 -0.1587  0.1338
 1945W        W18129  14.868   9.070  12.710 -0.3341 -0.1287  0.0853
 1946W        W18130   5.053   6.360   4.898 -0.1061  0.1388  0.0868
 1947W        W18131   4.169   0.437   0.692 -0.1184 -0.1436  0.1796
 1948W        W18132  11.133   2.092   3.924  0.0894 -0.3338  0.0693
 1949W        W18133   6.230  17.230  12.363  0.1788 -0.4739  0.2351
 1950W        W18134  15.357  10.029  14.471  0.5206  0.0872 -0.1712
 1951W        W18135  13.652  15.642   1.200 -0.1075 -0.0356 -0.0275
 1952W        W18136  10.326   7.512   4.873  0.3583  0.0301 -0.2844
 1953W        W18137   7.850  18.568  14.085  0.0220 -0.1007 -0.1735
 1954W        W18138   8.435  11.167  11.601 -0.0836  0.2701  0.0504
 1955W        W18139  14.944  16.236  10.497  0.1545 -0.1218  0.0955
 1956W        W18140  18.447   0.393  14.292  0.0305 -0.1351  0.0517
 1957W        W18141  13.256   2.319  12.132 -0.2648 -0.1518  0.1514
 1958W        W18142  14.813   2.131   0.190 -0.0369  0.0739  0.1401
 1959W        W18143  10.025  11.061   5.409 -0.2070  0.2077  0.2507
 1960W        W18144  12.161   3.216  11.868  0.1154 -0.0083  0.0975
 1961W        W18145  11.523  13.183   2.771 -0.0785  0.4711 -0.0518
 1962W        W18146  15.939  18.735   3.773  0.1281  0.0144  0.1397
 1963W        W18147   0.011   6.843  11.700  0.1625  0.0115 -0.1044
 1964W        W18148  12.279   0.076  14.206 -0.1009  0.2105  0.6860
 1965W        W18149   9.006   1.514   0.539 -0.4757  0.0656 -0.0382
 1966W        W18150  12.486  14.733   3.595  0.1612  0.0162 -0.2738
 1967W        W18151   4.159   0.280   1.403 -0.1509 -0.0087  0.0228
 1968W        W18152   2.655   8.824   1.956 -0.2057  0.0035 -0.1813
 1969W        W18153  18.440  15.405   0.488  0.0842  0.1869 -0.0936
 1970W        W18154  10.059   1.153  11.124  0.3438  0.1434 -0.1929
 1971W        W18155   2.152  13.695   3.848 -0.0961 -0.0138  0.2205
 1972W        W18156  16.634  11.593  11.492 -0.0366 -0.2112  0.2129
 1973W        W18157  13.441  12.961   2.722 -0.2183  0.5097  0.3069
 1974W        W18158   2.619   7.232   3.109 -0.0202  0.1620 -0.4080
 1975W        W18159   4.791   1.119   1.248  0.2870 -0.0888 -0.4105
 1976W        W18160   1.789   9.986   0.058  0.3580  0.3482  0.2696
 1977W        W18161   1.215  13.960   3.924 -0.0996  0.1525  0.2521
 1978W        W18162   1.802   6.447   6.364  0.0048  0.3803  0.1950
 1979W        W18163   9.860  16.917  11.811 -0.4870  0.0662  0.0539
 1980W        W18164   9.115   0.990   4.321 -0.0147  0.1837  0.0584
 1981W        W18165  11.499   2.254   4.470  0.1588 -0.2780  0.0692
 1982W        W18166  12.877   1.342  13.079  0.1035 -0.0158 -0.0465
 1983W        W18167  16.528  12.270   9.314  0.3357  0.0071 -0.1591
 1984W        W18168  12.268   9.543   1.589  0.0594 -0.1018 -0.2368
 1985W        W18169  13.043   6.064   2.110  0.0508  0.1356 -0.2084
 1986W        W18170  13.369   0.272  11.045 -0.0492 -0.0889  0.0552
 1987W        W18171   2.049  12.512  10.447  0.0368  0.3061  0.1539
 1988W        W18172   6.001   3.133   2.676  0.0935  0.0778 -0.0335
 1989W        W18173  12.775  10.610   3.294 -0.0117  0.0943 -0.2926
 1990W        W18174  13.789  13.553   3.326  0.3065 -0.0737  0.0848
 1991W        W18175   7.847   0.949   3.949 -0.3162  0.0054 -0.1735
 1992W        W18176  13.074  17.905   8.743 -0.0220 -0.0778 -0.0821
 1993W        W18177  17.088   5.026  14.352 -0.2448 -0.0299 -0.2888
 1994W        W18178   4.370   4.789   0.781  0.3922 -0.1166  0.0918
 1995W        W18179   6.909   4.979   9.778 -0.2484  0.0797 -0.2279
 1996W        W18180   1.074  19.012  10.364  0.1261  0.1102  0.1402
 1997W        W18181   9.422  10.976  10.878 -0.0388  0.2081 -0.1216
 1998W        W18182  18.049   2.086   5.181  0.1489 -0.0481  0.0267
 1999W        W18183  15.928   3.752   3.031  0.0729  0.1690 -0.0055
 2000W        W18184  17.987  17.325   1.836  0.2651  0.0065  0.0587
 2001W        W18185   9.135  16.299  14.239  0.0716  0.0855  0.0310
 2002W        W18186  15.669  17.543  13.650  0.2193  0.1719 -0.1824
 2003W        W18187  15.499  11.348   2.982 -0.2311 -0.0751 -0.0770
 2004W        W18188   2.854   9.275  14.859  0.0243  0.1273 -0.1269
 2005W        W18189   6.580   7.804   1.007 -0.1374  0.1650  0.1168
 2006W        W18190   1.849  15.005  11.450 -0.0791  0.3881 -0.0853
 2007W        W18191  16.817   5.521  12.909 -0.0666 -0.0220 -0.0496
 2008W        W18192   0.795   7.716  10.971 -0.0442  0.2201  0.4249
 2009W        W18193   2.630  18.204   2.711 -0.0210 -0.4746 -0.0191
 2010W        W18194  11.515  13.269   4.337  0.2803 -0.0628  0.2309
 2011W        W18195   3.568  13.455  11.379 -0.4031  0.1920  0.2630
 2012W        W18196   4.968   5.801   2.589  0.2507 -0.2393 -0.0102
 2013W        W18197  12.723   7.148   0.745 -0.1621  0.3432  0.0247
 2014W        W18198   3.276  18.774   4.917 -0.0397  0.0553  0.1101
 2015W        W18199  14.027  12.594   1.326  0.3038 -0.0135  0.1250
 2016W        W18200   9.877  15.667   9.058 -0.0487 -0.1290 -0.0067
 2017W        W18201  15.277   1.247  11.941  0.0339  0.0504 -0.0964
 2018W        W18202  10.885   6.547  14.659 -0.2277  0.0952 -0.0409
 2019W        W18203   3.068   4.807   5.560 -0.0916  0.0437 -0.0717
 2020W        W18204   2.762  12.396  13.712 -0.2324  0.3481  0.0346
 2021W        W18205  12.099  10.655  12.608  0.3347 -0.0599  0.1320
 2022W        W18206   8.266   3.464   0.899 -0.3016 -0.5207 -0.0227
 2023W        W18207  12.905   3.656  10.915  0.3204 -0.0655  0.0203
 2024W        W18208   0.264  16.371  11.251  0.0899 -0.0325 -0.0173
 2025W        W18209  15.516   9.527   2.401 -0.2405 -0.0019  0.4088
 2026W        W18210   2.248  13.518   4.738 -0.0730 -0.2142 -0.2720
 2027W        W18211  10.430  13.054  14.405  0.0847 -0.1091 -0.1195
 2028W        W18212   3.448   2.991   2.861  0.0298  0.3655  0.2007
 2029W        W18213  10.001   4.406  12.313  0.0311 -0.0210 -0.2705
 2030W        W18214   5.906   5.781  11.589 -0.4294  0.2037 -0.1777
 2031W        W18215  19.340  10.583  14.926  0.1509  0.1005 -0.1060
 2032W        W18216  18.103   0.973   8.915  0.0379 -0.2462  0.2186
 2033W        W18217   1.479   5.298  14.251  0.0654 -0.0217  0.0455
 2034W        W18218  19.214   3.831  12.453  0.1031  0.1821 -0.0973
 2035W        W18219  17.099  12.989   5.474  0.1111  0.0893 -0.1151
 2036W        W18220  11.104   1.271   9.930 -0.0340  0.1646  0.0942
 2037W        W18221   5.571   1.774  13.413  0.0042 -0.2592  0.0551
 2038W        W18222   7.107  16.255  13.968  0.3366 -0.0959  0.0409
 2039W        W18223  13.335   9.896   9.633  0.2934 -0.0458  0.1903
 2040W        W18224   0.551  13.122  11.060 -0.2249  0.1784  0.2043
 2041W        W18225   4.978  13.899  13.168 -0.0033 -0.2035  0.0014
 2042W        W18226   1.915  11.747  12.723 -0.5326  0.1155  0.1721
 2043W        W18227  17.974  15.711   0.440 -0.0533  0.0464 -0.2921
 2044W        W18228  18.658  14.260   9.845 -0.1784 -0.0491  0.2493
 2045W        W18229  12.975  11.539   0.341  0.0246 -0.4013  0.1794
 2046W        W18230  10.672  17.082   1.171  0.4172  0.2207 -0.3973
 2047W        W18231  12.631   2.354  12.908 -0.0907 -0.2356 -0.0472
 2048W        W18232  10.848   1.554  13.011  0.3143 -0.2562  0.0558
 2049W        W18233   6.546   4.943  13.952 -0.4308  0.0214  0.2580
 2050W        W18234   1.803  18.594   0.089  0.0875 -0.1079 -0.2194
 2051W        W18235  17.610   8.993   3.584  0.0970 -0.1307 -0.3037
 2052W        W18236  12.057   2.316  11.733 -0.0179  0.1279 -0.2060
 2053W        W18237   5.531   4.937   4.875  0.0588  0.0703 -0.1538
 2054W        W18238  17.757  16.474  11.167 -0.0034  0.0728  0.0115
 2055W        W18239  12.252   3.059   3.563 -0.0520 -0.2796  0.1724
 2056W        W18240   5.804  13.995   2.915  0.0093 -0.1182 -0.0941
 2057W        W18241  19.329   4.898  13.738 -0.3062 -0.2947 -0.2500
 2058W        W18242  11.254   1.916  12.625  0.0838  0.2655  0.1648
 2059W        W18243  17.293   9.765   1.009  0.1646 -0.3283  0.3495
 2060W        W18244  17.875  11.012   0.809 -0.2645 -0.1932  0.2046
 2061W        W18245   6.197   7.444   0.738 -0.0349 -0.0066  0.2101
 2062W        W18246   6.420  19.148   0.926  0.1715  0.2344  0.2350
 2063W        W18247  11.889   4.736   4.064  0.0211  0.1588  0.2089
 2064W        W18248  15.773  13.274  12.578 -0.0993  0.0197 -0.0396
 2065W        W18249   6.634   7.807   5.128 -0.1439  0.0586 -0.1935
 2066W        W18250  10.052   1.713   0.768  0.0342 -0.1824 -0.2487
 2067W        W18251  14.251   6.504   0.701  0.2804  0.1352 -0.2892
 2068W        W18252   9.664   4.341   1.429 -0.0502  0.0763 -0.1381
 2069W        W18253   2.060   4.694   0.505  0.2070  0.1953 -0.0677
 2070W        W18254   8.000  18.287   1.958 -0.0276  0.0705  0.0362
 2071W        W18255  15.105   9.015   0.389  0.4957  0.1319  0.0182
 2072W        W18256  15.195   1.142   5.149 -0.1866  0.1720  0.0634
 2073W        W18257   3.318   8.727   5.134 -0.4483 -0.1510  0.2572
 2074W        W18258   0.714  12.586  10.368 -0.2938 -0.0632  0.0953
 2075W        W18259  11.020   4.369  10.129  0.0986  0.2340 -0.0424
 2076W        W18260   3.510  10.398   4.869 -0.5322 -0.1645  0.5503
 2077W        W18261  11.401  17.178   2.732 -0.0561 -0.1486 -0.0878
 2078W        W18262   7.852   9.767   0.277  0.0845  0.1008 -0.2619
 2079W        W18263   6.342   2.822   1.148 -0.1121  0.1371 -0.0949
 2080W        W18264   5.829  12.774   1.480 -0.0710  0.0472  0.0339
 2081W        W18265  11.459   8.557  10.883 -0.3673 -0.1133  0.0316
 2082W        W18266   7.013   1.730   5.300  0.0500 -0.1554 -0.2301
 2083W        W18267  12.533   8.260   2.991  0.2085  0.4761  0.0101
 2084W        W18268   8.739  11.456  11.116  0.0354 -0.5386 -0.0968
 2085W        W18269   0.394   5.053  12.512  0.0252 -0.0467  0.4096
 2086W        W18270  10.569  19.255   2.393  0.3041 -0.0718  0.1200
 2087W        W18271  10.875   4.822  12.348  0.1616  0.4296  0.0177
 2088W        W18272  18.224  15.398  12.718  0.0088  0.1924 -0.1912
 2089W        W18273  16.533   2.905   4.636  0.1237  0.1367 -0.1433
 2090W        W18274  13.968  16.576   3.507 -0.0373 -0.0271  0.0577
 2091W        W18275  16.209   5.001  13.671  0.0767  0.2570 -0.1731
 2092W        W18276   4.646   4.980   5.128  0.1445 -0.1569  0.1089
 2093W        W18277  10.784   9.711   0.101 -0.0523  0.1102 -0.0649
 2094W        W18278  11.544  14.558   3.603  0.1941  0.0278 -0.2093
 2095W        W18279  12.934  14.027  13.033  0.0059  0.2223  0.0052
 2096W        W18280   7.992   8.167   6.024  0.2680 -0.0317  0.1298
 2097W        W18281  12.220   9.283   3.748 -0.0308  0.0886  0.2648
 2098W        W18282   0.841  19.340  14.368 -0.0123  0.0048  0.1247
 2099W        W18283  14.560   0.918  13.102  0.1147 -0.2144 -0.1700
 2100W        W18284   2.435   0.640  13.179 -0.1351 -0.1610  0.0198
 2101W        W18285   2.277  15.510   3.187  0.0473 -0.0840 -0.0286
 2102W        W18286  15.041  18.078   1.723 -0.5766  0.1255 -0.2361
 2103W        W18287  18.418   8.162  11.327  0.2136  0.3816 -0.2816
 2104W        W18288  14.562  14.113   0.450 -0.2293 -0.1408 -0.0967
 2105W        W18289  11.142   0.182   3.307  0.3685  0.5001 -0.1027
 2106W        W18290   7.526   3.871  14.727 -0.1483  0.0782  0.0187
 2107W        W18291  10.438   4.932   1.559  0.1990  0.0960 -0.0402
 2108W        W18292   8.284   6.947   1.306 -0.0870 -0.0500 -0.1778
 2109W        W18293   9.897   2.120   1.450  0.0500 -0.2960 -0.1878
 2110W        W18294  18.310  15.161  10.447 -0.0405 -0.0149  0.2105
 2111W        W18295  16.832   6.842  13.289  0.1244  0.1539 -0.0623
 2112W        W18296   5.103  11.653  13.357  0.0048  0.0682  0.2049
 2113W        W18297  11.609   6.510   1.177 -0.1987 -0.0287 -0.1007
 2114W        W18298   4.588  14.809   2.398  0.0643 -0.0249  0.1347
 2115W        W18299  10.006   4.652  12.761 -0.2589 -0.1641  0.1900
 2116W        W18300   9.160   4.988  13.420 -0.1218 -0.0747  0.0578
 2117W        W18301  18.070  16.889   3.800 -0.1476 -0.0297 -0.0937
 2118W        W18302   3.307  10.220   2.098 -0.2199 -0.0763  0.3880
 2119W        W18303   1.275   5.658  13.961  0.0378 -0.0382  0.1162
 2120W        W18304  11.818  16.938   1.697 -0.0367  0.0830  0.0516
 2121W        W18305  11.324  12.518  13.443 -0.2916 -0.2429  0.0743
 2122W        W18306  15.703   7.937  14.397  0.0708 -0.0006  0.2450
 2123W        W18307   2.040   8.767   1.773 -0.5443 -0.2933  0.0705
 2124W        W18308   9.440  13.979   0.032 -0.0423 -0.4570 -0.1090
 2125W        W18309  15.673   1.801   1.220  0.2942  0.0178 -0.1508
 2126W        W18310   7.320  11.708   3.934  0.1546 -0.1634  0.1259
 2127W        W18311  15.586   8.949   1.678  0.0924 -0.2005 -0.1028
 2128W        W18312   0.766   1.300   1.373 -0.2621 -0.1305  0.0904
 2129W        W18313   4.475  11.009   3.928 -0.2137  0.1393 -0.0141
 2130W        W18314   6.127  11.724  11.722 -0.1679  0.2472  0.0333
 2131W        W18315  14.039  14.424   2.196 -0.4158 -0.0575 -0.0083
 2132W        W18316   8.282   3.159   0.488 -0.1130  0.0931  0.2312
 2133W        W18317   5.750   2.353  10.621  0.0849  0.1052 -0.1158
 2134W        W18318  13.891  17.789   2.162 -0.1620  0.2523  0.1123
 2135W        W18319  11.829   7.197  13.376  0.3710  0.0127  0.0611
 2136W        W18320  17.028  10.259   1.531  0.0288 -0.2100  0.3063
 2137W        W18321   8.864   5.755   2.443 -0.0357 -0.0454  0.0327
 2138W        W18322   6.752  14.529  13.184 -0.0171  0.0361 -0.0900
 2139W        W18323  14.668   7.218   0.670  0.3840 -0.3013 -0.1508
 2140W        W18324   6.117  16.465  12.027  0.2081  0.0324  0.1124
 2141W        W18325  19.340  13.372   2.779 -0.0097 -0.2378  0.1417
 2142W        W18326   6.074  15.436   0.759  0.1584  0.2966  0.3493
 2143W        W18327   3.936  14.036   4.016  0.0575 -0.0067 -0.4395
 2144W        W18328   1.384   1.825   5.889  0.1346  0.1622 -0.0226
 2145W        W18329  15.168  17.800   3.662 -0.0208 -0.3082  0.0973
 2146W        W18330  17.159  11.796   1.426  0.1875 -0.2903  0.1706
 2147W        W18331   3.770   1.697   3.044 -0.1102 -0.1096 -0.2032
 2148W        W18332  10.902  14.337   2.851  0.0087 -0.1488 -0.4220
 2149W        W18333   8.947  17.935   3.010  0.3489  0.1762  0.1049
 2150W        W18334   9.408   2.674   3.926  0.4378  0.3211  0.0306
 2151W        W18335  15.985  16.933   2.232  0.0566  0.1036 -0.1616
 2152W        W18336  16.084  19.353  12.734 -0.0910  0.0294  0.0712
 2153W        W18337  13.290   0.388   3.887 -0.3978  0.3221 -0.2308
 2154W        W18338  14.763   6.562   2.723  0.3833  0.0798 -0.1669
 2155W        W18339   9.789  11.388   5.764  0.2936 -0.1518 -0.0744
 2156W        W18340   5.437   9.346   3.739 -0.1542  0.3730 -0.0218
 2157W        W18341  18.068  12.787   1.638 -0.3940 -0.0764 -0.2477
 2158W        W18342  14.527   4.030  13.520  0.1095 -0.0153  0.0180
 2159W        W18343  18.399   0.344  11.089 -0.0184 -0.0327 -0.4097
 2160W        W18344   0.035   7.656   6.021  0.0853 -0.0978 -0.0218
 2161W        W18345   1.469   0.608  13.253 -0.1168 -0.0762 -0.0930
 2162W        W18346   1.939   2.680  13.282 -0.3027  0.1362 -0.0614
 2163W        W18347  10.010  11.039  11.918  0.1048  0.1930 -0.0722
 2164W        W18348  13.519  12.396   0.171  0.1735  0.0673  0.1313
 2165W        W18349  15.358  14.224  13.158 -0.0306 -0.1460  0.0504
 2166W        W18350   2.710   8.726   4.038  0.1762  0.2164  0.2146
 2167W        W18351   2.776   8.141   1.922 -0.1252  0.0839  0.2182
 2168W        W18352   5.970   2.319   3.866 -0.0221 -0.1780  0.1863
 2169W        W18353   8.475   6.150   0.593  0.1333 -0.2502 -0.3709
 2170W        W18354   4.491  14.417   4.794  0.1951  0.2052 -0.0568
 2171W        W18355   4.202  18.630  11.086  0.2975  0.2837  0.0016
 2172W        W18356   8.557  13.465  14.162  0.0585 -0.2039  0.1837
 2173W        W18357  13.297  15.891  10.012  0.0653  0.3204  0.1611
 2174W        W18358  15.249   4.382  13.917 -0.0897 -0.2072  0.1093
 2175W        W18359  12.305  16.482   9.378 -0.1704  0.1657 -0.2360
 2176W        W18360  12.336   1.269   5.242 -0.2085 -0.0682 -0.2661
 2177W        W18361   5.405  18.793  14.896 -0.1207 -0.2837  0.2422
 2178W        W18362  12.066  15.452  10.833 -0.1618  0.0218 -0.1693
 2179W        W18363  17.147   0.409  12.247 -0.3125 -0.3417 -0.2701
 2180W        W18364   2.450   5.590   3.760 -0.1355  0.1869  0.0990
 2181W        W18365  19.218   2.390   3.542  0.2896 -0.0775  0.0679
 2182W        W18366  16.216  13.699  13.359 -0.0956 -0.2107 -0.1117
 2183W        W18367   1.123  14.375   4.240  0.3540 -0.1833 -0.4559
 2184W        W18368  12.708  14.048   2.115  0.3252 -0.1606  0.0021
 2185W        W18369  10.905  14.226  14.792 -0.1931  0.0590 -0.2188
 2186W        W18370  13.170  15.042  11.151 -0.0845 -0.1091  0.0089
 2187W        W18371  17.989  15.183   9.465  0.0835 -0.0164 -0.0280
 2188W        W18372   8.870  12.895   2.703  0.0429 -0.0043 -0.2426
 2189W        W18373  19.290  10.897   1.967  0.0233 -0.2295  0.0063
 2190W        W18374  14.350   3.631  11.940  0.3395 -0.0869 -0.1585
 2191W        W18375   6.549   2.375  12.515  0.3012  0.2245  0.1471
 2192W        W18376  17.463   6.738   1.130 -0.0867 -0.1037  0.3422
 2193W        W18377   1.764   4.878  11.264 -0.1177 -0.1640  0.1648
 2194W        W18378  17.144  14.203  14.788 -0.3438 -0.0661 -0.3212
 2195W        W18379  10.307   8.641   0.953 -0.0778 -0.0121  0.0322
 2196W        W18380   4.838  15.470   1.600  0.2250 -0.0295 -0.1843
 2197W        W18381  19.167  18.118   3.954  0.2182  0.2508 -0.1627
 2198W        W18382   1.049   2.098   1.808 -0.2154 -0.0167  0.0156
 2199W        W18383  12.387   5.905  13.430  0.1000 -0.1399 -0.2974
 2200W        W18384   5.352   9.585  10.353 -0.0005 -0.1136 -0.2676
 2201W        W18385   2.517   4.409   4.762 -0.1857  0.5626 -0.0068
 2202W        W18386  18.665  16.687  14.762  0.0074 -0.0359 -0.1576
 2203W        W18387  18.223   7.320  14.685  0.2167 -0.1543  0.1707
 2204W        W18388  12.916   3.131  10.533 -0.0007 -0.1672  0.3404
 2205W        W18389   7.750  14.425   4.524 -0.1461  0.2145  0.0271
 2206W        W18390  19.024  11.365   3.603 -0.2105 -0.3206 -0.2596
 2207W        W18391   1.456   0.646  10.118 -0.1646 -0.1123 -0.3432
 2208W        W18392   5.161   1.648  11.057 -0.2539  0.1034  0.1690
 2209W        W18393  14.673  19.027  10.677  0.0529 -0.0160  0.3787
 2210W        W18394  11.071  16.312  12.835 -0.1188 -0.0123  0.2601
 2211W        W18395   4.122  12.335   3.718  0.2601 -0.0888 -0.4609
 2212W        W18396  10.967  17.299   4.864  0.1625 -0.1567  0.1403
 2213W        W18397  13.758   3.476   0.050  0.0119 -0.2110 -0.1622
 2214W        W18398  13.946  12.674   5.052  0.2426  0.2826  0.2300
 2215W        W18399   7.949  10.549   3.255 -0.3373  0.0991  0.0433
 2216W        W18400  18.485   4.729  11.282 -0.0058 -0.2287  0.0759
 2217W        W18401  15.647  13.969   2.024 -0.0166  0.0756  0.0215
 2218W        W18402   8.643  11.409  12.057 -0.0574 -0.0175 -0.2887
 2219W        W18403   2.272  17.084   1.463 -0.1092  0.1299 -0.1296
 2220W        W18404  14.650  10.804   0.854 -0.0108 -0.0014  0.2676
 2221W        W18405   7.367  11.655  14.940  0.0099 -0.1484 -0.2720
 2222W        W18406  15.442  18.709  12.155  0.2926  0.0970 -0.1106
 2223W        W18407   7.900  10.362  12.031  0.2330 -0.0574  0.1780
 2224W        W18408  15.727   7.294   1.323  0.0213  0.3757 -0.1277
 2225W        W18409  15.256  10.576  13.177  0.2580 -0.4277 -0.0488
 2226W        W18410   8.833   9.148  11.845  0.0332 -0.1138  0.0356
 2227W        W18411  18.405  14.189   4.139 -0.1451  0.1062 -0.2375
 2228W        W18412  14.858  13.448  10.477  0.0388  0.3219  0.0408
 2229W        W18413  13.375   9.898   2.811 -0.1563 -0.4079 -0.0584
 2230W        W18414   5.967  11.479  13.418 -0.1159 -0.5977 -0.0185
 2231W        W18415   1.948  12.535   3.776  0.1690 -0.2601 -0.1104
 2232W        W18416  12.357  11.259   2.622 -0.0901 -0.1821  0.2923
 2233W        W18417   4.671  18.293   1.629  0.0167  0.0721 -0.1912
 2234W        W18418   8.384   9.331   0.436 -0.2904  0.3279  0.5562
 2235W        W18419  15.562   4.259  10.385  0.2210  0.0375  0.1662
 2236W        W18420   6.611   2.092  13.774 -0.0770 -0.2834  0.1251
 2237W        W18421   3.116  16.957  13.711  0.0357  0.0898 -0.0618
 2238W        W18422  16.340  16.078   1.477  0.0816 -0.2799  0.0942
 2239W        W18423  16.016   6.177  11.918 -0.0660 -0.1655  0.0077
 2240W        W18424  12.622   6.726  11.706  0.1292  0.0876 -0.0578
 2241W        W18425   0.960  17.506   3.814  0.0287  0.3013  0.1083
 2242W        W18426   8.447   1.743  10.059  0.3615  0.3794  0.0081
 2243W        W18427   3.251   1.818   3.064 -0.0674 -0.3823  0.2116
 2244W        W18428  10.073   4.165  12.804  0.0347  0.3562  0.1745
 2245W        W18429  12.010  18.265   0.434 -0.2863  0.2013  0.1728
 2246W        W18430   3.876   2.637  10.563  0.2297  0.2400  0.0847
 2247W        W18431  10.755   7.851   0.200 -0.0815  0.2392  0.2548
 2248W        W18432   0.816   5.329  11.407  0.0096 -0.0279  0.1077
 2249W        W18433  15.586   4.582   2.313  0.0569 -0.0877 -0.2791
 2250W        W18434   4.672   9.592  14.895 -0.1033 -0.1884  0.0956
 2251W        W18435   3.472  17.612  12.778  0.1247 -0.1116  0.0992
 2252W        W18436   5.255  12.006  14.428 -0.5703 -0.1663  0.2221
 2253W        W18437  17.534   1.566  12.363  0.0283 -0.3674 -0.3338
 2254W        W18438   7.442   3.431  13.533  0.2005  0.0422 -0.2187
 2255W        W18439  14.489  15.705   3.191  0.1950  0.3368 -0.0058
 2256W        W18440   5.203   6.379  12.210  0.1802 -0.2274 -0.0235
 2257W        W18441  14.748  15.529   2.453 -0.0338  0.3739 -0.0817
 2258W        W18442   4.640   7.209  13.343  0.0001  0.0513 -0.2266
 2259W        W18443  16.028  13.351  11.287  0.1094  0.2282 -0.0489
 2260W        W18444  18.818   6.710   9.628 -0.0731 -0.3682  0.0839
 2261W        W18445  17.074  16.834   1.444 -0.0031  0.2249 -0.0703
 2262W        W18446   1.846  15.361   0.654 -0.1102 -0.0228 -0.0052
 2263W        W18447   7.979  13.773   2.358 -0.0436 -0.1519 -0.0783
 2264W        W18448  12.904   8.671   4.187  0.0041  0.1482  0.1135
 2265W        W18449   6.874   3.964  12.857 -0.0338  0.0737 -0.1619
 2266W        W18450  11.109  15.273  12.268  0.0004  0.2852 -0.1746
 2267W        W18451   8.255   4.284  11.357  0.2321 -0.5050  0.0767
 2268W        W18452   0.919  10.464   5.170  0.0392 -0.2783  0.3241
 2269W        W18453  13.333  18.154   4.437 -0.0385  0.0701  0.1788
 2270W        W18454   9.466   9.741   2.300 -0.0431  0.0382  0.2177
 2271W        W18455   2.473   4.803   1.562  0.3333 -0.0603  0.0839
 2272W        W18456  12.544  12.432   3.769 -0.3987 -0.0963 -0.0977
 2273W        W18457  14.383   5.193   3.622  0.1061 -0.1684 -0.0448
 2274W        W18458   9.105  17.786   0.617 -0.0336 -0.1865 -0.0117
 2275W        W18459  16.957  18.111   1.232  0.0203  0.2435  0.0097
 2276W        W18460  18.052   0.071  13.298 -0.2315 -0.4001 -0.3091
 2277W        W18461  14.524  11.856   5.099  0.0860  0.1454 -0.1464
 2278W        W18462  16.378  18.655  11.049  0.1831 -0.0416  0.0230
 2279W        W18463   3.301   6.529   0.094 -0.3310 -0.0944 -0.0134
 2280W        W18464  18.903   6.644  11.759  0.2776 -0.1211  0.1073
 2281W        W18465  13.475   6.788   2.339 -0.2582 -0.1030  0.1469
 2282W        W18466  17.231  19.263   5.797  0.1521  0.5379 -0.1001
 2283W        W18467  17.087  11.003   3.072  0.1528  0.0497  0.0845
 2284W        W18468  13.917  12.896   0.848  0.2924  0.1509 -0.1389
 2285W        W18469   9.533   6.799  11.029  0.3432 -0.1597  0.1525
 2286W        W18470  12.580  15.443   4.553  0.4260  0.2070 -0.0592
 2287W        W18471   9.133   8.276   2.936 -0.2230 -0.1418  0.0505
 2288W        W18472   4.449  10.587   1.677  0.3041  0.1710 -0.3068
 2289W        W18473   1.955   6.174   2.557  0.2207  0.1895  0.1008
 2290W        W18474   9.281   0.912  10.219  0.1174 -0.1449  0.0679
 2291W        W18475  11.934  13.612   2.010 -0.0661  0.1215 -0.1698
 2292W        W18476  10.714  11.673   3.620  0.1403 -0.0418  0.1897
 2293W        W18477   5.626  18.160  10.566 -0.0400  0.0645 -0.1432
 2294W        W18478   2.738  12.331  14.826  0.2560  0.1339  0.0627
 2295W        W18479  10.450   2.728   1.476 -0.3173  0.0517  0.3328
 2296W        W18480  17.130  16.342   0.414  0.2288 -0.5174 -0.2773
 2297W        W18481   9.713  14.057   3.007  0.0451 -0.1686  0.1454
 2298W        W18482  13.947   8.162   2.268  0.1964 -0.0640  0.1364
 2299W        W18483   5.305  17.763  12.025 -0.2340 -0.0782 -0.0385
 2300W        W18484   6.722   7.586   2.729 -0.4049  0.2413  0.0324
 2301W        W18485   8.510  12.345  10.161  0.0040  0.1733 -0.0975
 2302W        W18486   7.603  14.987   3.167 -0.0058 -0.2358  0.1745
 2303W        W18487   4.485  16.767   4.825  0.3441 -0.0264  0.0700
 2304W        W18488   4.881   9.882   4.744 -0.2217 -0.0993 -0.0872
 2305W        W18489   7.487   7.506   0.966  0.2731 -0.3003 -0.1400
 2306W        W18490   5.191  14.670   1.284 -0.2604 -0.3322 -0.2309
 2307W        W18491  18.430   7.273  10.699  0.2547 -0.1719  0.1300
 2308W        W18492  14.829  15.594   0.222 -0.0399  0.0267  0.0382
 2309W        W18493  14.145   4.301  13.392  0.0559 -0.1422  0.0108
 2310W        W18494  13.994   9.364  12.528  0.1391 -0.0043 -0.5221
 2311W        W18495   7.261   1.309  14.449  0.1656 -0.2552 -0.2289
 2312W        W18496   7.938  18.729  12.071  0.1214  0.1040 -0.1005
 2313W        W18497  18.636   4.974  13.437 -0.0620 -0.0235  0.4077
 2314W        W18498   9.331   2.562   3.081 -0.2808 -0.0658 -0.2231
 2315W        W18499   1.708   7.470   4.294  0.1726  0.4132  0.1422
 2316W        W18500   6.013   7.603  11.250 -0.3723  0.1698  0.2252
 2317W        W18501   9.367   5.760   2.552 -0.1873 -0.0670 -0.2504
 2318W        W18502   6.126   5.668   1.769  0.2745 -0.0374  0.0076
 2319W        W18503   5.693   7.981  10.921  0.2726 -0.0584  0.2357
 2320W        W18504  14.830  15.953  11.049  0.2750 -0.0885  0.2930
 2321W        W18505  10.123   2.092  12.107  0.1206 -0.0681  0.1098
 2322W        W18506  15.721   3.693   3.888 -0.1206 -0.0607  0.1837
 2323W        W18507  10.315  10.558   4.658  0.4054 -0.4551  0.2450
 2324W        W18508   9.955  13.322  12.021  0.1052  0.1620  0.1032
 2325W        W18509   3.417  15.144   4.684 -0.1225  0.3987  0.2556
 2326W        W18510   7.138   6.282  11.455  0.1157  0.2203  0.0105
 2327W        W18511   3.526  18.829   0.075 -0.2055  0.3932  0.0857
 2328W        W18512  10.846   7.662   2.173  0.1394  0.1541  0.3737
 2329W        W18513   1.126  13.288   1.184 -0.3359  0.2483  0.2316
 2330W        W18514   3.124  18.945   0.498  0.0848 -0.3688  0.0694
 2331W        W18515  17.083  11.831  13.029  0.1089 -0.0569  0.1511
 2332W        W18516  10.852   6.144  10.217 -0.1621  0.0775 -0.0298
 2333W        W18517   8.866   9.255   4.798  0.1432  0.2617  0.0043
 2334W        W18518  19.294  14.033   3.964  0.1741 -0.2987 -0.3574
 2335W        W18519  11.954   2.325  10.867 -0.1263  0.0738  0.1265
 2336W        W18520  13.425   2.157  14.417 -0.2291 -0.3139 -0.0646
 2337W        W18521  17.257   0.817  12.644 -0.3212 -0.1706 -0.2413
 2338W        W18522  11.007   5.815   2.853  0.0550  0.5797  0.1544
 2339W        W18523  19.056  17.210   3.318  0.1002  0.1190 -0.2685
 2340W        W18524   8.379  10.502  12.123  0.1761  0.1588 -0.0188
 2341W        W18525   3.369  16.717   3.714  0.0250  0.2660 -0.2976
 2342W        W18526  14.853  10.407   0.226  0.1214  0.1349  0.0482
 2343W        W18527  13.335   2.360  11.504 -0.1651  0.0433 -0.0692
 2344W        W18528   9.119   1.670   0.070  0.3473 -0.0247  0.0651
 2345W        W18529   1.170  14.227   4.771  0.0290 -0.2290  0.3455
 2346W        W18530   1.573  19.164   1.503  0.1095  0.3487 -0.2066
 2347W        W18531   4.920  15.827   0.027 -0.0718 -0.0613 -0.1123
 2348W        W18532   2.972  10.416  14.252 -0.3351  0.1097  0.0064
 2349W        W18533  13.582   5.412   4.660  0.0914  0.2804  0.0377
 2350W        W18534   0.750  11.517  11.646  0.0940 -0.2442  0.2307
 2351W        W18535  13.202  11.001   1.240  0.0404  0.2025 -0.1056
 2352W        W18536   9.639   0.470  10.258 -0.0784 -0.1992 -0.0533
 2353W        W18537  19.361   7.909  11.382 -0.0638 -0.1415 -0.3794
 2354W        W18538   7.450   8.023   4.280  0.2513  0.0559 -0.4146
 2355W        W18539   3.295   2.121   3.455  0.2959  0.0383  0.3837
 2356W        W18540   9.791  13.977  13.058 -0.2365  0.1213  0.2375
 2357W        W18541   0.923  13.808   0.361  0.1930 -0.1259 -0.2265
 2358W        W18542   5.091   8.368  10.868  0.2411 -0.0950  0.2225
 2359W        W18543  10.942   5.645  12.196 -0.0521  0.2096  0.1375
 2360W        W18544   8.898  17.902  12.579 -0.1054 -0.0205 -0.3089
 2361W        W18545   3.132   2.856   2.443  0.2293  0.1128  0.0944
 2362W        W18546   9.460  11.428   4.925  0.1187  0.0868 -0.0746
 2363W        W18547   0.426   0.312  14.410  0.5273  0.1777  0.0774
 2364W        W18548  12.706   1.964  10.959  0.3068 -0.0609  0.1034
 2365W        W18549   0.519   9.578   0.332  0.2243 -0.0114  0.1323
 2366W        W18550  10.736  16.944   2.165 -0.3703  0.2174  0.1049
 2367W        W18551  17.286  17.741   3.493 -0.3193  0.0476  0.4531
 2368W        W18552  18.425  17.236  10.664 -0.1213  0.3697  0.2949
 2369W        W18553  18.942  17.888  11.264 -0.0386 -0.1975 -0.1225
 2370W        W18554   7.179  12.996  13.275 -0.0358  0.1359  0.0911
 2371W        W18555  10.568  10.184  12.573  0.2120  0.1024  0.2302
 2372W        W18556   0.432  11.998   0.412  0.0387 -0.3521 -0.0096
 2373W        W18557  10.747  17.952  10.933  0.1548 -0.0345  0.0699
 2374W        W18558  13.520   3.506  13.614 -0.2836  0.3257 -0.2513
 2375W        W18559   1.363   0.053  10.498 -0.1215  0.2231  0.0689
 2376W        W18560  17.181   9.205   1.436 -0.2610 -0.0690 -0.1900
 2377W        W18561  18.766  19.150   0.117  0.0552  0.4145  0.1339
 2378W        W18562   3.285  14.978  12.612  0.2857 -0.0236 -0.0389
 2379W        W18563  10.849  13.828  10.880  0.0977  0.2627  0.2003
 2380W        W18564   7.823   7.173   3.880  0.2708 -0.0642 -0.0364
 2381W        W18565   3.176   1.010   3.880 -0.2054  0.2201  0.1079
 2382W        W18566   8.406   8.948   2.858 -0.1598 -0.4447  0.2413
 2383W        W18567  13.819   5.114   1.228 -0.2676  0.2189  0.0594
 2384W        W18568   7.804  16.558   1.186  0.0837 -0.1526  0.0289
 2385W        W18569  10.631  15.429   1.279  0.0625 -0.3317 -0.0562
 2386W        W18570  11.521  18.867   5.100 -0.1887 -0.0542  0.1865
 2387W        W18571   5.557  19.375   0.053  0.1789 -0.5750  0.0016
 2388W        W18572   1.121   5.768  13.442  0.3273 -0.3341  0.1577
 2389W        W18573  19.335  15.657  13.350 -0.1803  0.0531 -0.0973
 2390W        W18574   1.074   5.808   2.382  0.0496  0.0225 -0.3018
 2391W        W18575   1.318  13.850  14.349 -0.0631  0.1643 -0.0106
 2392W        W18576  18.548  18.425   5.649  0.0023 -0.1520 -0.1498
 2393W        W18577  14.271   0.537  14.076  0.0884  0.2260  0.1508
 2394W        W18578   7.959  17.327   2.877 -0.3225  0.0347  0.0192
 2395W        W18579  18.197  18.265   3.031  0.1320  0.3310  0.0674
 2396W        W18580   4.580   3.340   2.506 -0.0054 -0.1538 -0.0631
 2397W        W18581  19.075   3.581  14.575 -0.2021 -0.1606 -0.0245
 2398W        W18582   0.716  17.443   4.567  0.3929  0.1323  0.1964
 2399W        W18583  18.783  11.632  13.219 -0.0850 -0.1069 -0.1817
 2400W        W18584  15.824   0.880  12.594  0.2501 -0.0639  0.1150
 2401W        W18585   6.703  18.782  13.508 -0.1817  0.1861  0.2373
 2402W        W18586  16.073   2.146  10.255 -0.1130 -0.0124  0.3840
 2403W        W18587   1.803   2.438   1.430  0.3958 -0.0233  0.0456
 2404W        W18588   0.678  11.272   6.309  0.4264  0.5813 -0.3848
 2405W        W18589  14.201   4.688   3.245 -0.1548  0.0604 -0.0637
 2406W        W18590  16.957  12.151   3.705  0.2380 -0.3067  0.0740
 2407W        W18591   8.122  14.207   2.080  0.4362 -0.0381 -0.1799
 2408W        W18592  19.118   5.749   3.494  0.2694 -0.0500 -0.2825
 2409W        W18593   7.545   3.092   5.487 -0.1526 -0.4198  0.2661
 2410W        W18594   1.840  11.736   2.269  0.2499 -0.0637 -0.0251
 2411W        W18595   0.219   8.305   3.168 -0.0317  0.2615 -0.1756
 2412W        W18596   8.199  18.430   3.032  0.2041 -0.1791  0.1322
 2413W        W18597  10.881  17.438  10.569 -0.3457 -0.0712  0.1820
 2414W        W18598   5.555   4.183  12.732  0.3403 -0.1936  0.1111
 2415W        W18599  11.458   9.753  11.682  0.0766  0.1679 -0.0351
 2416W        W18600  11.126   0.228   0.999 -0.4216 -0.1002  0.1080
 2417W        W18601   9.805   3.743   5.207  0.1841  0.1412 -0.0262
 2418W        W18602  11.240  17.812   1.216 -0.0056 -0.1459 -0.1518
 2419W        W18603   1.077   5.191  12.251  0.3628  0.1468  0.0122
 2420W        W18604  16.267   9.197  10.757  0.1528 -0.0198  0.0405
 2421W        W18605   6.376   2.861  10.965 -0.0895 -0.0615 -0.2794
 2422W        W18606  10.661  12.084   1.876  0.3557 -0.0382  0.0684
 2423W        W18607   0.976   5.783   0.017  0.1708  0.0149  0.2193
 2424W        W18608  11.914   9.124   1.976  0.0340 -0.1389  0.1345
 2425W        W18609  18.041  16.734   4.638 -0.0028 -0.2749  0.0724
 2426W        W18610   1.850  11.532   4.834 -0.0739 -0.1202 -0.3466
 2427W        W18611  18.468  12.064   5.022  0.2683 -0.0083 -0.1283
 2428W        W18612  15.502   2.078   5.242  0.2318 -0.3154 -0.2404
 2429W        W18613  13.221  18.672   1.056 -0.0373  0.1395  0.0102
 2430W        W18614   0.761  15.279  13.961 -0.2585 -0.1016  0.0430
 2431W        W18615  16.641  16.393  11.035 -0.2285  0.3014  0.3230
 2432W        W18616   3.229  14.455   2.373 -0.0877  0.2971  0.2249
 2433W        W18617  12.521  17.312   4.005 -0.4158 -0.1649  0.2284
 2434W        W18618  12.976  18.554  14.284  0.1584  0.2202 -0.1394
 2435W        W18619  18.284   0.604  10.159  0.1831 -0.1809 -0.4096
 2436W        W18620   3.606  13.427   3.385 -0.2125  0.3150  0.3220
 2437W        W18621  16.296   2.427   2.582 -0.2553  0.2156 -0.1987
 2438W        W18622   5.919   7.653  14.759 -0.1088  0.0859 -0.2057
 2439W        W18623   9.187  14.413  12.632  0.0536 -0.3336  0.1097
 2440W        W18624  18.792   8.599   2.652 -0.2307 -0.1292 -0.1594
 2441W        W18625   6.056   9.521  14.354  0.1905  0.0081  0.0334
 2442W        W18626   1.043  14.120   0.728 -0.0112 -0.1665  0.4069
 2443W        W18627   3.760  14.494  13.270 -0.0907  0.0946 -0.1022
 2444W        W18628   9.034   9.750  11.793  0.0997  0.1031 -0.1901
 2445W        W18629  17.824   2.246   2.005 -0.3991  0.3056  0.1721
 2446W        W18630  17.636  11.138  13.639  0.2022  0.2038 -0.1807
 2447W        W18631   8.075  11.499  12.053  0.0350  0.3308  0.1263
 2448W        W18632   9.581   3.969   1.743  0.2731 -0.1809  0.0524
 2449W        W18633   8.284  15.163   0.259  0.1376 -0.2506  0.0423
 2450W        W18634  17.308  10.779  13.056 -0.0484 -0.5034  0.1191
 2451W        W18635  18.683  17.231   0.813 -0.3027 -0.0947 -0.1440
 2452W        W18636   2.496   8.182   5.130 -0.1324  0.1519  0.2356
 2453W        W18637  16.884  15.485   3.125  0.0481 -0.2481 -0.1000
 2454W        W18638  13.118   1.030   1.007  0.2151 -0.3866 -0.1571
 2455W        W18639   9.228  18.126  11.132  0.2213  0.1368 -0.2913
 2456W        W18640   4.516  12.829   2.248  0.0689 -0.2550 -0.2275
 2457W        W18641  16.285  14.222  14.254 -0.1080  0.1254  0.0759
 2458W        W18642  17.841   9.711   0.833  0.2829 -0.0066  0.2163
 2459W        W18643   4.719   7.581   0.649 -0.0350 -0.1350 -0.2142
 2460W        W18644  13.179  15.346   1.016 -0.1018  0.0103  0.1937
 2461W        W18645  15.158  18.305   3.697  0.0262 -0.3358 -0.1730
 2462W        W18646  19.139   6.335  10.912  0.0711  0.0178  0.0678
 2463W        W18647   2.039  10.739   2.146 -0.2635 -0.4041 -0.0340
 2464W        W18648   7.211  18.277   2.484 -0.1319  0.4530  0.1395
 2465W        W18649  16.037   8.103  14.019 -0.0368  0.0335 -0.0402
 2466W        W18650  15.934  10.080   5.191 -0.0514  0.0770 -0.1708
 2467W        W18651  10.838  14.419   4.163  0.4355  0.1921  0.1167
 2468W        W18652   3.208  11.682  12.328  0.1058 -0.1101  0.0609
 2469W        W18653   9.348   8.588  10.378 -0.5173 -0.1533  0.0530
 2470W        W18654   1.852   0.753   4.652 -0.2317  0.2706 -0.0064
 2471W        W18655   6.535   4.061   0.201  0.2023 -0.1293 -0.2239
 2472W        W18656   6.538   8.283   1.433 -0.1763  0.2153 -0.3080
 2473W        W18657  13.121  13.895  10.153 -0.1312 -0.1397  0.0760
 2474W        W18658   8.067  13.082  13.403 -0.0189  0.0862 -0.0968
 2475W        W18659  15.680  11.074   5.051  0.2611 -0.1187  0.0365
 2476W        W18660   7.162  12.984   4.970 -0.2451  0.2447  0.0444
 2477W        W18661   0.411  16.529   3.165 -0.0710  0.0421 -0.0608
 2478W        W18662   3.966   2.718   3.998  0.4067  0.3869 -0.2736
 2479W        W18663  16.475  12.670   1.045 -0.0735  0.3708  0.1555
 2480W        W18664   4.289   2.959   2.648  0.1578  0.0546 -0.1065
 2481W        W18665   5.629   8.010   3.267  0.2694  0.4485 -0.5351
 2482W        W18666  18.499   0.363   1.916  0.0077  0.1412 -0.0323
 2483W        W18667  15.055   3.584  14.553  0.2670  0.2172  0.4903
 2484W        W18668   0.590   0.981   2.798 -0.2238 -0.2335  0.1940
 2485W        W18669   8.471  14.646  11.022  0.2324 -0.1927  0.1684
 2486W        W18670   6.596   2.319   1.201  0.1474 -0.0560  0.0199
 2487W        W18671  18.882  10.131  14.399 -0.1327  0.1939  0.0822
 2488W        W18672   5.655  14.973   5.392  0.2272 -0.1484  0.0962
 2489W        W18673   4.040  10.072  10.898 -0.0485 -0.1198 -0.0175
 2490W        W18674  16.035  11.358  12.250 -0.1148  0.2339 -0.1657
 2491W        W18675   1.007  17.759  10.748  0.3042 -0.1614  0.0331
 2492W        W18676  13.886   7.492   3.864  0.3012 -0.3743 -0.1808
 2493W        W18677   8.323  17.498   0.997 -0.3585  0.3726 -0.3200
 2494W        W18678   7.442   6.464   1.198 -0.3778  0.0048 -0.5011
 2495W        W18679  16.319  16.427   2.078 -0.0007 -0.0240  0.3018
 2496W        W18680  17.389   2.927   1.235  0.3030 -0.3256 -0.0343
 2497W        W18681   5.078  13.937   3.537  0.0414 -0.0268  0.2289
 2498W        W18682  11.309  10.928  14.036  0.0221 -0.1538 -0.0278
 2499W        W18683  14.224  15.113   1.784  0.1636 -0.0310 -0.1617
 2500W        W18684   6.781  13.214  13.544  0.0870 -0.0828 -0.0161
 2501W        W18685   0.357   4.040   4.429 -0.1542 -0.3597 -0.2353
 2502W        W18686   4.848   3.646  13.266 -0.1670 -0.0531 -0.3072
 2503W        W18687  18.455   0.476   4.002 -0.2549 -0.1607  0.0156
 2504W        W18688   7.690   8.058   0.200 -0.0195 -0.1749  0.0442
 2505W        W18689   8.495   9.520  11.931  0.1094  0.2078 -0.0706
 2506W        W18690  16.411   0.835   3.242 -0.2115 -0.1595 -0.1981
 2507W        W18691  13.938   8.878   0.999  0.2601 -0.0929 -0.2731
 2508W        W18692  15.583  18.827  10.476  0.0964 -0.0832  0.2307
 2509W        W18693  12.489  14.125   4.462  0.1026  0.3740 -0.1285
 2510W        W18694   2.878  15.034  11.347  0.1315 -0.1971  0.2151
 2511W        W18695   4.623   1.274   2.170  0.0401 -0.0287  0.5595
 2512W        W18696  11.863   6.322   3.863  0.0570  0.1794  0.1350
 2513W        W18697  10.005   3.985   1.453 -0.1044 -0.0499 -0.1040
 2514W        W18698  11.380   0.687  12.061  0.0428 -0.2726 -0.0236
 2515W        W18699  15.012   2.872  12.379 -0.2487  0.1090 -0.0069
 2516W        W18700   9.980   4.594  11.843 -0.0467 -0.0707 -0.2715
 2517W        W18701  17.896   8.746  13.006  0.0828 -0.0177  0.0874
 2518W        W18702  11.233   1.192   4.396  0.1865  0.1050 -0.0766
 2519W        W18703   7.272  15.571  11.328 -0.2038  0.1531  0.2007
 2520W        W18704   4.523  18.722   0.288  0.5300  0.0095 -0.4100
 2521W        W18705  10.668   6.775   3.835 -0.2021 -0.0826 -0.1322
 2522W        W18706  16.070  15.813   4.298  0.3864 -0.0376 -0.3429
 2523W        W18707   4.090  11.696  14.828 -0.2745 -0.3326 -0.0121
 2524W        W18708  16.398  11.517   0.685  0.1477  0.0050  0.4216
 2525W        W18709   6.316  10.948   1.684  0.0349 -0.0060 -0.4911
 2526W        W18710   4.976   0.057   0.785  0.2578 -0.2218 -0.1431
 2527W        W18711   1.469  12.299  11.130 -0.1708  0.1917 -0.2575
 2528W        W18712  16.629   2.832  11.610 -0.2138  0.1838  0.1595
 2529W        W18713   3.722  13.984   1.921  0.0438 -0.0322 -0.1688
 2530W        W18714   2.225  18.613  10.961  0.0687  0.0044  0.1179
 2531W        W18715   8.447  19.101  12.081  0.2235  0.0989  0.3187
 2532W        W18716   4.138  15.521  11.028 -0.0219  0.0955  0.0270
 2533W        W18717  13.776   1.259   2.829  0.1139  0.0746 -0.1085
 2534W        W18718   7.207  17.574   3.990 -0.1521  0.0557  0.0553
 2535W        W18719   3.225  10.074   3.032  0.1720 -0.0028 -0.1323
 2536W        W18720  12.305   5.044   0.117 -0.0054  0.1803  0.2136
 2537W        W18721  11.520  11.082   1.463 -0.1695  0.0679 -0.0238
 2538W        W18722   3.596   6.611   0.513 -0.1167  0.4098  0.0736
 2539W        W18723   3.575   1.350   4.569 -0.3625 -0.1511 -0.0134
 2540W        W18724  18.179   6.770  12.381  0.1610 -0.1408  0.1798
 2541W        W18725   6.670   3.266   2.502  0.2587  0.1366 -0.1154
 2542W        W18726   1.446  13.304  14.841  0.2446  0.2494 -0.2542
 2543W        W18727   7.360  14.588  12.666 -0.1144 -0.0353 -0.1051
 2544W        W18728   2.321   1.925  13.141  0.3121 -0.1246  0.2772
 2545W        W18729  18.226  14.388  10.569 -0.2525 -0.1573  0.2252
 2546W        W18730   7.733  11.610   1.104 -0.1506  0.0925 -0.3707
 2547W        W18731   8.443  15.063   2.937 -0.0008  0.1895  0.3008
 2548W        W18732  19.071   7.782   3.760  0.2162  0.2107  0.0965
 2549W        W18733   1.465   1.979   0.241 -0.1046 -0.1035  0.0502
 2550W        W18734   2.455  16.827   2.515  0.0900  0.0520  0.1580
 2551W        W18735  16.984  17.165  13.301  0.1791 -0.4035 -0.5121
 2552W        W18736  12.282   1.679  10.280  0.0108 -0.0621  0.4017
 2553W        W18737  13.124   5.691   0.987 -0.0055  0.1424 -0.1019
 2554W        W18738  15.084   1.803  13.125 -0.2341  0.1810  0.3964
 2555W        W18739   5.464   1.081   2.293  0.1111  0.2221 -0.0509
 2556W        W18740   4.433  10.964   1.048  0.1017 -0.4224 -0.0278
 2557W        W18741   5.520   0.124  13.936  0.1124 -0.2847 -0.1635
 2558W        W18742  11.061  14.834  11.978  0.0431 -0.1516 -0.2016
 2559W        W18743   5.317   0.977  12.712  0.1161 -0.3842  0.2313
 2560W        W18744   1.209  14.457   3.108 -0.0138  0.1227 -0.0643
 2561W        W18745   1.804  17.568   0.398 -0.4173  0.2115  0.0258
 2562W        W18746  10.871  10.579  11.737 -0.0219  0.0909  0.2992
 2563W        W18747   4.638  12.866  12.507  0.2223  0.0328 -0.1536
 2564W        W18748   4.950   0.686   3.523  0.1469 -0.1451  0.2231
 2565W        W18749   7.497  15.234  13.461 -0.1863 -0.1691  0.1124
 2566W        W18750   3.998  11.831  11.889  0.1742 -0.2018  0.1963
 2567W        W18751  12.630  17.704   0.851 -0.2374 -0.0145  0.1715
 2568W        W18752   0.593  15.699  14.283  0.1359 -0.0524  0.1911
 2569W        W18753   8.568   0.594  13.583  0.0402 -0.1013 -0.4190
 2570W        W18754   7.966   6.709  12.353 -0.0378 -0.1527  0.0165
 2571W        W18755  11.289  14.335  12.430 -0.0254  0.1486  0.0267
 2572W        W18756  12.142  13.740   3.287 -0.1742  0.2002  0.1040
 2573W        W18757  15.487  18.510   0.860 -0.0013 -0.2804 -0.5083
 2574W        W18758   3.469  11.319   1.777  0.2075  0.0942  0.0981
 2575W        W18759   8.887  15.292   3.678  0.0201  0.0118  0.0389
 2576W        W18760   9.331  14.177   1.865 -0.0989  0.1269 -0.0930
 2577W        W18761   9.941   5.883   2.453 -0.0925 -0.3151  0.1472
 2578W        W18762   3.732  10.297   5.371  0.0567 -0.1681  0.0859
 2579W        W18763  16.303   7.951  12.387  0.1495 -0.0220  0.0720
 2580W        W18764   8.218  17.877   2.225  0.0662 -0.1854 -0.2624
 2581W        W18765   7.394   3.675  11.034  0.0817 -0.3764  0.1760
 2582W        W18766   1.533   7.615   3.371  0.3722  0.1297  0.0012
 2583W        W18767  14.256   0.414  11.430 -0.1065 -0.2143  0.3016
 2584W        W18768   0.751   8.732  12.814 -0.0166 -0.4142  0.1397
 2585W        W18769   7.954  16.841   1.617 -0.1803  0.1836  0.1543
 2586W        W18770  11.010  12.034   0.614  0.1544 -0.1489 -0.0427
 2587W        W18771  13.707  11.111  11.626  0.2924 -0.3615 -0.3877
 2588W        W18772   7.054   5.050   4.373  0.5985  0.2578  0.1149
 2589W        W18773   1.762   4.503   5.381  0.0112 -0.1058 -0.1565
 2590W        W18774  11.713   0.728   2.705  0.1493  0.0269  0.2827
 2591W        W18775  10.982  17.425   0.927  0.3736  0.0738 -0.2383
 2592W        W18776   9.646  15.325   4.142  0.1657  0.2547 -0.2010
 2593W        W18777  15.679   3.401   9.978 -0.2101 -0.2794 -0.0985
 2594W        W18778  15.078  12.962  13.717  0.0436 -0.1358 -0.0360
 2595W        W18779  13.597  14.037   1.506  0.0723 -0.2774 -0.0161
 2596W        W18780  16.447   6.620  11.201 -0.0899 -0.1098  0.1179
 2597W        W18781   6.388  17.878  11.691 -0.0201  0.1218 -0.2766
 2598W        W18782  10.344   3.733   0.213  0.0469  0.1483 -0.0682
 2599W        W18783   7.658  14.978   1.012  0.1859  0.4825 -0.2296
 2600W        W18784  11.736  19.370   0.383  0.4173  0.4336  0.0588
 2601W        W18785   4.284   0.147  12.486 -0.0768 -0.1842  0.0430
 2602W        W18786  13.641   4.745   1.514  0.1265  0.1352 -0.0753
 2603W        W18787  14.882  10.999  13.284  0.1226 -0.1202 -0.0734
 2604W        W18788  19.375  17.929  11.485  0.0180 -0.0256  0.0105
 2605W        W18789  10.004  12.282   3.238 -0.1686 -0.3458  0.4579
 2606W        W18790   1.617   4.649   3.868 -0.0860 -0.0222 -0.1790
 2607W        W18791   3.433   7.332   3.931 -0.0544 -0.1633 -0.4294
 2608W        W18792  14.851  17.593   3.212  0.0255  0.2939 -0.4330
 2609W        W18793  11.969   9.226  14.877 -0.0356  0.0562 -0.0660
 2610W        W18794  11.999   7.884  14.045  0.0411  0.0420  0.1781
 2611W        W18795   4.481   6.667   3.297  0.0502 -0.1731 -0.1316
 2612W        W18796   4.597  14.888   0.931  0.1284 -0.2223  0.0532
 2613W        W18797  12.291   0.820  14.571  0.0733  0.0204  0.0082
 2614W        W18798   5.791   2.572  11.538  0.2519 -0.3590 -0.5340
 2615W        W18799   0.306   4.858  11.801  0.0947 -0.0325 -0.2369
 2616W        W18800   1.660  16.637   0.824  0.0583  0.3542 -0.1484
 2617W        W18801  10.125  11.984  14.806  0.2595 -0.3965 -0.2315
 2618W        W18802   2.156   9.239  13.129 -0.2425  0.2311 -0.1860
 2619W        W18803  13.461  15.785   2.068  0.1737 -0.0069 -0.0225
 2620W        W18804   6.211   3.167  11.286 -0.0026 -0.1837 -0.1954
 2621W        W18805   3.174  17.493   0.512  0.1380  0.1110  0.0131
 2622W        W18806   4.119  18.285   3.828  0.0472 -0.0792  0.2172
 2623W        W18807  16.858  18.004   3.094  0.1589 -0.4284 -0.0422
 2624W        W18808   9.120   8.014   4.889 -0.0000 -0.3952 -0.0021
 2625W        W18809  16.718  12.426   4.212 -0.0195 -0.1588 -0.2333
 2626W        W18810  11.502   1.125   2.454 -0.0000  0.1639 -0.0205
 2627W        W18811  16.087   6.835  14.545  0.2685 -0.0818  0.0935
 2628W        W18812   0.463   3.301   3.190  0.0214  0.0851  0.2005
 2629W        W18813  12.169   4.579  14.857 -0.3107 -0.0874 -0.6754
 2630W        W18814   4.097   4.281   3.360 -0.2436  0.0929 -0.0005
 2631W        W18815   2.957  17.041   4.090 -0.2354 -0.0048 -0.1615
 2632W        W18816   1.307  19.283  12.964 -0.2869 -0.2988  0.0823
 2633W        W18817   3.759  16.243  12.515 -0.2767  0.0239 -0.3153
 2634W        W18818   2.777   5.847  12.405  0.0173  0.1580  0.0794
 2635W        W18819   5.877   5.971   1.354  0.1688 -0.3222 -0.2485
 2636W        W18820  10.766  15.359  10.515 -0.2696 -0.3747  0.1059
 2637W        W18821  11.607  10.101   1.055 -0.0762 -0.0904 -0.1041
 2638W        W18822  10.975   4.008  10.459  0.1937 -0.1068 -0.0033
 2639W        W18823   3.435  19.047  13.132 -0.1541 -0.1326 -0.1965
 2640W        W18824  15.360   9.605  12.202  0.0833  0.1061 -0.1857
 2641W        W18825   0.425   7.987   0.763  0.4864  0.1077  0.2630
 2642W        W18826   4.799   0.589  13.568  0.0266  0.3018  0.1168
 2643W        W18827   9.009   3.534   2.729 -0.1400 -0.1871  0.1437
 2644W        W18828  19.383  15.094  12.592  0.0698 -0.0193 -0.4626
 2645W        W18829   4.122  14.439  14.274 -0.0704 -0.2061  0.1218
 2646W        W18830  15.210   2.484   3.731  0.2221  0.1405 -0.0661
 2647W        W18831   5.930  15.902   5.244  0.1841  0.2307 -0.0812
 2648W        W18832  12.953   2.113  14.526  0.1931 -0.2218 -0.1445
 2649W        W18833  17.750  14.074  11.390  0.0417  0.1726  0.3581
 2650W        W18834  13.522  15.168  12.919 -0.0542 -0.2586 -0.0366
 2651W        W18835  17.948  14.046   5.218 -0.1387 -0.1054 -0.1100
 2652W        W18836   2.421  14.631   2.686  0.1107 -0.2921  0.0277
 2653W        W18837  10.887  18.926   1.791 -0.1672 -0.2433  0.0462
 2654W        W18838  16.403  12.523   2.033 -0.0695  0.1797 -0.2630
 2655W        W18839  16.394   1.853  14.221 -0.4088  0.0645  0.4145
 2656W        W18840   7.934   5.503  12.491 -0.2632 -0.2001 -0.3410
 2657W        W18841  17.770  18.798  13.415 -0.1037  0.0444 -0.0495
 2658W        W18842  13.476   4.965  13.078  0.0677  0.2251  0.0839
 2659W        W18843  15.805   3.733  10.355 -0.0686 -0.2104  0.0355
 2660W        W18844  19.146   4.796   3.997  0.0995  0.3074 -0.0142
 2661W        W18845  11.517   3.679  10.330 -0.3343  0.2875  0.0050
 2662W        W18846   0.369  17.049   4.659  0.1834  0.1372  0.1598
 2663W        W18847  19.192   9.000  10.399  0.1975  0.0118  0.0039
 2664W        W18848   2.282   1.451  14.242  0.1925  0.0174 -0.5016
 2665W        W18849  10.372  14.515   1.655 -0.0366  0.1729 -0.0695
 2666W        W18850   8.609  11.452   2.064 -0.2416 -0.1094  0.0436
 2667W        W18851  12.660   1.117  12.160  0.2644 -0.1656  0.1921
 2668W        W18852  13.373   2.760   2.822  0.2282  0.1711 -0.4337
 2669W        W18853  13.345  16.415   0.562 -0.0809  0.1584 -0.0380
 2670W        W18854   2.890   4.379  11.339 -0.0809 -0.1253  0.1846
 2671W        W18855   9.379   6.488  14.075  0.0025  0.3750  0.1598
 2672W        W18856   1.135  16.336  12.946 -0.1669 -0.2386 -0.0384
 2673W        W18857   5.486  16.822  12.046 -0.0755 -0.3141  0.0024
 2674W        W18858  17.159  11.935  13.916 -0.1948 -0.0909 -0.3137
 2675W        W18859  14.779  12.841  11.309 -0.0826 -0.2085  0.1109
 2676W        W18860  15.103  15.183   4.252 -0.1283 -0.1849 -0.1540
 2677W        W18861   0.907  13.382   1.721 -0.1558 -0.0638  0.1926
 2678W        W18862   3.278  11.809  14.272  0.1362 -0.1640 -0.0950
 2679W        W18863   2.254  14.696   4.344 -0.0923 -0.1547 -0.2235
 2680W        W18864  16.514   9.151   1.057  0.0569 -0.2792  0.2779
 2681W        W18865  13.340  13.268   3.289  0.0978 -0.1621 -0.1161
 2682W        W18866  11.307   7.554  10.171 -0.0475 -0.4436 -0.3586
 2683W        W18867   9.402  18.144  12.380  0.1855 -0.1824 -0.2078
 2684W        W18868   1.392   9.487   3.784 -0.0864  0.2469 -0.1491
 2685W        W18869  16.994   8.898   1.120 -0.0544  0.4938 -0.0762
 2686W        W18870  12.025  15.138  12.194  0.0932  0.0663 -0.1997
 2687W        W18871   4.917   2.279   4.550 -0.2808  0.0714 -0.0230
 2688W        W18872  10.118   1.340   4.995 -0.2198 -0.0105 -0.1653
 2689W        W18873   5.709   8.873   2.561  0.3263  0.2324  0.0509
 2690W        W18874   0.638   8.403   5.558  0.1277 -0.0552  0.3578
 2691W        W18875   4.101  18.019   3.380  0.0672  0.2266 -0.4201
 2692W        W18876  12.398  10.710   2.903 -0.1341  0.1482 -0.1154
 2693W        W18877   9.050  11.459  10.614  0.0743  0.3072 -0.0884
 2694W        W18878   2.617  17.667   2.481 -0.1305 -0.0483 -0.4754
 2695W        W18879   8.685   8.071   0.336 -0.1235 -0.0065 -0.0245
 2696W        W18880  18.634   8.293   0.111  0.0573  0.1880 -0.5166
 2697W        W18881   3.384  11.885  13.785 -0.0942 -0.1824  0.0923
 2698W        W18882   4.066   6.766   0.487 -0.0262 -0.1206 -0.1593
 2699W        W18883  16.356  16.436  12.961  0.0903 -0.0079 -0.1036
 2700W        W18884  18.818   3.101  12.105  0.0162 -0.2665 -0.0954
 2701W        W18885  16.151  11.179   1.232  0.4029  0.0687 -0.0338
 2702W        W18886   4.427   9.348   3.105  0.0151 -0.2312 -0.4303
 2703W        W18887   5.942   8.528   6.132  0.0517  0.1214  0.0416
 2704W        W18888  16.946   5.140   5.134  0.1475  0.3336  0.2496
 2705W        W18889   3.441   7.084   2.610  0.6067  0.0243 -0.0065
 2706W        W18890  13.911   7.798   2.930 -0.0672  0.0569 -0.0764
 2707W        W18891  11.205   8.422   0.632 -0.0586 -0.2202 -0.1893
 2708W        W18892  12.759  16.059   3.764 -0.2263 -0.2740 -0.0145
 2709W        W18893   0.814  17.517   1.386  0.2142 -0.3151 -0.0104
 2710W        W18894  14.742  17.526   3.775  0.0870  0.2824  0.0999
 2711W        W18895   0.528  14.659   0.002  0.0336  0.0729  0.2705
 2712W        W18896   2.317  15.597  13.641  0.0662  0.2201  0.5206
 2713W        W18897   4.209   1.890  11.451 -0.0528 -0.2493 -0.0426
 2714W        W18898  14.041  11.388  13.514  0.1218  0.0002 -0.1655
 2715W        W18899   2.669   5.277   0.262  0.0674  0.1401  0.0071
 2716W        W18900  10.735  13.222  10.835 -0.1403  0.0990 -0.0061
 2717W        W18901  11.463  11.352   2.877 -0.0958 -0.1834 -0.0241
 2718W        W18902  19.209   3.890   4.911  0.0874  0.0530  0.2498
 2719W        W18903   1.343   3.407   3.391  0.1141  0.0627  0.0289
 2720W        W18904  19.014   9.478   2.485  0.1852  0.1781 -0.0530
 2721W        W18905   2.885   0.391  12.323  0.0814 -0.0813  0.1229
 2722W        W18906  13.950   4.245   3.180  0.1159  0.0379  0.1965
 2723W        W18907   7.687   2.389  13.679 -0.1768 -0.0929  0.1624
 2724W        W18908   6.128  12.531  14.610 -0.6378  0.0068 -0.2434
 2725W        W18909   9.250   0.611   4.001  0.2340  0.0767 -0.1616
 2726W        W18910   3.140  16.957   4.517 -0.0622 -0.1391 -0.0655
 2727W        W18911   3.953  12.301   0.484  0.2270 -0.0367  0.2892
 2728W        W18912   8.764   4.953  13.720  0.0621  0.4248 -0.0160
 2729W        W18913  10.328   3.757  11.805  0.0390 -0.2257  0.0393
 2730W        W18914   3.966  11.925  11.029 -0.1598  0.2857  0.1127
 2731W        W18915   3.131   7.461   4.317  0.0222 -0.0573 -0.4565
 2732W        W18916   6.064   5.808   5.009 -0.2577 -0.1872  0.4211
 2733W        W18917   9.147   5.648   0.967 -0.0807  0.3559  0.3413
 2734W        W18918  18.232   2.916  10.734 -0.0572 -0.0784  0.0076
 2735W        W18919  19.215   8.793   1.220  0.0795 -0.2447 -0.0605
 2736W        W18920  17.636   3.848  13.981  0.1059  0.0145  0.0507
 2737W        W18921  17.682   7.200  11.718  0.0166  0.0681  0.0554
 2738W        W18922  14.021   8.477  10.487  0.0168  0.2223 -0.1760
 2739W        W18923  14.747   1.574   3.700  0.2184  0.5364 -0.0897
 2740W        W18924  16.490   7.518   4.840  0.1608  0.2951  0.1603
 2741W        W18925   0.217  15.909   1.427 -0.0543 -0.0000 -0.1155
 2742W        W18926  13.323   8.538   0.562 -0.0394 -0.1950 -0.2704
 2743W        W18927   4.009  14.008  13.365  0.1293 -0.1833 -0.0509
 2744W        W18928   1.866  17.866  14.448  0.0033  0.1576 -0.0138
 2745W        W18929  11.700   8.441   3.440 -0.0218  0.1692 -0.2927
 2746W        W18930   1.849   8.735  11.320 -0.1944 -0.1631 -0.0703
 2747W        W18931   8.648  15.373  12.373  0.2160 -0.2018 -0.0203
 2748W        W18932   0.847   2.752   0.533 -0.2911 -0.1131 -0.1059
 2749W        W18933  16.522   7.272  13.394  0.1212  0.0602  0.3992
 2750W        W18934   1.313   9.267   3.297 -0.2079 -0.0437 -0.0863
 2751W        W18935  16.035  13.262  13.587  0.0008  0.0513 -0.1796
 2752W        W18936   4.931  11.916  12.350  0.1357 -0.2610  0.0953
 2753W        W18937  15.345  12.291   3.627  0.1436 -0.2366 -0.1994
 2754W        W18938   3.371  10.711   1.774 -0.2242 -0.1844 -0.3160
 2755W        W18939   3.260  11.101   0.121 -0.1761 -0.0611 -0.1880
 2756W        W18940   7.198  14.898  14.097 -0.4806 -0.1848 -0.2283
 2757W        W18941   0.385  11.514  10.893 -0.0004 -0.1422 -0.2000
 2758W        W18942   7.586   5.574  12.881 -0.0818  0.0148  0.1803
 2759W        W18943  10.143  14.021   0.806 -0.0958  0.1519 -0.0259
 2760W        W18944   5.269  12.274   3.014  0.1238  0.2237  0.1482
 2761W        W18945  11.941  17.988   3.790  0.0174  0.4505  0.1404
 2762W        W18946   2.636   0.232  12.785 -0.3149 -0.2093 -0.1330
 2763W        W18947  13.997   4.272   4.468  0.0044  0.2217 -0.0164
 2764W        W18948   0.743  15.919  12.155 -0.0399  0.3162  0.0979
 2765W        W18949   4.308   1.686   5.251 -0.1889  0.1608 -0.1675
 2766W        W18950   9.949   7.587   5.196  0.1957 -0.1133  0.2651
 2767W        W18951   2.519   2.224  11.028  0.0914 -0.1413 -0.1974
 2768W        W18952  15.800   2.569  14.011  0.1611  0.2293 -0.0444
 2769W        W18953   6.692   1.857  14.252 -0.1262 -0.0623  0.0054
 2770W        W18954  10.240  17.656  13.386 -0.2020 -0.0860 -0.2257
 2771W        W18955  18.126  15.278   9.944  0.0598  0.0683  0.1170
 2772W        W18956  13.202   4.255  10.992 -0.0174 -0.3039  0.0422
 2773W        W18957   9.149  17.842   3.632  0.2866 -0.0476  0.3865
 2774W        W18958   6.557   8.734   5.495 -0.1802  0.1725  0.0474
 2775W        W18959   8.516   2.214   3.262  0.0738 -0.0712  0.1928
 2776W        W18960  17.978  15.274   4.955 -0.0137 -0.3634  0.0185
 2777W        W18961   4.289   5.790  14.624 -0.0614 -0.1853  0.2955
 2778W        W18962   8.712  13.406  11.925  0.1978 -0.0538  0.1979
 2779W        W18963   3.828  14.315  12.430  0.0565 -0.1056 -0.0385
 2780W        W18964  10.913  19.295  10.299 -0.0390 -0.3249  0.1432
 2781W        W18965  16.239  14.622   0.997 -0.0438 -0.0164  0.1055
 2782W        W18966  13.161  10.882   1.703  0.0813 -0.3697  0.3947
 2783W        W18967  18.766  19.302  10.631 -0.0934 -0.0091  0.2133
 2784W        W18968  11.232   5.911  11.929 -0.5050 -0.0983 -0.1035
 2785W        W18969   7.475   9.369   3.030 -0.0726  0.2058  0.2962
 2786W        W18970   3.751   4.664   3.532 -0.0447 -0.0459  0.0426
 2787W        W18971  19.368  16.364   0.710  0.1007  0.3460 -0.2345
 2788W        W18972   2.003   8.846   2.754 -0.2577 -0.1745  0.0337
 2789W        W18973   0.882   2.254   0.439  0.0647  0.2418  0.0984
 2790W        W18974   4.249  12.231   0.905  0.0075 -0.0230 -0.1065
 2791W        W18975  12.032  13.357  11.235 -0.2284 -0.2653  0.0474
 2792W        W18976   4.545  12.383   2.541 -0.2485  0.0621  0.2835
 2793W        W18977   7.338   7.097  14.425 -0.4703  0.0167  0.1098
 2794W        W18978   5.254   5.771  12.942  0.1505  0.0434  0.0041
 2795W        W18979  12.019   1.108   1.759 -0.1726 -0.1818 -0.2314
 2796W        W18980  19.142  13.741   1.896  0.2065 -0.3680 -0.1764
 2797W        W18981  14.132   9.381  11.507  0.0183 -0.0993  0.0039
 2798W        W18982   7.962  16.844   0.778 -0.2023  0.1282  0.1409
 2799W        W18983  18.213  13.403   4.792  0.1877  0.1195 -0.3271
 2800W        W18984   1.843   6.983   2.145 -0.1111 -0.5411 -0.2103
 2801W        W18985  15.447   7.457  10.737  0.0457 -0.0833  0.2819
 2802W        W18986   2.351  18.606   9.552 -0.5381 -0.3578 -0.1906
 2803W        W18987  15.544   1.467   5.073  0.1663 -0.1091 -0.0656
 2804W        W18988   9.464   7.611  12.750 -0.1565  0.2241 -0.3754
 2805W        W18989   4.925   1.689   3.028 -0.1428 -0.1478 -0.0589
 2806W        W18990  13.550   0.298   4.812  0.1061 -0.0151  0.1223
 2807W        W18991   6.348   5.178  11.430  0.2612 -0.2694 -0.0249
 2808W        W18992   3.204  16.814  13.250  0.1842  0.3541  0.0797
 2809W        W18993  11.632   3.471   1.620 -0.0876  0.1435 -0.1804
 2810W        W18994   2.529   4.209   3.384  0.1241  0.0844 -0.3251
 2811W        W18995   0.394  14.447   2.406  0.1617 -0.1576  0.0839
 2812W        W18996  19.252   4.151   3.262 -0.2321 -0.0807  0.0904
 2813W        W18997  12.494   3.882  12.078  0.4312  0.0729  0.0811
 2814W        W18998  18.549   0.003  11.535  0.3190 -0.2592  0.2705
 2815W        W18999  16.176  17.468  14.422 -0.1004 -0.1432 -0.2219
 2816W        W19000  15.089  15.964   3.375 -0.1184  0.0597  0.0017
 2817W        W19001   0.396   2.261   2.882  0.0496 -0.1483 -0.0609
 2818W        W19002  14.455   2.854   3.961 -0.1002 -0.3317 -0.2676
 2819W        W19003   6.293   6.551   5.228 -0.1385  0.3659  0.1525
 2820W        W19004   4.389   3.316  11.932 -0.3406 -0.0786 -0.1080
 2821W        W19005  18.607  15.230   2.159  0.0940 -0.0891  0.0168
 2822W        W19006  14.063  17.685   5.049  0.2800 -0.3296  0.1354
 2823W        W19007   5.410  10.651   2.839 -0.3785 -0.2114  0.1640
 2824W        W19008  11.581   9.718   3.288  0.1757 -0.1176  0.0100
 2825W        W19009   3.185   3.894   2.465  0.3331  0.1321  0.0641
 2826W        W19010  10.405   1.586  13.344 -0.0439 -0.0328 -0.1298
 2827W        W19011   2.884  10.483   1.364 -0.2570 -0.1079  0.3160
 2828W        W19012   5.410  17.495   1.927 -0.1384 -0.1585 -0.0024
 2829W        W19013  11.258  14.692   4.037  0.2253  0.1248  0.2032
 2830W        W19014  12.445  10.485  14.896 -0.3022  0.0447 -0.5075
 2831W        W19015   2.831   3.013  14.552  0.2147  0.1647  0.1203
 2832W        W19016   9.376   7.687   2.159 -0.0529  0.0198  0.0136
 2833W        W19017  13.070  17.244   1.569 -0.0504  0.0503 -0.2339
 2834W        W19018   3.737   2.898   3.235  0.2501 -0.0238 -0.1679
 2835W        W19019  12.048  18.106  13.044  0.1046  0.1181 -0.0417
 2836W        W19020   0.705   5.929  13.169  0.0595  0.2571 -0.0681
 2837W        W19021   2.721  14.520  13.270  0.2948 -0.1203 -0.0823
 2838W        W19022  14.463   1.036  13.981  0.1689  0.3395 -0.0801
 2839W        W19023   4.822   0.869  13.110  0.0537 -0.0161 -0.0681
 2840W        W19024   9.784  10.169   3.232  0.1034 -0.0863 -0.1870
 2841W        W19025   2.718   4.802  12.101 -0.0683 -0.1241 -0.2469
 2842W        W19026   7.456   1.935  12.106 -0.2041 -0.0031 -0.0001
 2843W        W19027   9.369   0.746  12.667 -0.1338 -0.1850 -0.2374
 2844W        W19028  13.024  15.378  10.657  0.0507  0.0463  0.0680
 2845W        W19029  17.446   9.004  11.474  0.0956  0.0918  0.0607
 2846W        W19030  17.812  17.729   4.324  0.0571  0.3101  0.2844
 2847W        W19031  12.542  12.888   0.982 -0.1532 -0.3157 -0.0529
 2848W        W19032  11.300   3.978  12.498 -0.1039 -0.2411  0.0258
 2849W        W19033  10.194  11.478  13.279  0.0889 -0.0430  0.0326
 2850W        W19034  17.790   3.746  10.746  0.0555  0.0046  0.1785
 2851W        W19035   6.348  12.238  11.561  0.2155  0.0731 -0.2891
 2852W        W19036  14.668   8.705  11.533 -0.0493  0.1328 -0.3186
 2853W        W19037   3.225   6.485   2.696 -0.0538  0.0005 -0.1575
 2854W        W19038  12.216  10.469  11.968 -0.0769 -0.1041 -0.1481
 2855W        W19039   6.247  16.805   5.130  0.2857  0.2982  0.0630
 2856W        W19040  14.092  16.366   9.841  0.0963  0.0473  0.5158
 2857W        W19041  15.881  18.217   0.631 -0.0176 -0.0516  0.0099
 2858W        W19042  17.460   0.224   2.313 -0.0813  0.0783 -0.1832
 2859W        W19043  10.602  12.389  10.331 -0.1733 -0.1382  0.1201
 2860W        W19044  17.137  14.214  13.280 -0.1023  0.0999 -0.1525
 2861W        W19045   9.753   8.905  14.005  0.1644 -0.0045  0.1738
 2862W        W19046   7.405  10.824  13.658 -0.0571  0.0127  0.2585
 2863W        W19047  16.557   6.910   4.410 -0.0089  0.0821 -0.1961
 2864W        W19048   8.261  10.148   3.807  0.0101 -0.1180  0.3365
 2865W        W19049  17.790  18.088  13.119  0.3648  0.0710  0.3686
 2866W        W19050   2.016  10.321   1.205 -0.0298  0.0324  0.0024
 2867W        W19051  10.361   5.817   2.185  0.2032  0.2364 -0.0546
 2868W        W19052   1.877  16.304   3.042 -0.3379 -0.0505  0.0067
 2869W        W19053  12.712   6.838  14.267  0.1663  0.1059 -0.5535
 2870W        W19054   0.781  18.789  13.555 -0.1694 -0.2725  0.0922
 2871W        W19055   2.634   2.832   4.288  0.2946 -0.0231  0.0410
 2872W        W19056   6.727   4.848   2.579  0.2441 -0.2830  0.2978
 2873W        W19057   5.422  19.112  12.827  0.0773 -0.3703  0.3136
 2874W        W19058   8.456  12.345  14.004 -0.2930  0.0899 -0.0530
 2875W        W19059   6.610   5.178   1.895 -0.2975 -0.1938  0.1944
 2876W        W19060  18.442   2.659   3.085  0.2126  0.2943  0.1152
 2877W        W19061   9.719  14.598   0.065  0.0452 -0.0004  0.1748
 2878W        W19062   3.851  10.010   4.916  0.2888 -0.3603 -0.0658
 2879W        W19063  11.597  16.228  13.032 -0.0415  0.0047 -0.0720
 2880W        W19064   3.982   6.295   5.897  0.2293 -0.2914  0.1371
 2881W        W19065   7.587  18.843  10.742  0.2435  0.1027  0.2452
 2882W        W19066  11.606   0.052   3.334  0.2502 -0.1223 -0.0134
 2883W        W19067   8.631  17.958  14.704  0.1256 -0.1547 -0.0223
 2884W        W19068   0.382   1.122  12.176  0.1769  0.0931 -0.3028
 2885W        W19069   2.042   9.487  11.904  0.1156  0.1494  0.1623
 2886W        W19070   3.812  10.966   0.065  0.0873 -0.0392 -0.0508
 2887W        W19071   8.041   6.920   4.890 -0.1615  0.0713 -0.1850
 2888W        W19072  15.194  12.271   1.092  0.0720  0.3720 -0.0456
 2889W        W19073   0.183   7.321   2.414 -0.4574 -0.1044  0.1968
 2890W        W19074  13.741   4.305  10.991  0.0990 -0.1519 -0.2405
 2891W        W19075   2.710   4.410  14.158 -0.0326  0.2277  0.1408
 2892W        W19076   0.454  15.841  12.646  0.1511  0.2208 -0.0969
 2893W        W19077   0.509  12.437  11.803 -0.0706 -0.2162  0.0169
 2894W        W19078   9.285  10.022  13.384 -0.0961 -0.3165  0.1844
 2895W        W19079   5.571   9.411  11.089 -0.1460 -0.1262  0.1307
 2896W        W19080  10.929  17.516   1.490 -0.2491  0.0434  0.0747
 2897W        W19081   0.059   7.996  12.171  0.2298  0.1004  0.1784
 2898W        W19082   6.907   8.690   0.063 -0.2315  0.1226 -0.2238
 2899W        W19083  15.728  16.451   2.086 -0.0010 -0.1413 -0.2964
 2900W        W19084  18.814   3.371  14.197  0.1755 -0.0424  0.0688
 2901W        W19085   9.784  17.837   2.545  0.2168  0.3401 -0.2788
 2902W        W19086  11.234  18.254  14.275  0.1658 -0.1387 -0.0077
 2903W        W19087  18.117  11.134  13.509 -0.2185 -0.0252  0.1513
 2904W        W19088  11.326  15.135   4.806 -0.2501  0.1641 -0.2424
 2905W        W19089   4.306   2.917   1.282 -0.2427 -0.0097 -0.2682
 2906W        W19090   2.517  17.573   3.417  0.0617 -0.3353 -0.1726
 2907W        W19091   5.820   8.128   5.118  0.1502  0.0043 -0.2162
 2908W        W19092  14.887   3.242   3.469 -0.0820  0.3318 -0.0365
 2909W        W19093  11.444  10.183   1.682  0.3643 -0.0994  0.1274
 2910W        W19094   5.358  11.590   2.413 -0.0146 -0.1820 -0.1073
 2911W        W19095  18.538   0.407   3.096  0.1902  0.0236  0.0175
 2912W        W19096   6.994  10.369   2.128  0.2267  0.0812  0.0423
 2913W        W19097   7.935   2.498  11.908  0.1284 -0.0881  0.4459
 2914W        W19098  10.205  11.137  11.263 -0.1135  0.0410  0.0728
 2915W        W19099   2.903   2.073   1.954  0.1013  0.0793  0.1815
 2916W        W19100  12.993  11.605  11.072  0.1112  0.0001  0.0305
 2917W        W19101  17.330   0.685  11.810  0.2074  0.0736  0.2679
 2918W        W19102  16.586   6.531   5.246  0.0768 -0.1604 -0.1039
 2919W        W19103   2.393   6.721  12.735  0.2095 -0.0810  0.0927
 2920W        W19104  10.387  18.820   5.626 -0.2966  0.5201  0.1474
 2921W        W19105   2.231  17.319   1.026 -0.0320  0.0040  0.1236
 2922W        W19106   7.993  11.368  11.566  0.0710 -0.1842 -0.1123
 2923W        W19107   2.827   7.325  10.820 -0.1415  0.2488 -0.2848
 2924W        W19108  15.058  13.601   0.980  0.3553 -0.0832 -0.3759
 2925W        W19109   8.968   7.213   3.380 -0.1864 -0.0491  0.1211
 2926W        W19110   2.513  13.779   0.028 -0.1000  0.0106  0.0785
 2927W        W19111  13.720  18.236  13.640  0.0928  0.2674  0.1704
 2928W        W19112   8.970   6.754   4.189  0.2390  0.0607 -0.1275
 2929W        W19113   3.217   6.956   5.658 -0.2167  0.0562  0.1136
 2930W        W19114  10.062   6.949   1.755  0.2357  0.1824 -0.3257
 2931W        W19115  16.772   7.321   0.108  0.2235 -0.3168  0.0308
 2932W        W19116   9.313   7.193   0.439 -0.0880 -0.0577  0.0582
 2933W        W19117   6.624   9.586  13.516 -0.0210  0.0098  0.2789
 2934W        W19118  18.722   6.443   5.263 -0.1875  0.2706 -0.0361
 2935W        W19119  10.068  19.087  12.298  0.2176  0.0317 -0.1250
 2936W        W19120   8.319  13.573   5.488 -0.2732  0.1358  0.0784
 2937W        W19121   4.761  13.190   3.065  0.3281 -0.1553  0.0519
 2938W        W19122   9.281  15.284  14.383 -0.2005 -0.0463  0.2819
 2939W        W19123  13.665  15.573  10.654  0.0356 -0.1208  0.0461
 2940W        W19124  16.030  11.814   2.035  0.1875 -0.2369 -0.0945
 2941W        W19125   8.106  13.502   3.399  0.2835  0.0006 -0.0325
 2942W        W19126   7.747   7.637   3.512 -0.0056 -0.1931 -0.3396
 2943W        W19127  16.513  18.699  12.001 -0.0815  0.2782  0.2723
 2944W        W19128  17.190   7.409   1.662 -0.0385  0.0304 -0.0636
 2945W        W19129   9.503   7.347   3.854  0.1809  0.0347  0.2121
 2946W        W19130   9.922   2.892   1.980 -0.5733  0.0153 -0.1354
 2947W        W19131   8.757  14.878  10.728  0.0331  0.0183  0.0742
 2948W        W19132   9.951  18.471   4.483 -0.2028  0.1848  0.2861
 2949W        W19133   8.223   7.214   5.255 -0.0934 -0.0055 -0.2580
 2950W        W19134  11.403  18.897   4.295 -0.1747 -0.2495  0.0463
 2951W        W19135  18.743  13.470  12.174  0.2533 -0.0035  0.0581
 2952W        W19136  13.232   9.378   3.382  0.0918  0.0663  0.0626
 2953W        W19137   7.532   8.900   4.929 -0.2984 -0.1809  0.0464
 2954W        W19138   9.298  10.478  12.438 -0.0635 -0.2317  0.0643
 2955W        W19139  10.557   6.281   2.109  0.3240 -0.0479  0.4229
 2956W        W19140   7.894   6.950   0.351 -0.3827  0.3206  0.2591
 2957W        W19141  16.312  11.583  12.779 -0.1129 -0.1245  0.1108
 2958W        W19142  13.730   9.597   9.556  0.1770  0.1594 -0.2289
 2959W        W19143  12.301   2.729   4.369  0.3915  0.1855 -0.0555
 2960W        W19144  17.454  14.421   4.701 -0.2179  0.0142 -0.0339
 2961W        W19145  19.258   2.922   1.939 -0.1888  0.2121 -0.4229
 2962W        W19146   5.680  18.600   0.880 -0.0613  0.1075 -0.1633
 2963W        W19147  17.703  11.457  14.475  0.0744 -0.3221  0.0460
 2964W        W19148   0.915  10.780  13.727 -0.0938  0.0008 -0.2340
 2965W        W19149  15.821   6.179  14.289  0.1725  0.4266 -0.2420
 2966W        W19150  12.825   2.824  11.345  0.1559  0.1739  0.0546
 2967W        W19151   5.222   6.801   3.537  0.1442 -0.2143  0.1494
 2968W        W19152  10.083   7.458   0.460  0.2865  0.0244  0.0567
 2969W        W19153   0.664   6.196   0.389 -0.2354  0.1635 -0.3005
 2970W        W19154  16.984   7.685   5.056  0.3988 -0.0659  0.3064
 2971W        W19155  19.054  16.532   2.623 -0.0243 -0.0344 -0.3815
 2972W        W19156  16.323   1.554  11.725  0.1671  0.3487  0.1028
 2973W        W19157   4.247  19.179   1.816 -0.0578  0.1357 -0.5377
 2974W        W19158   5.197  18.612   1.122  0.0127  0.2701 -0.0056
 2975W        W19159  14.191   8.831   0.038 -0.0413  0.0378 -0.2954
 2976W        W19160  12.110   4.012  13.998  0.2785 -0.0764 -0.3085
 2977W        W19161  17.137   7.444   0.631 -0.0049 -0.0941 -0.2280
 2978W        W19162  18.030   4.065  12.299  0.1834 -0.2018  0.1125
 2979W        W19163  12.800  11.100  12.076 -0.1617 -0.0653  0.1604
 2980W        W19164  13.731  12.842   0.127  0.0305 -0.0740 -0.1157
 2981W        W19165   0.620  15.030   5.438 -0.2628  0.0983 -0.0128
 2982W        W19166   8.135   7.673  11.445 -0.0754 -0.0916 -0.1088
 2983W        W19167  17.774   0.116   4.552 -0.1169 -0.2095  0.1350
 2984W        W19168  13.128  15.760   4.554  0.1088 -0.0174  0.4134
 2985W        W19169   9.126   5.385  13.055  0.3727  0.4108 -0.0723
 2986W        W19170  14.886   7.055   2.881 -0.0096 -0.0535  0.2185
 2987W        W19171  19.070  14.737   2.566  0.0032 -0.3166 -0.0850
 2988W        W19172   7.334   3.894   0.933  0.1780  0.0173 -0.1972
 2989W        W19173  15.708   7.448  14.090 -0.0609  0.1917 -0.0678
 2990W        W19174  10.033  10.553  14.636  0.1953  0.0965  0.2664
 2991W        W19175  17.457  12.555   1.462 -0.3164  0.0892 -0.4030
 2992W        W19176   9.883   8.359   0.040 -0.0193  0.0678 -0.0509
 2993W        W19177  12.999   1.031   2.187 -0.0730  0.0942  0.1491
 2994W        W19178  10.079  17.361  10.448 -0.0771  0.1117  0.0584
 2995W        W19179  11.833  18.042  11.557 -0.3796  0.2788  0.0113
 2996W        W19180  18.786  18.705  14.859  0.1125  0.3646 -0.3087
 2997W        W19181  16.049  18.825  10.660  0.1305 -0.0906  0.2819
 2998W        W19182   6.515   2.307   3.115  0.1161 -0.1644 -0.0287
 2999W        W19183  14.825  18.332  14.304  0.2480 -0.0314 -0.0907
 3000W        W19184   0.344  11.730  11.390 -0.1289 -0.1029  0.0589
 3001W        W19185  14.658   9.920  10.595 -0.2428 -0.3577  0.1003
 3002W        W19186  11.329  14.973  13.163 -0.1943 -0.0582 -0.0062
 3003W        W19187   0.292  16.277   2.264 -0.2421 -0.0647 -0.1142
 3004W        W19188   8.067  14.483   5.546  0.3540 -0.3593  0.0175
 3005W        W19189  17.034   9.821  14.329  0.2851 -0.1599 -0.0333
 3006W        W19190  18.460   6.989   5.359  0.1214  0.1673 -0.2486
 3007W        W19191  18.726   1.179  14.331 -0.1034 -0.0726  0.3402
 3008W        W19192  11.506   9.225   3.160  0.1437 -0.2716  0.0563
 3009W        W19193   6.330  13.024  12.533 -0.0458  0.1865  0.4222
 3010W        W19194   9.286   2.321  13.266  0.0669 -0.1834 -0.1575
 3011W        W19195  15.531   0.503   3.078 -0.0136 -0.1078  0.2815
 3012W        W19196  10.765   2.597   4.482 -0.0350 -0.1036  0.0163
 3013W        W19197   9.922   1.258  13.220 -0.2132  0.1955 -0.3111
 3014W        W19198  11.692  11.583   3.781  0.0506 -0.0280  0.1979
 3015W        W19199  16.927  13.133  14.078 -0.1714  0.1883 -0.1078
 3016W        W19200  11.745   3.155  11.519 -0.0180 -0.2076  0.2855
 3017W        W19201  15.820  13.748  13.751 -0.5298  0.0025  0.0210
 3018W        W19202  17.818  14.042  14.361  0.4051 -0.2755 -0.1791
 3019W        W19203   4.661  13.186   4.107 -0.3987 -0.0049  0.1738
 3020W        W19204   6.900   1.850   4.122  0.0391  0.0672  0.4001
 3021W        W19205   6.517   9.489  11.902 -0.2516 -0.0932  0.3395
 3022W        W19206   1.008   6.201   2.640  0.1538  0.4047  0.0109
 3023W        W19207   7.810   6.713  14.400  0.0513 -0.0997 -0.0731
 3024W        W19208  16.153   9.959  12.033 -0.1170  0.2337 -0.0037
 3025W        W19209   1.585  17.490   0.860 -0.1560  0.1876  0.4760
 3026W        W19210   8.441  10.011  12.822 -0.1605  0.6494 -0.1520
 3027W        W19211  17.482  12.533  11.500 -0.0345  0.1574  0.1306
 3028W        W19212   6.014  16.259  10.901  0.1659 -0.0550  0.0947
 3029W        W19213   5.062  13.212   0.472 -0.2206  0.0234  0.2862
 3030W        W19214   6.242   6.067   2.966  0.0010  0.0742 -0.0260
 3031W        W19215  12.778   1.633  14.477  0.0513  0.1178  0.0012
 3032W        W19216  16.821  14.401   2.684 -0.0001  0.2290  0.0777
 3033W        W19217   0.163   3.918  14.460 -0.1599  0.2930 -0.1273
 3034W        W19218   0.872   4.298  14.863 -0.4352  0.2378 -0.0249
 3035W        W19219  18.463  17.058   4.537  0.1956 -0.0546  0.0256
 3036W        W19220  11.879  11.431  11.003  0.0613 -0.2856  0.2568
 3037W        W19221   0.244   7.054   0.324 -0.0442  0.0920  0.1489
 3038W        W19222  11.792  15.027   4.456 -0.0798  0.4723  0.3369
 3039W        W19223  10.287   2.675   2.984  0.0072 -0.1956  0.4964
 3040W        W19224  15.934  10.605  12.914  0.5065  0.1128 -0.1227
 3041W        W19225   7.445   8.632   3.668 -0.3994  0.0067 -0.2946
 3042W        W19226  19.122   9.062   2.695  0.2281 -0.2173  0.1423
 3043W        W19227  15.315  16.861   0.464  0.1311  0.3315 -0.0024
 3044W        W19228  10.379   0.182  13.630 -0.0480  0.0592 -0.2387
 3045W        W19229   2.529  14.258  12.810 -0.1125 -0.3458  0.1383
 3046W        W19230  11.213   2.943   9.803 -0.0017 -0.1081  0.1164
 3047W        W19231   3.337  15.334   3.323 -0.4333 -0.2326  0.1943
 3048W        W19232   2.288  13.586  14.040 -0.0667  0.1674  0.2359
 3049W        W19233   2.377   8.299   0.341 -0.0154 -0.0507  0.1072
 3050W        W19234   1.791  11.785  13.209 -0.1343  0.1726  0.0855
 3051W        W19235  19.037   1.757  12.055  0.0848  0.3461 -0.0583
 3052W        W19236   6.421   3.999   3.694 -0.1243 -0.0345 -0.0259
 3053W        W19237  17.595   7.379   4.534 -0.1787 -0.2004  0.0647
 3054W        W19238   5.011  16.294   0.857  0.0212 -0.1722  0.1572
 3055W        W19239   1.711   6.611   3.276  0.0583 -0.1291 -0.1650
 3056W        W19240   4.988  18.673  14.522 -0.1153  0.0972 -0.0666
 3057W        W19241  16.953   8.767   1.608  0.0049 -0.0336  0.3552
 3058W        W19242  17.183   3.220  10.348 -0.0212  0.2091 -0.2365
 3059W        W19243   2.874  13.016   0.375 -0.0306  0.0591  0.1828
 3060W        W19244   6.864  18.247   0.800  0.0737 -0.2736 -0.0753
 3061W        W19245   5.933  19.297  11.967 -0.3850 -0.2663  0.0711
 3062W        W19246   0.862  15.486  11.681 -0.0118  0.3111 -0.2743
 3063W        W19247   6.183   8.684  11.629  0.1064  0.0320 -0.0707
 3064W        W19248  11.865   9.985   4.566  0.3347 -0.2764 -0.1693
 3065W        W19249   9.242   0.637  11.974  0.0335  0.0735  0.2143
 3066W        W19250  18.785   4.735   0.352 -0.1465 -0.0216 -0.1242
 3067W        W19251  14.469   4.936   5.577  0.2154 -0.3573  0.2625
 3068W        W19252  12.041  11.355  14.211  0.3365  0.3204  0.2933
 3069W        W19253  15.161   4.526  12.163  0.0805 -0.1721 -0.2382
 3070W        W19254   9.142  11.780  11.097  0.1595 -0.0801 -0.1078
 3071W        W19255  13.858   3.844   5.088  0.1662 -0.0589 -0.0766
 3072W        W19256   4.170   5.661  14.123 -0.0166  0.2978 -0.0948
 3073W        W19257  18.678   2.715  11.808 -0.2466  0.1016 -0.0280
 3074W        W19258  14.663   0.476  11.031 -0.1527 -0.2005 -0.0606
 3075W        W19259   2.380  14.988   4.713  0.0879 -0.4340 -0.0516
 3076W        W19260  10.406  12.026  13.954  0.1932 -0.0557  0.1118
 3077W        W19261  13.138  17.867  13.018 -0.1041 -0.1804 -0.2252
 3078W        W19262  17.264   3.819  14.659 -0.1549 -0.2412 -0.0340
 3079W        W19263   5.035   9.953  10.578 -0.0381  0.3407 -0.1440
 3080W        W19264   5.101  15.352  13.669 -0.1177 -0.2544 -0.1051
 3081W        W19265   9.573  16.205  13.311 -0.0072 -0.0314 -0.0664
 3082W        W19266   8.919  13.624  13.083  0.4610  0.3540  0.4725
 3083W        W19267  17.439  13.077  10.469  0.1418  0.2799  0.0013
 3084W        W19268  12.981   5.855   0.530 -0.1119  0.1609  0.2296
 3085W        W19269   0.712  15.407   4.546  0.0870 -0.1012  0.1356
 3086W        W19270   0.292   5.240  14.882  0.1349 -0.1585  0.2203
 3087W        W19271   0.310   8.802  11.624  0.0372 -0.0663 -0.0413
 3088W        W19272  16.269   6.834   1.642  0.3538 -0.1481 -0.1060
 3089W        W19273   8.876  10.153   2.953 -0.2935 -0.1211 -0.2893
 3090W        W19274   2.381  12.018   0.906 -0.0593 -0.5139 -0.0085
 3091W        W19275   7.166   8.853  13.795  0.1722 -0.0842  0.2507
 3092W        W19276  17.725  15.602  13.623 -0.0223  0.1058 -0.0063
 3093W        W19277   3.504   7.484   2.926 -0.1627 -0.1565 -0.1099
 3094W        W19278   0.014  18.785   3.463  0.1159 -0.2104 -0.1587
 3095W        W19279   9.020  15.289   2.605 -0.0225 -0.0559  0.2016
 3096W        W19280   8.276   1.831  14.847 -0.0555  0.0101 -0.2196
 3097W        W19281   4.661  18.348   5.136 -0.1552 -0.3955 -0.0011
 3098W        W19282   2.657   3.636   5.610 -0.0745 -0.2979  0.3518
 3099W        W19283  15.690  14.802   2.690 -0.1435 -0.0326  0.4766
 3100W        W19284   5.142   5.768   5.881 -0.0860  0.3362  0.1992
 3101W        W19285  12.377  19.208   4.052  0.3440  0.0430 -0.2873
 3102W        W19286   6.785  16.315  12.987 -0.2015  0.2213  0.0739
 3103W        W19287  16.659  12.723  13.700 -0.1422 -0.1342 -0.1946
 3104W        W19288   5.312   0.519   4.284 -0.1156 -0.0334 -0.1367
 3105W        W19289   7.449   9.643   4.351 -0.1448 -0.0345 -0.0304
 3106W        W19290  12.502   5.048   3.833 -0.3656 -0.0883 -0.0357
 3107W        W19291  17.571  16.918   4.838 -0.1334 -0.1033 -0.0245
 3108W        W19292   3.204   0.267   9.655 -0.2942 -0.0876  0.1121
 3109W        W19293   6.092   2.443   0.919  0.0833 -0.0473 -0.0591
 3110W        W19294   8.322   6.534   3.362 -0.0403 -0.1400  0.2172
 3111W        W19295   7.513  12.433  12.982 -0.2936  0.0473  0.3456
 3112W        W19296   1.522  16.972   2.058 -0.0837 -0.2888 -0.0947
 3113W        W19297  17.045   2.905  11.267 -0.1354 -0.2519  0.1224
 3114W        W19298  14.416  11.662   4.561 -0.0239 -0.1144  0.1863
 3115W        W19299   3.873  14.376  13.719 -0.1565 -0.0824 -0.4349
 3116W        W19300  13.568  12.238   1.478 -0.0901 -0.0690 -0.1001
 3117W        W19301   9.623  14.897   1.206  0.3295  0.1777 -0.0256
 3118W        W19302  13.710  14.070   0.453  0.2920 -0.0120 -0.0127
 3119W        W19303   6.181   0.957   3.627 -0.0218  0.3172  0.2001
 3120W        W19304  15.633   2.373   3.457 -0.0709 -0.2739  0.0458
 3121W        W19305  13.595  16.817   0.383  0.2059 -0.0188  0.0832
 3122W        W19306   8.242   4.135   2.191  0.1363 -0.0602  0.1293
 3123W        W19307   0.153   7.799   2.409 -0.2443 -0.4005 -0.1784
 3124W        W19308  11.786   7.265   0.582  0.3587 -0.0256 -0.2529
 3125W        W19309   8.027  14.688   0.035  0.2025 -0.0246  0.1149
 3126W        W19310   4.135  13.952   0.864  0.1755 -0.1733 -0.2939
 3127W        W19311   8.982  10.090  13.936  0.2909 -0.3195 -0.1252
 3128W        W19312  13.873  19.328  13.479 -0.0236  0.1143 -0.1596
 3129W        W19313   5.138   6.729   9.934  0.0661 -0.2705  0.3100
 3130W        W19314  17.656   1.634  12.892 -0.2739  0.2437  0.2258
 3131W        W19315  19.277   9.238  11.922 -0.5670 -0.2186  0.0160
 3132W        W19316  11.146   5.923  13.918 -0.2010 -0.2975  0.1143
 3133W        W19317   0.106   7.052   4.852 -0.1311  0.1543 -0.3174
 3134W        W19318   3.997   8.943   3.859 -0.0234 -0.1504  0.1272
 3135W        W19319   2.989   6.318   2.266  0.0140 -0.1357  0.0307
 3136W        W19320   2.752  16.212   2.798  0.0955  0.1328  0.1024
 3137W        W19321   2.429  14.442   3.944 -0.3492 -0.1308 -0.0830
 3138W        W19322  11.510  19.156  12.242 -0.1853  0.1232 -0.0552
 3139W        W19323   8.843   5.278  12.494 -0.1111 -0.1110 -0.0017
 3140W        W19324   0.572  18.480   3.009  0.1918  0.0129 -0.4297
 3141W        W19325   1.468  16.091   9.152  0.0934 -0.3885  0.3165
 3142W        W19326  11.252   7.483   3.520  0.0715  0.1326  0.1085
 3143W        W19327  11.559  15.604  14.219 -0.4590 -0.2337  0.2165
 3144W        W19328  13.621   9.016  12.228 -0.1857 -0.0425  0.0515
 3145W        W19329  13.064   2.641   3.706 -0.2075 -0.2091  0.0433
 3146W        W19330   9.618   0.348  10.899  0.1372 -0.0254  0.0937
 3147W        W19331  17.142   6.159   2.105 -0.0311  0.2190 -0.0348
 3148W        W19332  13.986   8.263   4.280  0.1520 -0.0300 -0.1274
 3149W        W19333   8.414  18.321   0.690  0.1009 -0.1808 -0.2151
 3150W        W19334   9.135   5.200  10.712 -0.3156 -0.1776 -0.3380
 3151W        W19335   7.483   6.797  14.022  0.0947 -0.1224 -0.0268
 3152W        W19336   9.833  12.267   2.678 -0.0771 -0.0932 -0.0772
 3153W        W19337   6.942  10.285  11.827 -0.2830  0.0018 -0.2657
 3154W        W19338  18.366   7.583  14.228 -0.1592  0.0218 -0.3021
 3155W        W19339   8.495  14.433  14.484  0.0444  0.1666 -0.1067
 3156W        W19340  18.899   8.997   3.401  0.3276  0.2178 -0.2553
 3157W        W19341  13.034   0.860  13.888  0.1006 -0.2707  0.0844
 3158W        W19342  12.896  19.178  11.275 -0.3227  0.1236 -0.0790
 3159W        W19343   4.620  18.397  13.397 -0.1026 -0.2327 -0.0077
 3160W        W19344   2.035  15.741   0.415 -0.1827  0.2163 -0.1227
 3161W        W19345   5.478  14.393   2.897 -0.0156  0.6199  0.3178
 3162W        W19346  11.744  13.358  13.248 -0.0126  0.2658 -0.0015
 3163W        W19347  14.791   2.858  12.891  0.0131 -0.0918  0.2298
 3164W        W19348   4.610   1.003  12.570  0.2420 -0.3291  0.0409
 3165W        W19349   3.786   1.339  11.989  0.4037 -0.0047 -0.1897
 3166W        W19350   1.408  11.772   1.484 -0.3015  0.1964 -0.1719
 3167W        W19351  14.032  16.263  10.299 -0.5464  0.0090  0.1826
 3168W        W19352   3.609   3.422  14.707 -0.0262 -0.2567 -0.0554
 3169W        W19353  15.207  16.894  12.577  0.2629  0.1484 -0.0405
 3170W        W19354   6.697  11.228   1.948 -0.2574 -0.1116  0.0115
 3171W        W19355  16.772  17.141   2.328 -0.1045 -0.2941  0.1064
 3172W        W19356   1.649  12.537   5.061  0.0142  0.0100  0.0788
 3173W        W19357  15.328  11.481   3.749 -0.1517  0.0458 -0.2048
 3174W        W19358  12.383  13.486   9.900  0.1297  0.1328 -0.2956
 3175W        W19359   1.718   2.950   4.654  0.1979  0.0971  0.2526
 3176W        W19360   5.582  18.434   1.454  0.0852  0.4293  0.2190
 3177W        W19361  12.762  19.183  13.860  0.1380  0.1249 -0.0136
 3178W        W19362   6.726  12.608  10.643 -0.3941 -0.1374 -0.1982
 3179W        W19363  14.794  15.159  10.404 -0.1379  0.0446 -0.1602
 3180W        W19364  17.826   2.440   1.514 -0.0077  0.0094 -0.0585
 3181W        W19365   3.341  19.303  14.932  0.0566 -0.1822  0.0354
 3182W        W19366   8.966   1.944   1.929 -0.0848  0.1101  0.1126
 3183W        W19367   7.286   3.535   3.213 -0.2380  0.1571  0.1833
 3184W        W19368   9.118  13.075  10.674 -0.2025 -0.3024  0.0616
 3185W        W19369  10.726   9.322  14.678  0.0181  0.0541 -0.1102
 3186W        W19370  14.526   6.489  12.616  0.1695 -0.1617 -0.1407
 3187W        W19371  15.244  17.158   3.725  0.0044 -0.2374  0.1205
 3188W        W19372  14.293  18.043   2.306  0.3150 -0.0736 -0.0624
 3189W        W19373   5.903   4.799   3.876 -0.0030 -0.0925 -0.2414
 3190W        W19374   2.200   3.518   5.452 -0.2125  0.3166  0.0322
 3191W        W19375   2.769   6.153   3.164  0.1000  0.2016  0.1678
 3192W        W19376  13.094  10.487   2.027 -0.1028 -0.0003  0.1383
 3193W        W19377   6.823   6.628  12.110 -0.3857 -0.0360 -0.2352
 3194W        W19378   4.609   6.649   5.134 -0.1719  0.3490 -0.3248
 3195W        W19379   2.489   2.466  10.073  0.0394  0.0192  0.3422
 3196W        W19380   6.589  16.869   1.893 -0.1816  0.0668  0.0191
 3197W        W19381   7.389   4.306   4.701  0.2657 -0.2503  0.0296
 3198W        W19382   4.084  18.646  14.628  0.0284 -0.1550  0.3397
 3199W        W19383   2.593  11.318   3.508 -0.1905 -0.0984  0.1335
 3200W        W19384  14.004   4.268  11.494 -0.2085 -0.1311  0.0039
 3201W        W19385  18.173   3.856  11.851 -0.2045  0.0917  0.0460
 3202W        W19386  12.152   6.370  10.669  0.0032 -0.1411  0.3768
 3203W        W19387   7.029   8.878  11.160 -0.0770  0.3102 -0.1428
 3204W        W19388   1.589  11.795  11.534  0.1082  0.1119 -0.0754
 3205W        W19389  15.667  13.945   4.059  0.1125  0.1833  0.1405
 3206W        W19390   1.943   0.683  14.784  0.4499 -0.0810  0.3312
 3207W        W19391   6.864   2.124   3.609 -0.2107 -0.0399 -0.1398
 3208W        W19392  12.452  14.485  10.642  0.3372  0.0388  0.2699
 3209W        W19393  10.933  17.200  14.282  0.2260  0.0241  0.1153
 3210W        W19394  17.397   1.895   2.686  0.2190 -0.0298 -0.1565
 3211W        W19395   3.447   3.833   4.502 -0.1351 -0.1029 -0.0383
 3212W        W19396   7.388   5.616  12.142  0.0228  0.1119  0.0992
 3213W        W19397   5.229  15.204  11.276  0.3274  0.1950 -0.0565
 3214W        W19398  10.665  10.459  14.327 -0.0051  0.0311  0.2667
 3215W        W19399  17.126   2.015  14.476 -0.1469  0.0517 -0.1291
 3216W        W19400   5.384   7.154  12.600 -0.1416  0.1297  0.0228
 3217W        W19401   2.385  10.150   2.581 -0.1853 -0.4121 -0.2030
 3218W        W19402   2.290   1.403   5.019  0.1915  0.4741  0.0387
 3219W        W19403   5.800  13.589   3.336 -0.1775 -0.2475  0.0566
 3220W        W19404   9.169  12.146   2.260 -0.1812  0.2797  0.0942
 3221W        W19405   1.779  11.489  13.700 -0.4520 -0.3137  0.1135
 3222W        W19406   6.299  15.920  13.795 -0.1862  0.1061  0.2722
 3223W        W19407  18.442  16.315  12.235  0.0422 -0.0878 -0.0950
 3224W        W19408  18.678   9.137   2.930  0.1079 -0.1189  0.0016
 3225W        W19409  10.901  12.214  13.373  0.1220  0.2590  0.3428
 3226W        W19410   0.837  11.694  10.682  0.2037 -0.4622 -0.4013
 3227W        W19411   5.205  16.559  10.219 -0.3593  0.1154  0.3984
 3228W        W19412   9.926  17.363  14.133  0.2067  0.0405  0.1871
 3229W        W19413   0.677   1.755  11.598  0.0636 -0.1305  0.2784
 3230W        W19414   7.917   0.085   9.767  0.5318  0.1512 -0.1260
 3231W        W19415  12.553   7.232  11.467  0.1391 -0.1125 -0.0942
 3232W        W19416   8.344   5.292   4.019 -0.1270 -0.0793 -0.0679
 3233W        W19417  18.794  10.938  12.771  0.1958  0.2552  0.2578
 3234W        W19418   6.644  16.733  13.232 -0.0733  0.2759  0.1459
 3235W        W19419  17.212  14.095  11.942 -0.1081 -0.3912 -0.1417
 3236W        W19420  17.632  15.992   4.949 -0.1815  0.0513  0.0867
 3237W        W19421  17.448   9.880  14.027 -0.1185  0.2418 -0.1624
 3238W        W19422   1.343  15.397  10.672  0.0586 -0.0956 -0.1253
 3239W        W19423   7.015  18.887   0.153 -0.1898  0.0020  0.3212
 3240W        W19424   9.837  10.891   2.952 -0.1210 -0.1574 -0.1202
 3241W        W19425  15.813  11.461   3.973  0.0524  0.1550  0.0058
 3242W        W19426  14.056  18.677   3.021 -0.1478  0.1090 -0.0483
 3243W        W19427  13.191  18.238   1.370  0.0155  0.0931  0.2307
 3244W        W19428   7.059   7.148  10.296 -0.0654 -0.3321 -0.0054
 3245W        W19429   8.326  19.221   0.809 -0.3780 -0.3137 -0.1389
 3246W        W19430   2.361  17.785  12.539  0.0326  0.4683  0.3880
 3247W        W19431   3.384  18.608   3.977  0.3805 -0.0486  0.3269
 3248W        W19432  11.276  16.892   3.152  0.1085 -0.2965  0.2722
 3249W        W19433  13.894  14.835  11.482 -0.0450  0.0565 -0.0203
 3250W        W19434  11.892   0.948   4.529  0.3536  0.2528 -0.0130
 3251W        W19435  19.131   9.422  10.152  0.0895  0.0954 -0.0458
 3252W        W19436   7.379  12.583   4.681 -0.1359 -0.1240  0.0862
 3253W        W19437   8.042  14.054   3.446  0.2755  0.1347  0.2596
 3254W        W19438   6.560   9.106  10.963  0.0152  0.0056  0.1032
 3255W        W19439  10.593  19.101  14.874  0.2641  0.1451 -0.0180
 3256W        W19440  19.069   2.557  13.990 -0.1102  0.3299 -0.0390
 3257W        W19441  18.163   0.528   5.513 -0.2420 -0.3342 -0.2021
 3258W        W19442  10.428   0.229   2.708 -0.0120 -0.0735  0.0297
 3259W        W19443  17.187  15.435  12.523  0.0700  0.2709 -0.1794
 3260W        W19444  17.550   7.453  11.179  0.0255  0.3439 -0.2724
 3261W        W19445  14.391   8.898  14.184 -0.2355 -0.0238  0.1404
 3262W        W19446   3.321   0.677  13.091 -0.4192  0.0663 -0.4240
 3263W        W19447   8.240   5.957  12.392  0.0091  0.0051  0.3921
 3264W        W19448   0.899   5.348  14.223 -0.1328  0.2340  0.0055
 3265W        W19449  19.325   4.640   1.205 -0.0520  0.1539 -0.0565
 3266W        W19450   4.435   5.175   0.008 -0.0451 -0.4476  0.1984
 3267W        W19451  10.231   8.411   4.882 -0.1667  0.1707  0.0420
 3268W        W19452  14.370  13.489   0.547  0.0822 -0.1616  0.1800
 3269W        W19453   4.765  17.116  10.936 -0.0506  0.2089 -0.3181
 3270W        W19454   4.112  11.311  11.249  0.0537  0.1270 -0.0013
 3271W        W19455   1.134   4.052   0.632 -0.3538 -0.0392 -0.2872
 3272W        W19456   8.610  17.803  14.184  0.1283  0.0087  0.2397
 3273W        W19457  16.064   1.444  13.864 -0.2032 -0.2832 -0.1251
 3274W        W19458  14.623   5.180   0.254  0.0269  0.1839  0.3658
 3275W        W19459  15.926  11.228   2.749 -0.0345 -0.1455  0.0427
 3276W        W19460  17.690   9.842   2.673  0.0116 -0.0704  0.1404
 3277W        W19461   0.686   0.344   4.823  0.2249  0.2454 -0.0121
 3278W        W19462  12.770  15.879   4.867 -0.0995  0.1628  0.0722
 3279W        W19463   3.530  15.198   4.136  0.0061  0.1428 -0.1977
 3280W        W19464   8.244   2.171   0.880 -0.3429  0.1036  0.4057
 3281W        W19465   2.747  11.138  14.904 -0.0817  0.3101 -0.2180
 3282W        W19466   4.117  18.579  11.603  0.1841 -0.0530 -0.2157
 3283W        W19467   5.434  16.572   0.955 -0.0479  0.2069 -0.1654
 3284W        W19468   0.136   2.898   1.517 -0.0053  0.2036 -0.2993
 3285W        W19469   0.693   5.017  14.539 -0.0819 -0.3051 -0.0676
 3286W        W19470  15.221  18.422   0.125 -0.1191  0.0735 -0.2015
 3287W        W19471  12.578   3.366  14.451 -0.0728  0.1172 -0.2580
 3288W        W19472   1.403  14.515   3.800  0.1682  0.2293 -0.1511
 3289W        W19473  10.819  16.119   1.957  0.2123 -0.0341 -0.4709
 3290W        W19474  11.717  16.340  10.675 -0.1654  0.0838 -0.0357
 3291W        W19475   7.668  12.868  13.092  0.3513 -0.0643  0.1848
 3292W        W19476   4.824  10.670   5.414 -0.2409 -0.1395  0.3446
 3293W        W19477   4.979  12.545  14.703 -0.2342  0.0873 -0.1532
 3294W        W19478   7.668   8.659   0.965  0.1207  0.0436 -0.2596
 3295W        W19479   7.876  16.753  13.889  0.2482 -0.1878  0.1720
 3296W        W19480  10.181   4.453   1.528 -0.3023 -0.0353 -0.1341
 3297W        W19481  16.406   2.475  14.528  0.3888  0.3176 -0.3432
 3298W        W19482   1.842  10.868   1.246 -0.1028 -0.3544  0.0960
 3299W        W19483   9.488  15.936   0.124 -0.3020 -0.0497 -0.0644
 3300W        W19484   8.056   1.973   3.954  0.1007  0.1345 -0.2313
 3301W        W19485   8.521   4.272   4.111 -0.1906  0.1299  0.0377
 3302W        W19486   5.195   6.816   1.689  0.1846 -0.1590 -0.1039
 3303W        W19487  15.236  17.405   2.869  0.1876  0.2875 -0.2710
 3304W        W19488   3.942   2.117  12.330 -0.0136 -0.0436  0.1204
 3305W        W19489  10.227   8.848   3.310 -0.2296  0.0067 -0.2121
 3306W        W19490  16.338  13.228   2.305  0.1297 -0.3463 -0.0977
 3307W        W19491   1.457   2.604  14.245 -0.0778  0.2014 -0.1838
 3308W        W19492  13.541  12.208  11.586  0.0561 -0.1537  0.1305
 3309W        W19493   2.372  12.684   1.029 -0.0759  0.0612  0.1469
 3310W        W19494   3.829   7.925  13.081 -0.3928  0.1235  0.0555
 3311W        W19495  18.747   4.156   2.200 -0.3597  0.2037 -0.1727
 3312W        W19496  15.728   2.832   3.211  0.1128  0.2245  0.0475
 3313W        W19497   6.893  13.294   5.566 -0.1815 -0.0115  0.1631
 3314W        W19498   7.118   7.058   9.344  0.3531  0.0804 -0.0646
 3315W        W19499  16.450  10.499   5.792  0.0162  0.2265 -0.0724
 3316W        W19500   2.921   1.441   2.438  0.1880  0.1081  0.0085
 3317W        W19501   7.079  17.097  14.166 -0.1305 -0.1030 -0.0970
 3318W        W19502   1.506   9.961   4.144  0.1823  0.0495 -0.1994
 3319W        W19503  13.895   6.161  10.323 -0.1500 -0.1625 -0.0810
 3320W        W19504  18.777   8.698   3.904  0.1178  0.0591 -0.2523
 3321W        W19505   2.382  18.123  12.978 -0.0430  0.3200 -0.0097
 3322W        W19506  10.375  16.653   2.370  0.0241  0.0925  0.1088
 3323W        W19507  10.914   0.099  13.385 -0.1063 -0.3936 -0.0432
 3324W        W19508  18.510   6.056  11.237  0.0232 -0.0087  0.2860
 3325W        W19509   0.724   7.047  13.611 -0.0100  0.1052  0.0670
 3326W        W19510   2.729  14.572  11.073 -0.1975 -0.0368 -0.3627
 3327W        W19511  11.048  12.854  13.835 -0.2141 -0.3126 -0.0807
 3328W        W19512   2.259  12.433  13.566 -0.2082  0.0354 -0.0261
 3329W        W19513  15.766   4.665  10.589  0.1239 -0.1013  0.0797
 3330W        W19514   8.337   5.159  12.460 -0.3453  0.2364  0.0668
 3331W        W19515  16.369  13.379   3.196  0.0414  0.1121 -0.0085
 3332W        W19516  15.496  15.086  10.868 -0.0265  0.0147  0.1213
 3333W        W19517   5.704  12.251  10.874 -0.3421  0.0810 -0.1852
 3334W        W19518   7.352   5.989  14.546 -0.3711 -0.0479 -0.1081
 3335W        W19519  13.312   9.507   1.517  0.2343 -0.0649  0.3939
 3336W        W19520   2.068   7.323  13.796  0.4149  0.0563  0.2002
 3337W        W19521  13.601  18.521  11.972  0.2925 -0.1727 -0.2344
 3338W        W19522   1.640   7.916   1.617 -0.2997 -0.0286  0.0595
 3339W        W19523   9.759  14.447  13.425 -0.0607  0.1058 -0.1376
 3340W        W19524  19.221  12.849   2.395 -0.0174 -0.1994  0.3771
 3341W        W19525  10.054  17.455   1.943  0.1289  0.0193  0.1041
 3342W        W19526  17.355   7.037  14.052  0.3099  0.3609  0.3395
 3343W        W19527   5.865  12.199  13.698  0.0803 -0.3122 -0.0397
 3344W        W19528  18.721  11.521   0.949 -0.0468 -0.0731 -0.2294
 3345W        W19529   3.844   6.167   4.109  0.0431 -0.1116 -0.0044
 3346W        W19530  11.757  15.774   4.671  0.3383 -0.1429 -0.0607
 3347W        W19531   3.873  14.895  14.389 -0.2428 -0.1249 -0.4110
 3348W        W19532   3.131  13.437  11.651  0.3855  0.5842 -0.3149
 3349W        W19533  17.091  18.748   2.509  0.0207 -0.0347  0.1108
 3350W        W19534   1.831   1.645   0.045 -0.1538 -0.1655  0.1374
 3351W        W19535  13.707  16.593  11.513 -0.1335  0.2889 -0.3797
 3352W        W19536   1.597   0.723   2.051 -0.0428 -0.2850  0.3629
 3353W        W19537   6.473  11.655   1.880 -0.0990  0.0623  0.0280
 3354W        W19538   8.296   4.953  10.617  0.1966 -0.4600 -0.0745
 3355W        W19539  10.117  12.674  11.530  0.1572 -0.0947 -0.0040
 3356W        W19540   7.151  18.810   3.480 -0.1413  0.2020 -0.0239
 3357W        W19541   7.838  13.234  11.746 -0.0267 -0.1891  0.1136
 3358W        W19542  10.199  10.373   2.029 -0.0503 -0.0056 -0.1064
 3359W        W19543  16.684  11.987  14.898 -0.0817 -0.2300  0.1073
 3360W        W19544  11.980  15.608  11.912  0.0340  0.0021 -0.0880
 3361W        W19545  14.651   7.086   1.587 -0.0166  0.2533  0.0582
 3362W        W19546  12.161   5.763   2.302 -0.0632  0.1129  0.1854
 3363W        W19547   8.461  14.616   3.802  0.0359 -0.1255 -0.2270
 3364W        W19548   3.027   2.389  12.706  0.0153  0.0374 -0.0832
 3365W        W19549  18.290   0.944  11.462 -0.0066  0.1018 -0.0285
 3366W        W19550   4.724   7.653  14.604  0.0829 -0.0639 -0.2313
 3367W        W19551   9.321  14.206  13.111  0.0097  0.2577 -0.1960
 3368W        W19552   3.492   3.677   0.716  0.5263 -0.3291 -0.2564
 3369W        W19553  10.182  19.190   3.390  0.0562 -0.0437  0.0346
 3370W        W19554   3.050  10.510  11.642  0.0298  0.0135 -0.0262
 3371W        W19555  17.883   0.400   3.642 -0.1187  0.0514  0.2392
 3372W        W19556  16.660  16.676  10.193  0.2787 -0.3336  0.1498
 3373W        W19557  10.597  16.863   2.710 -0.3514 -0.1159 -0.2583
 3374W        W19558  11.764  16.977   2.371 -0.4224  0.4118  0.1008
 3375W        W19559   0.777   5.551  13.759 -0.0574 -0.3427  0.1219
 3376W        W19560   7.828   2.416   3.886 -0.1043  0.1330  0.0987
 3377W        W19561  18.024  16.276  11.525 -0.2224  0.1567  0.0530
 3378W        W19562  17.786  15.897  11.047  0.1328  0.0040  0.2257
 3379W        W19563  10.706  15.544  10.984 -0.0753  0.1203 -0.0278
 3380W        W19564  13.965  18.590   5.361  0.0872  0.1424 -0.0118
 3381W        W19565  17.912  11.188   2.712 -0.0955  0.0855  0.1166
 3382W        W19566  10.858   2.971  12.004  0.0224 -0.2241 -0.2965
 3383W        W19567  14.437  17.205  14.149  0.2459 -0.1645  0.2220
 3384W        W19568  11.998  11.654   3.399 -0.0575  0.2609  0.0110
 3385W        W19569  14.283  13.325   1.502  0.0070  0.2599  0.1155
 3386W        W19570   1.576   9.148   5.828  0.1906  0.3352  0.1372
 3387W        W19571  10.705   1.062  14.330  0.2251  0.1854 -0.2838
 3388W        W19572   6.060  15.536  11.735 -0.3006  0.0036  0.0623
 3389W        W19573   5.763  13.171   2.885  0.0584 -0.1529 -0.2369
 3390W        W19574  19.132  16.219   1.522 -0.1677 -0.0977  0.1839
 3391W        W19575   9.467  18.683   2.190  0.1245 -0.0016  0.2503
 3392W        W19576   6.570  15.469   5.779  0.1455 -0.1474  0.3550
 3393W        W19577  15.402  17.481  10.024  0.2359 -0.2746 -0.0084
 3394W        W19578   8.825   6.622   3.691  0.1885  0.1425  0.1784
 3395W        W19579  14.738   2.411   3.967  0.1587 -0.1332  0.2803
 3396W        W19580  14.978   7.394  10.419  0.1303  0.1730 -0.1065
 3397W        W19581   3.388   5.132   1.829 -0.1085 -0.2409  0.3664
 3398W        W19582  11.689  13.421   3.242  0.2015 -0.2601 -0.2017
 3399W        W19583   8.259  17.046  10.510  0.1798 -0.3125  0.0640
 3400W        W19584   4.793  18.818   4.918 -0.1013  0.1218  0.0931
 3401W        W19585   7.567   7.085  11.149  0.2932  0.3388  0.2002
 3402W        W19586  12.237  16.938  12.449 -0.1519 -0.0782 -0.1480
 3403W        W19587   8.362   6.550  12.063 -0.0081  0.0923  0.0037
 3404W        W19588  16.049  19.220   3.427 -0.1146  0.2048  0.0891
 3405W        W19589  10.605  16.157   1.472  0.1093  0.0422  0.0140
 3406W        W19590  12.205   1.628   9.632 -0.1277  0.0221 -0.1514
 3407W        W19591   9.071   5.990   2.890 -0.0301 -0.1225  0.2886
 3408W        W19592  10.258  12.115   0.374  0.1235 -0.0751  0.0574
 3409W        W19593   2.297  18.745  13.854 -0.0792  0.0045  0.4855
 3410W        W19594  14.794   4.030   1.997 -0.0944  0.1756 -0.1171
 3411W        W19595   1.146   9.308  11.606  0.3414 -0.0852 -0.0900
 3412W        W19596  14.863   7.577   1.777  0.2274 -0.0803 -0.0141
 3413W        W19597   6.406   6.094  14.375 -0.4214  0.0741 -0.0501
 3414W        W19598   2.071  18.161   5.495 -0.1550 -0.0098 -0.0743
 3415W        W19599   2.926   5.664   6.069  0.1032  0.2462  0.1968
 3416W        W19600   9.252   6.555   5.142  0.2789  0.1077  0.0850
 3417W        W19601   5.750   6.608  14.791  0.0051 -0.0775 -0.0591
 3418W        W19602   8.721   2.925  10.350  0.0894  0.3945 -0.2242
 3419W        W19603  11.914   9.179   1.440  0.3156  0.2893 -0.3265
 3420W        W19604   1.132  14.579  13.456  0.1983  0.1846  0.0463
 3421W        W19605   7.907  13.588  13.513 -0.0215  0.2680 -0.0909
 3422W        W19606   4.943  14.344  12.680  0.5063 -0.2298 -0.1328
 3423W        W19607  11.953   9.318  13.732 -0.0174 -0.0282 -0.0718
 3424W        W19608  16.037   0.518   2.803  0.0857 -0.0281  0.1723
 3425W        W19609   6.279   7.785   3.745  0.3539 -0.3191  0.0325
 3426W        W19610  13.463  15.621   4.906  0.1744  0.1685  0.0151
 3427W        W19611   4.254   5.990  13.365 -0.1863 -0.0688 -0.0170
 3428W        W19612   0.258  13.472  12.240 -0.0282  0.1397  0.0447
 3429W        W19613  18.021   4.795  11.686 -0.1012 -0.2574  0.0927
 3430W        W19614   6.737  13.404   1.279  0.0292  0.0050  0.2555
 3431W        W19615  17.481  17.096  13.427 -0.1677 -0.2356  0.1291
 3432W        W19616   1.643  13.370  12.499  0.1016 -0.1014 -0.0447
 3433W        W19617  12.898   6.267  14.532 -0.0997  0.1408  0.0112
 3434W        W19618   3.890  13.380  10.956  0.3323 -0.0455 -0.0830
 3435W        W19619  16.967  12.411  14.699  0.0745  0.0396 -0.3560
 3436W        W19620  14.602   7.720   3.320 -0.0262  0.1936  0.2084
 3437W        W19621  15.482  10.584   0.925 -0.0367  0.0566 -0.3420
 3438W        W19622  15.786   8.471  11.655  0.0038 -0.2120 -0.1272
 3439W        W19623   2.360  18.343  11.394  0.0593  0.5292 -0.2326
 3440W        W19624  14.698  17.555  12.045 -0.2291  0.0855  0.0576
 3441W        W19625  14.480   8.076  14.532 -0.3505 -0.3985  0.0630
 3442W        W19626  16.831   9.121  12.893  0.0446 -0.0396  0.3945
 3443W        W19627  13.047   3.993  10.559 -0.1216  0.3961 -0.4349
 3444W        W19628   0.503  18.834   4.295  0.2290  0.2504  0.0450
 3445W        W19629  16.798  13.255  13.109 -0.2998 -0.2267 -0.0376
 3446W        W19630  12.599   1.130  10.991 -0.0882 -0.1292  0.2882
 3447W        W19631   9.427  14.799   5.202 -0.1363  0.0756  0.0082
 3448W        W19632  18.214  15.967   2.793  0.0972 -0.0550  0.1722
 3449W        W19633   8.542  17.861   1.801 -0.1717  0.2590 -0.0133
 3450W        W19634  17.263   9.611  12.646 -0.0348  0.2110  0.1149
 3451W        W19635  16.570  13.369  10.890 -0.1791  0.4622  0.0754
 3452W        W19636  10.496  12.571  12.040  0.0410 -0.2099 -0.1890
 3453W        W19637   3.676  10.362   2.930 -0.0035  0.2168  0.1222
 3454W        W19638  10.091   3.294  12.385 -0.1855 -0.0371 -0.1131
 3455W        W19639  18.919  13.145   4.246  0.0748 -0.2443 -0.1457
 3456W        W19640  11.871  16.298  10.189 -0.2324  0.1023  0.1809
 3457W        W19641  10.785   2.122  11.428 -0.0005  0.0407  0.1293
 3458W        W19642  14.940  10.802   1.352  0.3137 -0.0123 -0.1867
 3459W        W19643  18.137   5.423   0.255  0.2931  0.3033 -0.1620
 3460W        W19644  13.694   0.382  14.200  0.3004  0.1631 -0.3499
 3461W        W19645  10.195  13.836   5.211  0.1045  0.4316 -0.0098
 3462W        W19646  14.802  14.978  11.592 -0.3076 -0.0845 -0.3111
 3463W        W19647  11.810  14.709  11.730  0.0507 -0.2181  0.2404
 3464W        W19648   4.860  11.653   2.924 -0.0101  0.1352  0.1522
 3465W        W19649  13.412   1.593   0.226 -0.3110  0.1665  0.2968
 3466W        W19650  11.590  15.308  12.032  0.2130 -0.1866  0.2864
 3467W        W19651   2.688   2.776  12.834 -0.1141 -0.0573  0.1676
 3468W        W19652   9.692  12.773   1.857 -0.2957 -0.0997  0.0938
 3469W        W19653   6.174   5.021   1.874 -0.1373  0.0366  0.0598
 3470W        W19654   8.360  10.051   4.782  0.5060  0.1004  0.3523
 3471W        W19655   9.420   6.538   9.353 -0.0913  0.0944  0.2348
 3472W        W19656   4.054   4.368   5.569  0.1403  0.0085  0.1219
 3473W        W19657  11.722  10.675   1.710  0.3398 -0.1737  0.2390
 3474W        W19658   9.568  17.433  10.424  0.1847  0.1256  0.0783
 3475W        W19659  12.348   9.102  13.974 -0.0840  0.0275  0.1548
 3476W        W19660  17.249  17.124   2.409 -0.0089  0.0955 -0.0642
 3477W        W19661   6.563  14.579   1.728 -0.5251  0.4855 -0.0151
 3478W        W19662  14.672  11.360   2.840 -0.0972 -0.1239 -0.0065
 3479W        W19663   7.621   6.304  14.248 -0.0146  0.4032 -0.2705
 3480W        W19664  10.335  11.939   1.357  0.1823  0.1380 -0.2254
 3481W        W19665   9.825   6.528  13.813  0.0397  0.0204 -0.0919
 3482W        W19666   3.004   8.824   1.085 -0.0805  0.0030 -0.3975
 3483W        W19667   2.887  18.402   3.130 -0.0093  0.4029 -0.0504
 3484W        W19668   0.407  15.784  11.574  0.0926 -0.2817  0.1821
 3485W        W19669   0.144  11.407  14.787 -0.0163 -0.1621  0.1078
 3486W        W19670   5.874   5.038   2.277  0.2858 -0.3202 -0.2955
 3487W        W19671   2.097   3.685   4.190  0.2694 -0.0695 -0.3329
 3488W        W19672   8.896   4.808   4.717 -0.1580 -0.3354  0.3754
 3489W        W19673   4.388   8.845  13.457  0.2846  0.1733  0.0581
 3490W        W19674   6.267  13.197  12.981 -0.1488  0.1092  0.0213
 3491W        W19675   5.537   2.232   1.769 -0.0206  0.1363 -0.1984
 3492W        W19676   1.652  14.130   4.398  0.2737 -0.0442  0.2690
 3493W        W19677   0.997  19.064  14.009 -0.1146  0.1653 -0.1538
 3494W        W19678   0.576   5.342   3.948 -0.1695  0.3224  0.0174
 3495W        W19679   3.999   3.700  13.763  0.1118 -0.2889  0.1983
 3496W        W19680   2.006  12.289   1.084  0.1871 -0.2688 -0.2025
 3497W        W19681  11.739   4.166  14.753  0.3769 -0.0933  0.3243
 3498W        W19682   4.880   4.461  13.395 -0.2373 -0.2750  0.1333
 3499W        W19683  18.318  10.658  14.662  0.0122 -0.1087 -0.1243
 3500W        W19684  11.534  18.942   0.698  0.2350 -0.1367 -0.0985
 3501W        W19685  12.209   8.816   2.292  0.1353  0.0876 -0.0256
 3502W        W19686   8.961   6.512   2.828  0.1349  0.0813  0.1471
 3503W        W19687   1.399   0.462  13.742 -0.3236 -0.3319 -0.0448
 3504W        W19688   9.310   6.188   0.683  0.1452 -0.0841 -0.0910
 3505W        W19689   4.188  18.167   5.113 -0.1145  0.1020 -0.0027
 3506W        W19690   0.580   1.265   3.207 -0.1516  0.0774 -0.0197
 3507W        W19691   4.778   9.731   2.128  0.0923  0.2768 -0.0944
 3508W        W19692   7.778   0.552   4.432 -0.0013 -0.0889  0.1546
 3509W        W19693  13.361   7.935  10.804  0.0265  0.1678  0.1134
 3510W        W19694  10.310  16.619  11.744 -0.0500 -0.1427 -0.1340
 3511W        W19695   3.708   9.209   2.970 -0.1291  0.1275 -0.6793
 3512W        W19696   9.429  13.204   0.977 -0.1475 -0.1668  0.0464
 3513W        W19697   6.543  15.999  12.738 -0.1225 -0.0197 -0.2871
 3514W        W19698   2.163  12.430   0.595 -0.0772  0.2571 -0.5256
 3515W        W19699   6.154   8.326   0.279 -0.2060 -0.0420 -0.0222
 3516W        W19700  18.306  11.635  13.180 -0.2589  0.1278 -0.0611
 3517W        W19701   4.834   8.162   4.385  0.1366  0.0396 -0.1604
 3518W        W19702   9.229   7.908  14.431 -0.0756  0.1352  0.1333
 3519W        W19703  16.928  11.450   0.681 -0.3213  0.0355 -0.1371
 3520W        W19704   2.555  13.840   5.536 -0.1692 -0.1774 -0.2335
 3521W        W19705  16.294  13.644   4.320 -0.2306  0.0034 -0.2670
 3522W        W19706   6.753   1.406  10.890  0.2637  0.2455 -0.1580
 3523W        W19707   6.873  17.764  12.419  0.1040  0.1449  0.0518
 3524W        W19708  14.456   6.450   0.237 -0.3570 -0.3110  0.5023
 3525W        W19709  12.388   9.852  10.351  0.1774 -0.2305 -0.3343
 3526W        W19710  16.806   8.344  11.628 -0.2273  0.0138 -0.4506
 3527W        W19711   5.907   3.567  13.975 -0.3785 -0.0624 -0.1257
 3528W        W19712   6.005  14.453   0.611  0.0950 -0.1474 -0.1406
 3529W        W19713   1.140   5.782  12.968 -0.1399  0.0802  0.2120
 3530W        W19714   3.429   5.643   3.577 -0.1065 -0.0683 -0.1662
 3531W        W19715   9.668  18.046  10.392  0.2105 -0.1729 -0.3159
 3532W        W19716   0.200  10.350   3.196  0.0766  0.2074 -0.3178
 3533W        W19717   6.473   0.092  10.454  0.0117 -0.2585 -0.3020
 3534W        W19718   3.975   8.438  13.089  0.1012  0.2679 -0.2620
 3535W        W19719  14.841   9.120   2.757  0.0599  0.0950  0.1107
 3536W        W19720   5.089  18.944  14.128 -0.2113 -0.0125 -0.0079
 3537W        W19721   7.389  10.090  11.529 -0.1692  0.1064 -0.4205
 3538W        W19722  15.852   8.523   0.991 -0.0958  0.2249  0.2090
 3539W        W19723   4.070   1.825   4.429  0.0509 -0.0578 -0.0088
 3540W        W19724   5.176   5.578  12.471 -0.1341  0.0455  0.0510
 3541W        W19725  18.207   2.890   4.160 -0.1060  0.0003  0.0396
 3542W        W19726  10.973   1.506  14.689  0.0889  0.0887 -0.0247
 3543W        W19727   0.033   4.597   0.610  0.0239 -0.0018 -0.0163
 3544W        W19728   7.351  11.844  14.448 -0.2652  0.0383  0.1646
 3545W        W19729   8.518  19.161   0.354  0.2103  0.2659 -0.0152
 3546W        W19730  12.971  13.865   0.174 -0.2232 -0.4630  0.0862
 3547W        W19731  18.365   4.909   4.859  0.2496 -0.0384  0.0418
 3548W        W19732  16.100   5.208  14.625 -0.2227 -0.1454  0.0853
 3549W        W19733  17.194   2.176   3.241 -0.1165  0.2838 -0.0151
 3550W        W19734  18.061   2.110   1.190  0.0916 -0.0178 -0.0314
 3551W        W19735   7.416   4.823  12.396  0.1368 -0.1363  0.1871
 3552W        W19736   6.007  18.745  11.105 -0.0726 -0.0513  0.1930
 3553W        W19737  10.118   8.993   0.526 -0.2662 -0.0761  0.2208
 3554W        W19738   4.966  16.011   2.096  0.0233 -0.4608 -0.0545
 3555W        W19739   1.686  11.685   3.257 -0.0229 -0.1950  0.0369
 3556W        W19740   0.532  16.734   1.416  0.5041 -0.1963 -0.1293
 3557W        W19741  12.033  15.389  13.879  0.3295  0.2522  0.2253
 3558W        W19742   7.373   0.664   4.674 -0.1496  0.2391  0.2343
 3559W        W19743   7.082   4.224  13.691  0.1831 -0.0258 -0.4809
 3560W        W19744   5.385   6.443  14.455 -0.1366 -0.1556  0.2842
 3561W        W19745   2.905   7.180  12.118 -0.1239 -0.1835  0.3068
 3562W        W19746  16.240   2.521   0.847 -0.1830 -0.3865 -0.1728
 3563W        W19747   0.075  19.060   0.721 -0.1780 -0.1725 -0.0655
 3564W        W19748   4.888   7.447   5.718  0.4022  0.0727  0.0072
 3565W        W19749  17.797   2.999  13.838 -0.0659  0.1836 -0.0590
 3566W        W19750  18.580   6.211   0.805  0.2997 -0.1425 -0.3968
 3567W        W19751  13.296  11.532  10.322 -0.0657  0.1431  0.0532
 3568W        W19752   5.639  12.297   0.372  0.0085  0.4026 -0.0494
 3569W        W19753   8.419  12.860   2.919 -0.0666 -0.3241 -0.0025
 3570W        W19754   5.950  13.264   1.805  0.2255  0.1356 -0.0498
 3571W        W19755  18.503   0.955   4.722 -0.0690  0.2733 -0.2487
 3572W        W19756   5.729  15.791  14.427  0.0933 -0.3041  0.1192
 3573W        W19757   6.753  19.292  12.749 -0.1951  0.0582  0.1613
 3574W        W19758   1.230   9.693   1.454 -0.1612 -0.1657  0.0009
 3575W        W19759  15.728   0.943   2.871  0.0215  0.1334 -0.0751
 3576W        W19760  16.947   2.361  10.184 -0.1568  0.1426 -0.0208
 3577W        W19761   6.521  18.559   1.093 -0.3174 -0.1573  0.0129
 3578W        W19762  12.142  14.887   4.013 -0.1168  0.0209  0.0735
 3579W        W19763   6.962  14.746   4.228  0.0854  0.1903 -0.0633
 3580W        W19764   8.526  14.094  13.480  0.0521 -0.2833 -0.1424
 3581W        W19765   0.341  13.444   1.791 -0.0760  0.1704  0.0841
 3582W        W19766   9.173  13.066   3.559 -0.2245 -0.0812 -0.1140
 3583W        W19767  16.705  16.565   1.292 -0.0032 -0.1110  0.0451
 3584W        W19768   8.278  10.337   1.865 -0.2486 -0.0382  0.0548
 3585W        W19769  13.436   2.062   4.835 -0.0534 -0.2217 -0.1931
 3586W        W19770   5.601  15.609   1.914  0.2566 -0.0323  0.0199
 3587W        W19771  10.390   0.735   4.128 -0.1220  0.0071  0.0692
 3588W        W19772   3.394   1.449   9.534 -0.2344 -0.0216 -0.1606
 3589W        W19773   6.626   6.252  14.794  0.2149  0.0920 -0.2310
 3590W        W19774   3.981   2.279  12.865  0.0954 -0.2632  0.1997
 3591W        W19775   7.696  16.479   5.152  0.0451 -0.0449  0.0887
 3592W        W19776   7.270   6.913   1.129  0.1513 -0.1949  0.1706
 3593W        W19777   5.796   7.655   3.648  0.1424  0.0239 -0.0103
 3594W        W19778  11.723   8.010  10.440 -0.3303  0.0737  0.2975
 3595W        W19779  12.470   6.501  13.026  0.1671  0.0694  0.0960
 3596W        W19780  11.865   7.293  12.777  0.1425 -0.1802 -0.1049
 3597W        W19781   2.049   8.027  14.366 -0.3657 -0.0497 -0.1496
 3598W        W19782  15.770  12.936  13.133 -0.0410 -0.1186  0.0586
 3599W        W19783  18.250  14.787  14.487  0.1431  0.1275 -0.3667
 3600W        W19784  13.294  19.146   1.673  0.1781  0.0142  0.0896
 3601W        W19785  17.112  13.310   0.884 -0.4307 -0.1509 -0.1129
 3602W        W19786  12.471   8.648  12.351  0.1828 -0.2509  0.0703
 3603W        W19787   0.768  15.001  13.106 -0.2201 -0.2649 -0.1711
 3604W        W19788   9.139   5.708   1.644  0.0476  0.2269  0.2118
 3605W        W19789  12.628   4.988   1.787  0.2504 -0.4195  0.0132
 3606W        W19790  16.570   5.032   1.725  0.2574 -0.2725 -0.1269
 3607W        W19791   5.307   6.640   4.510 -0.1698 -0.3435  0.1840
 3608W        W19792  10.881  18.747   9.700  0.0605 -0.0373 -0.0176
 3609W        W19793   2.747   0.971   2.296  0.1720  0.2115 -0.0166
 3610W        W19794   9.924   3.318  10.210  0.0836 -0.2134  0.1067
 3611W        W19795  18.185   7.271   2.712 -0.0895  0.0628  0.2390
 3612W        W19796  11.045   6.110   1.140  0.4873 -0.0244  0.1227
 3613W        W19797  11.649   1.023  14.380 -0.0229 -0.3217  0.1455
 3614W        W19798   3.086   1.770  11.330  0.1598 -0.0378  0.0964
 3615W        W19799  13.563   9.818  12.939  0.1037 -0.3226 -0.2502
 3616W        W19800  18.570   3.688  11.025  0.3071  0.0005  0.2482
 3617W        W19801   4.565  17.861  12.843 -0.1172  0.4494 -0.0776
 3618W        W19802   5.679   9.195   4.704  0.3192  0.3110 -0.1571
 3619W        W19803  17.764  17.871   3.253 -0.1138  0.0307 -0.0361
 3620W        W19804   4.771   5.983   0.042 -0.1306  0.0011  0.0283
 3621W        W19805   8.871   1.947   4.202  0.1617 -0.0313 -0.0223
 3622W        W19806   8.085   8.839   5.286 -0.0497  0.0325  0.0791
 3623W        W19807   5.258  16.164   2.725  0.2197  0.0234 -0.4423
 3624W        W19808  19.345  17.000   0.245 -0.0642  0.0320 -0.1132
 3625W        W19809  16.057  15.638  13.046  0.1841  0.0449  0.1985
 3626W        W19810  16.452   0.440   4.195 -0.0545 -0.2816  0.0188
 3627W        W19811  16.775   0.914  14.362 -0.0181 -0.3454 -0.3575
 3628W        W19812   9.141  10.826   1.530 -0.0477 -0.1677  0.3898
 3629W        W19813   6.646   0.904  12.163  0.2193  0.2716 -0.1596
 3630W        W19814   3.198   5.885  12.673 -0.0477  0.1261  0.2434
 3631W        W19815   6.195   6.787  13.304  0.3480 -0.0544 -0.1930
 3632W        W19816   0.369  14.244  11.572  0.1897  0.1632  0.3442
 3633W        W19817  12.396   8.699  11.198  0.3983  0.0926 -0.0643
 3634W        W19818   8.971  16.901  14.249  0.3588 -0.0393  0.0877
 3635W        W19819   0.295   0.488   1.374  0.0077 -0.2435 -0.2237
 3636W        W19820  17.409   6.167   4.699  0.0437 -0.0005 -0.0237
 3637W        W19821   0.838   4.567   5.497  0.2442  0.2001 -0.0637
 3638W        W19822   2.304   3.582  13.657  0.3074 -0.1147  0.1945
 3639W        W19823   1.716   8.409   2.066  0.1925  0.3169  0.0091
 3640W        W19824  17.923   6.681   3.757  0.2640  0.2082 -0.0018
 3641W        W19825  17.781   3.548   5.499 -0.0797  0.0783  0.1460
 3642W        W19826   9.358  17.584   2.933  0.1971 -0.2871  0.0844
 3643W        W19827   5.670  18.413   2.033 -0.0934 -0.0088 -0.0788
 3644W        W19828  14.406   7.882   3.829 -0.1522  0.1531 -0.1077
 3645W        W19829   4.711   2.564  12.428  0.0114  0.1123  0.0607
 3646W        W19830  17.332  11.810   3.529 -0.0419  0.0449 -0.2525
 3647W        W19831   8.999  11.112   1.949  0.0704  0.0869 -0.1705
 3648W        W19832   4.098   5.042   1.508 -0.4069 -0.1853  0.0219
 3649W        W19833   1.680   9.365   5.254  0.0239 -0.0034 -0.0289
 3650W        W19834   5.953  17.017   1.274 -0.1721 -0.0745  0.1868
 3651W        W19835  19.115   6.845   0.282  0.9009  0.0930  0.0371
 3652W        W19836  19.001  10.742   5.214 -0.1476  0.4302 -0.1168
 3653W        W19837  14.760  18.686   4.426 -0.2557  0.1516 -0.2078
 3654W        W19838  13.470   8.513  11.054 -0.2122  0.0262  0.1350
 3655W        W19839  10.896   1.161   9.523  0.1663 -0.0168  0.0938
 3656W        W19840  17.939  10.089   0.485  0.4507 -0.1780  0.2482
 3657W        W19841  16.236   6.678  12.598  0.2292  0.2304  0.0199
 3658W        W19842   6.523   1.672  12.401 -0.2595 -0.0689 -0.1002
 3659W        W19843  14.635  16.912   1.992 -0.0875 -0.0157  0.0479
 3660W        W19844  14.006  18.046   0.114  0.0989 -0.0456  0.1390
 3661W        W19845   3.023  14.853  12.221 -0.1082  0.3972 -0.2987
 3662W        W19846  12.151  15.375   3.219 -0.2234  0.0860  0.1836
 3663W        W19847   9.617   2.276  10.291  0.0149  0.2354 -0.0689
 3664W        W19848   3.671   7.566  14.488  0.1591 -0.2320 -0.0282
 3665W        W19849   3.497   4.307  13.045  0.1362  0.0025  0.0541
 3666W        W19850   0.449  10.579  14.804  0.1876 -0.1859 -0.3697
 3667W        W19851   6.184  10.272  14.125  0.1431 -0.3276 -0.2280
 3668W        W19852  11.324  18.362  11.439  0.0854  0.1000  0.0385
 3669W        W19853  12.077  18.330   2.573  0.1717 -0.1080 -0.4450
 3670W        W19854  12.270   0.894  13.065  0.2007 -0.1145 -0.2319
 3671W        W19855  11.210   7.287   4.677 -0.1350  0.2412  0.1747
 3672W        W19856   2.777   4.250   2.450  0.2723 -0.0199  0.0847
 3673W        W19857  13.066   8.820   2.417  0.0408 -0.1240 -0.0532
 3674W        W19858   3.051  14.006   0.062 -0.1734  0.0732 -0.1189
 3675W        W19859   3.749   0.569  14.390 -0.1632  0.3569 -0.2846
 3676W        W19860  12.124  16.947  12.988  0.2417 -0.2225  0.1282
 3677W        W19861   8.138  16.273  13.838 -0.4188  0.2571  0.3296
 3678W        W19862  13.302  15.356  12.511 -0.0243  0.0104  0.0085
 3679W        W19863   8.083  12.648   4.387  0.0229 -0.1684 -0.2133
 3680W        W19864   2.190   0.479   3.847  0.0628  0.2296  0.1713
 3681W        W19865   3.604   4.567   5.678  0.1036  0.0892 -0.0575
 3682W        W19866   3.595   6.169   0.297  0.0704  0.0366 -0.0615
 3683W        W19867  13.885  18.883   3.945  0.4582  0.1627  0.4331
 3684W        W19868   5.439  12.749   5.362 -0.0348  0.2356  0.0110
 3685W        W19869  17.779  13.537   5.168  0.2231 -0.3634  0.1762
 3686W        W19870  10.693  10.914  10.495 -0.2491  0.0785 -0.0217
 3687W        W19871  18.992   6.790   4.544  0.0550 -0.1507 -0.3600
 3688W        W19872   9.433   7.686  10.815  0.1110 -0.1048  0.2828
 3689W        W19873   0.924   9.527   3.751  0.3256  0.4103 -0.2965
 3690W        W19874   7.130  12.111   3.579 -0.0576 -0.1613  0.2177
 3691W        W19875   8.284   9.162  11.292  0.0798  0.0452  0.2924
 3692W        W19876  16.618   6.400  10.345  0.3819  0.2366 -0.0079
 3693W        W19877   6.599   2.125   2.550 -0.1314  0.4031 -0.0972
 3694W        W19878  13.535   7.949  13.686  0.2727  0.1527 -0.2794
 3695W        W19879  18.405  11.899  14.072 -0.1680 -0.0368 -0.0937
 3696W        W19880  15.620   1.167  11.565  0.0440 -0.0205 -0.4362
 3697W        W19881  16.197   4.865  12.551  0.2406  0.2680  0.0536
 3698W        W19882   3.859   9.081   5.447 -0.5277  0.4812 -0.1835
 3699W        W19883  13.275  10.635   0.906  0.1581  0.1020  0.1871
 3700W        W19884  15.066   6.796  13.231  0.1097  0.0398  0.0758
 3701W        W19885  13.498   2.406   1.108  0.0065  0.4657 -0.0096
 3702W        W19886   1.737   1.826  12.718 -0.1021  0.0058  0.3681
 3703W        W19887  11.456  17.301   9.911 -0.1389  0.0741  0.4100
 3704W        W19888   6.974  13.523   4.998 -0.0506 -0.3075 -0.0660
 3705W        W19889  15.813   3.517  10.836  0.0656  0.1049 -0.3024
 3706W        W19890   8.665  18.935   5.333 -0.4050 -0.1335  0.3349
 3707W        W19891  12.585  18.605  14.644 -0.0455 -0.2727  0.1010
 3708W        W19892   3.902  13.515  13.074 -0.0560  0.1319  0.0752
 3709W        W19893  19.099  13.999  12.829  0.1482  0.0610 -0.1166
 3710W        W19894   8.555   6.097   4.487  0.1556  0.3091  0.0252
 3711W        W19895  16.274  12.426  13.944 -0.0973  0.2111  0.3122
 3712W        W19896   0.497   5.997   2.936  0.3020  0.0490  0.1302
 3713W        W19897   7.103  17.251   1.248 -0.0460  0.0584 -0.4254
 3714W        W19898  13.857   2.978  14.934  0.1127  0.0928  0.1309
 3715W        W19899  17.474  11.104  12.446  0.0197 -0.1041  0.0254
 3716W        W19900  18.544  10.140   4.356  0.2508  0.1914 -0.0027
 3717W        W19901   6.172  15.625  14.135  0.0329 -0.0084  0.1895
 3718W        W19902   7.428  10.198   1.239  0.1936 -0.2792  0.3022
 3719W        W19903   4.493  16.113   1.839  0.2697  0.1870  0.1982
 3720W        W19904  12.972   9.838  13.606 -0.3396 -0.3604 -0.1569
 3721W        W19905  18.971  12.136   0.089  0.1163 -0.2023  0.2675
 3722W        W19906   8.162   1.313  10.147  0.1424 -0.0043 -0.2136
 3723W        W19907   3.079  18.526   0.135 -0.1870  0.1579  0.1377
 3724W        W19908   1.444   1.073  14.484 -0.3799 -0.0102 -0.0030
 3725W        W19909  16.224   7.658  14.234  0.3692  0.0023  0.0362
 3726W        W19910  17.914   7.721  14.532  0.0109  0.2082 -0.0307
 3727W        W19911   5.484   1.976   2.947 -0.1359  0.1381 -0.1541
 3728W        W19912   7.913  16.559   2.048  0.3294  0.0984  0.2494
 3729W        W19913  16.822  14.505  13.038  0.0400 -0.0649  0.4050
 3730W        W19914  13.598   9.702  10.426 -0.0889 -0.1527  0.1561
 3731W        W19915  17.814   8.908  12.415  0.0027 -0.2504 -0.0067
 3732W        W19916  13.502   6.109   4.056 -0.3404 -0.1308 -0.1977
 3733W        W19917  17.880   8.657   1.836  0.1474  0.1233  0.0535
 3734W        W19918   7.925   6.252  11.551  0.2720  0.0504  0.2153
 3735W        W19919   0.678  16.178  12.932 -0.2334  0.1547  0.1272
 3736W        W19920  17.822  10.783  11.600 -0.2471 -0.1268  0.1127
 3737W        W19921  17.103  14.699   3.811  0.0313 -0.2217  0.0353
 3738W        W19922   4.466   1.539  11.218  0.3643  0.0443  0.0781
 3739W        W19923  12.878   6.056  12.236 -0.1433  0.2426 -0.0487
 3740W        W19924   3.680   6.419  14.006 -0.2145 -0.0376  0.2653
 3741W        W19925   0.682  18.546   4.637  0.0419  0.2334 -0.1044
 3742W        W19926   7.917   3.654  13.742  0.5077 -0.0222  0.1013
 3743W        W19927   0.012  11.909   2.654  0.0804  0.0141  0.6068
 3744W        W19928   9.784  18.679  13.839 -0.1768  0.0010 -0.3773
 3745W        W19929  13.651  12.592  13.866  0.0546 -0.1702 -0.2528
 3746W        W19930  18.048  16.226  10.804 -0.0184 -0.1601  0.0587
 3747W        W19931   2.810  16.593   1.756 -0.4468  0.1998 -0.0572
 3748W        W19932   0.396   6.220  11.573  0.4121  0.2013  0.2011
 3749W        W19933  10.950  17.239   2.519  0.1240  0.0476  0.1062
 3750W        W19934   9.854   9.487   4.204 -0.0973  0.2189 -0.4786
 3751W        W19935  13.320   1.490   2.753  0.1001  0.1646  0.0673
 3752W        W19936   9.680   1.269   5.035  0.0621 -0.0407 -0.2435
 3753W        W19937   3.003   8.278   0.416 -0.0387 -0.4415  0.0624
 3754W        W19938   7.886   5.295  14.100 -0.2904  0.0592 -0.0444
 3755W        W19939  18.153  16.542   5.421 -0.1592  0.1316 -0.2265
 3756W        W19940   4.914  12.656  11.119 -0.1029 -0.1716 -0.0012
 3757W        W19941   5.746   5.526   2.352  0.3934  0.1957  0.2293
 3758W        W19942   8.218  17.854  12.166 -0.1819  0.1364 -0.1406
 3759W        W19943   8.190  18.008  14.389 -0.1484  0.3038  0.1857
 3760W        W19944   0.493   8.491   4.807 -0.0050  0.0493 -0.1263
 3761W        W19945  14.595  17.112   9.007  0.3353  0.2063  0.0675
 3762W        W19946  14.904   9.213  11.542  0.1633  0.1830 -0.2001
 3763W        W19947   5.691  16.657   1.983 -0.2896  0.2927 -0.1345
 3764W        W19948  14.804  17.458  10.402 -0.0409  0.0435 -0.0569
 3765W        W19949   4.334  12.131  12.819  0.2042  0.2340 -0.0657
 3766W        W19950   4.857  16.928   2.365  0.0795 -0.1260  0.0905
 3767W        W19951   3.157  11.342  11.527 -0.1276 -0.0528  0.4055
 3768W        W19952  13.153  19.136  12.079 -0.1311 -0.0833  0.1300
 3769W        W19953   2.517  16.200  10.643 -0.0800  0.0168 -0.2609
 3770W        W19954   0.037   6.726   4.247  0.0867 -0.0669  0.1357
 3771W        W19955   5.395  13.964   5.319 -0.3078  0.2931 -0.0792
 3772W        W19956  10.366   4.429  13.567 -0.0361 -0.1101 -0.0627
 3773W        W19957   3.786  17.885  11.072  0.0604  0.1349  0.2756
 3774W        W19958  16.411   6.110   4.353  0.0038  0.1077 -0.1532
 3775W        W19959   5.086   6.048   3.935  0.0204  0.0437 -0.2898
 3776W        W19960   8.095   6.747   3.747  0.1330  0.2226 -0.0448
 3777W        W19961  14.931   8.153  12.320  0.3112  0.1794 -0.2423
 3778W        W19962   1.629  14.750  10.608 -0.0416  0.2535  0.1750
 3779W        W19963  17.216  16.947   4.345 -0.1019 -0.1376  0.1086
 3780W        W19964  16.867  16.625   2.253  0.0001  0.1261 -0.1593
 3781W        W19965  10.640  15.283   2.253 -0.0100 -0.3641  0.1298
 3782W        W19966  15.275  15.252  13.434 -0.0025 -0.0713  0.1830
 3783W        W19967   7.884   2.108  11.117  0.2161  0.0124 -0.2287
 3784W        W19968  14.388  13.016  13.297 -0.0020  0.3168 -0.0029
 3785W        W19969   5.535   9.236  14.616  0.0701  0.2763  0.5621
 3786W        W19970  18.817   0.741   2.680  0.2097  0.2655  0.0032
 3787W        W19971   6.692   1.282  11.821 -0.1913  0.1294 -0.0000
 3788W        W19972  13.444  15.042  10.674 -0.0217  0.2341  0.2410
 3789W        W19973  11.792  16.562  14.713 -0.2188  0.1516  0.3541
 3790W        W19974  10.621   1.874   4.749 -0.0169  0.0018  0.3604
 3791W        W19975   4.617  11.374   0.568 -0.0455  0.1726 -0.2338
 3792W        W19976  16.889   2.817  10.403  0.1118 -0.1565  0.2008
 3793W        W19977  12.718   7.360  13.859 -0.1709  0.0053  0.2709
 3794W        W19978  10.732  13.793   0.196 -0.1597 -0.3457 -0.2083
 3795W        W19979   6.523  16.959  11.929  0.2020  0.3166 -0.2506
 3796W        W19980  12.458  15.196  12.596 -0.0726  0.0342 -0.1003
 3797W        W19981   4.436  18.989   4.584  0.1401  0.2687  0.1314
 3798W        W19982   3.983   1.415   1.115 -0.4032 -0.3196  0.3177
 3799W        W19983   4.857   4.054   1.949 -0.2924 -0.0791 -0.0670
 3800W        W19984  11.810   8.736  11.803  0.1202  0.4421 -0.2739
 3801W        W19985   1.253  18.699   1.595 -0.1803  0.2516 -0.2884
 3802W        W19986  15.065  14.234  10.831  0.1154 -0.0833  0.6217
 3803W        W19987   9.301   0.057  10.183 -0.3122  0.0573 -0.2738
 3804W        W19988   8.100   8.942  12.572  0.2324 -0.0828  0.2736
 3805W        W19989  19.253  14.705   1.045 -0.0137  0.2297 -0.3371
 3806W        W19990  14.684   7.870  10.957 -0.0280  0.1869  0.1050
 3807W        W19991  15.732   4.976   3.938  0.1150  0.0098  0.3221
 3808W        W19992   6.403  18.806   2.482  0.1303  0.0461 -0.2243
 3809W        W19993  18.325   8.997  13.917 -0.0131 -0.0842 -0.0597
 3810W        W19994   5.958  11.967   1.148  0.4029  0.1953 -0.0116
 3811W        W19995   1.227  16.240  10.458  0.1013  0.1781 -0.5367
 3812W        W19996  17.275   1.746  10.888 -0.0908  0.0494  0.0950
 3813W        W19997   4.387   1.266   3.855  0.1296  0.2164  0.0554
 3814W        W19998  16.749  10.563   3.287 -0.5721 -0.1700 -0.0668
 3815W        W19999   2.159  13.673   5.184 -0.1783 -0.1994 -0.1109
 3816W        W20000  15.354   8.190   2.282  0.2229 -0.1148  0.0491
 3817W        W20001   3.156   4.499   0.527 -0.1341 -0.2236 -0.0953
 3818W        W20002  12.978  17.009  13.149 -0.1501 -0.1788  0.1243
 3819W        W20003  14.919  15.871   1.138 -0.0355  0.3250  0.0449
 3820W        W20004  13.973   5.705   2.983  0.3088 -0.1425 -0.1391
 3821W        W20005  15.468  11.537   4.950 -0.1239  0.2212 -0.0797
 3822W        W20006   7.219  10.561  10.853 -0.1161  0.1018 -0.1959
 3823W        W20007  10.578  16.153  11.975  0.2681  0.1478  0.0430
 3824W        W20008   4.339  10.920   0.525  0.2636  0.0746 -0.2248
 3825W        W20009  18.846   1.461  12.727 -0.0142  0.0829  0.1145
 3826W        W20010  14.986  11.300  11.346 -0.0153  0.1156  0.2758
 3827W        W20011  17.479  11.627   1.977  0.0580  0.1041 -0.3442
 3828W        W20012  15.743  17.651   4.355 -0.0863  0.1896 -0.3440
 3829W        W20013   5.997  12.505  11.308  0.0740  0.0000  0.1744
 3830W        W20014  13.949  11.430  10.565 -0.0480  0.0687 -0.1140
 3831W        W20015   8.855   2.569   1.485 -0.0086 -0.1856  0.0783
 3832W        W20016  12.889  16.628   0.507 -0.1792  0.0925  0.2027
 3833W        W20017  10.393   5.194   3.457  0.1205 -0.2327 -0.2486
 3834W        W20018  12.456   7.106  10.874  0.1092  0.1664 -0.4070
 3835W        W20019   7.817  15.010   0.446 -0.1567 -0.0171 -0.0282
 3836W        W20020   0.228   9.592  13.990 -0.1075 -0.1933  0.0083
 3837W        W20021  19.033   4.612   2.138 -0.1699  0.1927 -0.0100
 3838W        W20022   5.304   0.178   0.449  0.1708 -0.0193 -0.0133
 3839W        W20023   5.277  18.270  11.630  0.0056  0.1177  0.1841
 3840W        W20024  10.062   8.534   1.528 -0.3848  0.3000 -0.3783
 3841W        W20025  12.113  13.803  13.261  0.2595 -0.1328  0.0792
 3842W        W20026   8.446  17.470   2.413  0.0653 -0.2623  0.0598
 3843W        W20027   6.605  16.383   2.282 -0.0276 -0.2065  0.1876
 3844W        W20028  16.198  11.566  10.943  0.2118 -0.2036  0.4342
 3845W        W20029   6.273  16.170   0.261 -0.1431 -0.0914 -0.1707
 3846W        W20030   2.803   6.289  13.411  0.2326 -0.0714 -0.0169
 3847W        W20031   0.448  16.639   4.912  0.1125  0.2930  0.0773
 3848W        W20032  18.798  11.201  12.284  0.2016  0.0821 -0.5166
 3849W        W20033   1.074   0.320  12.033  0.0229 -0.3329  0.0448
 3850W        W20034  14.964   6.847   2.328  0.1829  0.1305  0.2349
 3851W        W20035   4.345  16.882  14.894  0.0487  0.1160 -0.2012
 3852W        W20036  15.140   6.846   3.721  0.2940 -0.1698 -0.0275
 3853W        W20037   6.274   4.733  13.133 -0.1863 -0.0614 -0.4135
 3854W        W20038  14.823   9.487   1.061  0.0973 -0.1099 -0.0138
 3855W        W20039   5.323  10.779   4.045  0.1589 -0.1191 -0.0937
 3856W        W20040   0.580   0.114  11.265 -0.5813 -0.1313 -0.1274
 3857W        W20041  14.765  10.838  10.365 -0.1460  0.0968 -0.3073
 3858W        W20042  18.854  11.781  13.844  0.0563 -0.1453  0.4608
 3859W        W20043   2.767   9.791   3.691  0.0708  0.0869 -0.3796
 3860W        W20044   4.456   0.516  13.133 -0.1796  0.0588 -0.2581
 3861W        W20045  13.907  19.068   1.675  0.0071 -0.3084 -0.2174
 3862W        W20046  12.224   9.537   4.267 -0.1220 -0.0171 -0.3735
 3863W        W20047  18.237   8.969  12.697 -0.0468  0.1559  0.1452
 3864W        W20048   5.350  14.888  14.379  0.1571 -0.1136 -0.1608
 3865W        W20049   8.802  17.745   2.211 -0.0785 -0.1090  0.0947
 3866W        W20050   9.255   4.936   0.250  0.0483 -0.0561 -0.1554
 3867W        W20051   8.375   0.466   2.414 -0.0186  0.0001  0.4439
 3868W        W20052  15.320  10.364  14.865  0.2098 -0.1127 -0.0782
 3869W        W20053   9.071   9.835   2.571  0.0648  0.0818 -0.1095
 3870W        W20054   5.388   3.251   2.191  0.3707  0.0530 -0.3398
 3871W        W20055   5.080  13.604  10.379 -0.0730 -0.0978 -0.1094
 3872W        W20056   9.390  11.820  13.721  0.0737  0.1902  0.2637
 3873W        W20057  12.972  12.499  12.170 -0.0761 -0.0175  0.0961
 3874W        W20058   7.939  11.095   1.347 -0.2037  0.3251 -0.0261
 3875W        W20059   8.766  16.240   1.076 -0.0329 -0.1051 -0.4509
 3876W        W20060  18.730  13.093  13.371 -0.2815 -0.0940  0.2506
 3877W        W20061   2.077  15.981  12.882  0.1702  0.1327  0.0260
 3878W        W20062  11.693  16.013  12.556 -0.1992 -0.0696  0.0813
 3879W        W20063   6.561  15.288   1.533  0.0077 -0.1163  0.0943
 3880W        W20064   6.598  15.753   1.640  0.0686  0.2010  0.2985
 3881W        W20065  18.698   4.485   2.502  0.1491 -0.0571 -0.1373
 3882W        W20066   8.304  17.865  13.642 -0.3178 -0.1057 -0.1123
 3883W        W20067  13.422   5.484   2.031  0.2846  0.1044 -0.2899
 3884W        W20068  19.213  12.540  11.262 -0.0157  0.0018 -0.2106
 3885W        W20069  17.785   7.736   2.791 -0.1931  0.1204  0.0995
 3886W        W20070  11.743  11.397  10.118 -0.1601 -0.2435 -0.2272
 3887W        W20071  12.176   7.754  10.285  0.0187 -0.0097 -0.0261
 3888W        W20072   6.959  13.967   1.363  0.2214  0.0214 -0.1365
 3889W        W20073   7.306  10.376   3.859 -0.2153 -0.0544 -0.1513
 3890W        W20074   5.802  11.008   0.904 -0.0960  0.1611  0.0964
 3891W        W20075  14.333  16.918   5.412 -0.2571  0.1788 -0.0793
 3892W        W20076  16.478  11.046   1.992 -0.3068  0.3157 -0.0422
 3893W        W20077  19.126  15.194  14.734  0.1705  0.2020  0.2780
 3894W        W20078  16.715   3.483   0.157  0.2117 -0.2568  0.0493
 3895W        W20079   0.467  13.506   3.439 -0.0169 -0.0085  0.0021
 3896W        W20080   7.877  10.543  14.633 -0.2442 -0.1422  0.0116
 3897W        W20081   6.368  10.876  14.606 -0.0639  0.1111  0.1982
 3898W        W20082  18.887  13.850   3.828  0.1224 -0.1841  0.0303
 3899W        W20083   2.687  17.162  13.261  0.0583 -0.0193  0.4128
 3900W        W20084   7.815   1.101  14.415 -0.2297 -0.4732  0.1905
 3901W        W20085   1.104  18.280  12.360 -0.2634 -0.0068  0.0610
 3902W        W20086   1.945   0.585  12.329 -0.2255 -0.0187 -0.1015
 3903W        W20087   6.126  12.474   4.632 -0.1651  0.0321  0.3744
 3904W        W20088   4.154  13.153   2.209  0.0304 -0.0040  0.1278
 3905W        W20089  13.516   6.532   1.458 -0.0702  0.1307 -0.0561
 3906W        W20090  19.274  18.300   3.495 -0.1036  0.0912 -0.0065
 3907W        W20091  17.245   5.759   0.993 -0.0975  0.1215 -0.1344
 3908W        W20092   3.762   6.865   1.444 -0.0413  0.0054  0.0760
 3909W        W20093  14.436  18.261   3.759  0.0309 -0.0108  0.0259
 3910W        W20094  11.395   7.796   1.010 -0.2236  0.2328 -0.3169
 3911W        W20095  18.113   7.181  14.116  0.1468 -0.1614  0.0128
 3912W        W20096   8.669  14.069  14.861 -0.2294 -0.2527 -0.3582
 3913W        W20097  12.002   3.000   5.312 -0.1164  0.0443  0.0525
 3914W        W20098  13.390   4.713  14.933  0.0965 -0.3011  0.0573
 3915W        W20099  14.049   6.784  10.360  0.0954  0.0520 -0.1390
 3916W        W20100  17.596  11.445   0.608 -0.1348  0.1707 -0.2174
 3917W        W20101   6.615   8.823   4.608 -0.3918  0.1947 -0.2170
 3918W        W20102  17.557  17.426  10.236 -0.1474  0.1598  0.2227
 3919W        W20103   4.690  12.101  14.466 -0.0611  0.0418 -0.1807
 3920W        W20104   5.036   3.670   2.319 -0.0635  0.0577 -0.6114
 3921W        W20105  14.939  15.302   1.529  0.0550 -0.0514 -0.0651
 3922W        W20106   0.810   2.195  11.757 -0.0656  0.2176  0.0526
 3923W        W20107   0.680  18.753  14.199 -0.1652 -0.0835 -0.3696
 3924W        W20108   0.959  15.077  10.696  0.3073  0.2071 -0.1097
 3925W        W20109   4.989  18.158  13.621  0.0267  0.2060 -0.2202
 3926W        W20110   7.202   1.264  12.662 -0.1415 -0.2737  0.2264
 3927W        W20111   1.170  17.647   3.147  0.1423 -0.0016  0.1900
 3928W        W20112  16.314  16.844  11.442 -0.0985  0.2616  0.0742
 3929W        W20113  14.540  16.128   1.548 -0.1633 -0.0322 -0.2776
 3930W        W20114   7.373   6.687   2.128 -0.3299 -0.1855  0.5125
 3931W        W20115  11.531   6.852   0.856  0.0463 -0.1315  0.1327
 3932W        W20116   6.201   2.111  10.782  0.0464 -0.1670 -0.2501
 3933W        W20117  15.490  16.812  11.555 -0.0804  0.2489  0.0243
 3934W        W20118   4.144  10.954   1.440 -0.1020  0.2523  0.0301
 3935W        W20119  17.893  18.818  11.425  0.0312  0.0210  0.1713
 3936W        W20120   8.615   5.605  14.754  0.0274 -0.3228 -0.0124
 3937W        W20121   8.049   3.244  10.636 -0.0527 -0.0464  0.0149
 3938W        W20122  11.540   6.152  14.116 -0.3156  0.1001  0.0412
 3939W        W20123  18.994  13.604  11.508 -0.0930 -0.1207 -0.2249
 3940W        W20124  19.245  19.085  14.287  0.0851  0.1229  0.1290
 3941W        W20125  11.508   5.653   0.907  0.1460  0.0054 -0.1706
 3942W        W20126   4.178  10.780   5.327  0.0446 -0.1397  0.3625
 3943W        W20127  11.283  14.710   2.640 -0.0270  0.0200  0.1061
 3944W        W20128  12.710   0.835   1.290 -0.0127 -0.1269  0.0495
 3945W        W20129  10.128  19.089  13.796  0.0109 -0.0651  0.3188
 3946W        W20130  11.988   5.521  13.726  0.1253 -0.0588 -0.1261
 3947W        W20131  18.038   7.684   2.305 -0.2014 -0.0438  0.3660
 3948W        W20132  12.988  13.530   1.873  0.0069  0.0995  0.0625
 3949W        W20133  10.796   3.151   1.612  0.1593  0.1296 -0.1214
 3950W        W20134   8.675   0.710  11.948 -0.0008  0.1376 -0.2016
 3951W        W20135  15.551   9.153   0.566  0.2744  0.3537  0.2854
 3952W        W20136  13.160  13.160  11.030  0.0914  0.1567 -0.0780
 3953W        W20137  11.379   6.376   4.054  0.3249  0.2576  0.2177
 3954W        W20138   4.432   8.358   5.076 -0.2344  0.0494 -0.0566
 3955W        W20139   7.838  19.247  12.170  0.0498  0.3639 -0.0277
 3956W        W20140  11.305  12.591  14.739 -0.2973  0.3793  0.2228
 3957W        W20141  10.249   6.580   1.397 -0.2547 -0.0812 -0.0884
 3958W        W20142  18.209  10.240   3.893 -0.1208 -0.0446  0.0645
 3959W        W20143   8.760   4.477   3.630  0.1158 -0.1396 -0.2450
 3960W        W20144   7.126   7.364  11.980  0.0897 -0.3330  0.0545
 3961W        W20145   4.052  11.735  12.577 -0.0043  0.0987 -0.2217
 3962W        W20146  18.123   6.958  13.661  0.1555 -0.1392 -0.0174
 3963W        W20147  12.126  14.549   1.862  0.1646  0.0598  0.1262
 3964W        W20148   1.895  17.555   1.363  0.2415 -0.1673 -0.0529
 3965W        W20149  14.806   4.425   2.738 -0.1469  0.1291 -0.1115
 3966W        W20150  14.598  17.845   4.726  0.4959  0.0639  0.1100
 3967W        W20151   5.037   1.275   4.541 -0.1688 -0.2799 -0.0740
 3968W        W20152   4.861   5.487  13.613 -0.2150  0.2249 -0.1447
 3969W        W20153  12.219   8.110   1.594  0.0883  0.2525  0.0894
 3970W        W20154   3.927   5.672  12.591 -0.1013  0.0864  0.2119
 3971W        W20155   0.942   9.289   0.196 -0.1621  0.2315 -0.1546
 3972W        W20156   0.082  10.320   4.329 -0.0887 -0.0084 -0.2038
 3973W        W20157   3.392  16.777   4.905  0.1081  0.1860  0.1468
 3974W        W20158   8.924  11.904  12.311 -0.1610 -0.0980  0.1018
 3975W        W20159  13.034  19.314  14.389 -0.3598  0.0499 -0.2229
 3976W        W20160   0.532   9.048   3.582  0.0439 -0.1268  0.1535
 3977W        W20161  14.986  11.795  10.959  0.1682  0.1045  0.0861
 3978W        W20162  10.336  18.721  11.496 -0.1899 -0.0092 -0.0740
 3979W        W20163   7.785   4.776  10.313 -0.0028 -0.2521 -0.0177
 3980W        W20164  18.812  10.701  10.420  0.0757 -0.1129 -0.0284
 3981W        W20165   2.597  16.720  12.476  0.2161 -0.1716  0.3339
 3982W        W20166  11.460  16.486  10.308  0.3176 -0.1244 -0.1290
 3983W        W20167   7.286  15.972   4.499  0.1626  0.1795  0.1983
 3984W        W20168   0.139  14.004  11.157 -0.4166 -0.0968  0.0357
 3985W        W20169   8.931  18.149   1.879  0.3529  0.2965  0.0847
 3986W        W20170   0.241   2.108   1.230 -0.1178  0.3937 -0.1988
 3987W        W20171   3.039   3.031  10.832 -0.1199  0.1861 -0.5244
 3988W        W20172  18.084  18.770   3.021  0.3609  0.0823 -0.0269
 3989W        W20173  15.324  12.673  13.221  0.3509  0.1825  0.2399
 3990W        W20174  11.904   4.054  12.465  0.4330  0.1268 -0.1595
 3991W        W20175   6.639  14.145  14.009 -0.2539 -0.1013  0.0002
 3992W        W20176   8.788  13.939   2.693  0.0604 -0.3180 -0.0586
 3993W        W20177  11.595  13.803   0.916  0.1181  0.2513  0.1066
 3994W        W20178  11.383   3.963   1.693  0.1967  0.0906 -0.2260
 3995W        W20179   9.060  18.067  13.953  0.1839 -0.3183 -0.1319
 3996W        W20180   2.993  13.626   9.676 -0.0803 -0.5407  0.1794
 3997W        W20181  14.314   4.198  10.167  0.1814 -0.0989 -0.3802
 3998W        W20182  16.698   8.697  13.449  0.3233  0.1486 -0.0088
 3999W        W20183  16.211  14.554   4.225 -0.1868  0.2809  0.0141
 4000W        W20184   1.169  12.607   5.183 -0.1204  0.1379 -0.0866
 4001W        W20185   1.975   7.634  12.330  0.0048 -0.0579  0.0632
 4002W        W20186  18.386   6.514   2.587 -0.0772  0.0985 -0.2604
 4003W        W20187   5.569  10.331  11.242  0.1591 -0.4341  0.4740
 4004W        W20188   9.766   2.413   2.004  0.2553 -0.3568  0.2340
 4005W        W20189  18.449   0.276  12.986 -0.2486  0.3540  0.0869
 4006W        W20190   9.589   6.620  12.481  0.0075 -0.1425  0.2545
 4007W        W20191   1.460  13.295   4.603 -0.1662  0.1938  0.0773
 4008W        W20192   3.049   7.804   0.385  0.1669  0.0539 -0.0228
 4009W        W20193  14.763   3.043  11.104  0.0348  0.0670  0.2455
 4010W        W20194  14.534   8.099   4.836 -0.6071  0.2413  0.0743
 4011W        W20195   5.731  11.333  11.870  0.0403  0.0571 -0.0815
 4012W        W20196  15.288  14.045   1.165  0.2890 -0.2164 -0.4276
 4013W        W20197   2.192  15.942   2.110  0.0360  0.0786 -0.1421
 4014W        W20198   8.312  11.963  12.247 -0.1914 -0.0972  0.0039
 4015W        W20199   7.293   2.942   3.334  0.0777 -0.3936 -0.0421
 4016W        W20200   8.327  10.865   3.285  0.2464  0.1491 -0.2367
 4017W        W20201   1.080  12.978   1.972 -0.2837  0.1664  0.0480
 4018W        W20202   1.186   6.898  14.822  0.1999  0.4414 -0.0640
 4019W        W20203  17.105   2.924  13.435 -0.0001 -0.1431  0.0307
 4020W        W20204  16.697  18.180  11.299  0.3360  0.0742 -0.3092
 4021W        W20205   0.372  18.941  11.892  0.1660  0.2516 -0.3692
 4022W        W20206   4.132   2.048  13.705 -0.0244 -0.1094  0.1986
 4023W        W20207   2.749  13.830  10.245 -0.1608  0.1733  0.1822
 4024W        W20208   9.213   7.264   1.877  0.0812  0.1564 -0.1366
 4025W        W20209   3.563  10.308  12.412 -0.1222 -0.2087  0.0186
 4026W        W20210  15.182   2.991   1.083  0.1305  0.0415  0.2790
 4027W        W20211   4.859   3.915   3.736 -0.2742  0.2442  0.1590
 4028W        W20212  14.043  11.536   2.261  0.2077  0.3095  0.0578
 4029W        W20213   5.290   6.174   1.877 -0.1508  0.0603  0.5226
 4030W        W20214   3.226   4.564  11.902 -0.0289  0.0850  0.1046
 4031W        W20215  16.729   0.345   2.396 -0.3558  0.2833  0.1670
 4032W        W20216   4.830   7.051   3.437 -0.0394 -0.0446  0.0448
 4033W        W20217  17.152  10.872   3.544 -0.1094 -0.0654  0.0586
 4034W        W20218  18.097   7.539   3.155  0.1634 -0.2133  0.0599
 4035W        W20219   5.675  17.284  13.272 -0.1577  0.0678 -0.1226
 4036W        W20220  15.605   7.745   2.248  0.2739  0.1039 -0.1776
 4037W        W20221  19.365   8.864  14.272  0.1416  0.1679 -0.2244
 4038W        W20222   0.232  11.256   1.002  0.1481 -0.1317  0.1587
 4039W        W20223  10.280   5.862   0.225 -0.1807  0.0936  0.1949
 4040W        W20224  17.998   0.057   9.412 -0.2651  0.3891  0.2541
 4041W        W20225  14.301  19.381   2.442  0.0760  0.0398  0.3852
 4042W        W20226  11.736   9.486  11.950  0.1745  0.3524  0.1345
 4043W        W20227   4.601   1.865  13.325 -0.0021  0.0658 -0.1495
 4044W        W20228  15.849   4.550  11.074 -0.0433 -0.1049 -0.3782
 4045W        W20229  11.631  17.473  14.766 -0.1603  0.2875 -0.3949
 4046W        W20230   6.235   5.668   4.477  0.0701 -0.1660  0.0919
 4047W        W20231  14.234  15.803  12.641  0.0131 -0.0139 -0.1086
 4048W        W20232  17.207   3.026  14.547  0.0353 -0.3181  0.1899
 4049W        W20233  18.784   4.269   4.167 -0.3572 -0.1677 -0.6083
 4050W        W20234   4.441   7.402   4.181  0.2327  0.3672  0.2592
 4051W        W20235  13.628  13.170  13.804 -0.2990  0.0433  0.1892
 4052W        W20236   6.850   3.178   3.419  0.1188  0.0215  0.0009
 4053W        W20237  16.177  13.889  11.225 -0.1774  0.1319  0.3470
 4054W        W20238   5.682  17.757   3.124  0.0790  0.0083 -0.0421
 4055W        W20239  11.281   5.701   0.443 -0.4184  0.1046  0.2101
 4056W        W20240   7.357   1.413  11.101 -0.0764  0.3557  0.1227
 4057W        W20241  14.105   2.524   1.721  0.1210 -0.0605 -0.1195
 4058W        W20242  12.047  12.434  12.743 -0.5369  0.0592  0.1817
 4059W        W20243  12.805   3.740   3.829  0.1858 -0.1721  0.0346
 4060W        W20244   4.667   0.026   1.995  0.0111  0.2711  0.0189
 4061W        W20245   2.583  15.694   2.814 -0.0680 -0.0886  0.1749
 4062W        W20246  15.914   5.940  11.074 -0.2592  0.2457  0.1254
 4063W        W20247   4.985  10.358   2.938 -0.0767 -0.0199 -0.0526
 4064W        W20248  17.403  12.513   5.501 -0.1999 -0.1696 -0.0312
 4065W        W20249  16.992  19.161  12.857  0.0667  0.2132  0.0061
 4066W        W20250  16.877   9.378  11.367 -0.1386  0.0815 -0.0844
 4067W        W20251   3.983   8.638   5.962  0.0348  0.0158  0.1931
 4068W        W20252   3.980   1.832   5.591  0.1645  0.0083 -0.0081
 4069W        W20253   4.248   4.537   4.225  0.0814  0.1498 -0.1421
 4070W        W20254  15.742  11.854  12.999  0.4053  0.0345 -0.1191
 4071W        W20255   4.197  10.013   5.296 -0.0038 -0.0556 -0.3023
 4072W        W20256  12.604   2.902  11.775  0.2970 -0.1278  0.5516
 4073W        W20257  17.431   6.058  14.544 -0.1415 -0.3549 -0.2714
 4074W        W20258  15.880   4.965   9.912  0.2619  0.1329  0.0470
 4075W        W20259   3.482   4.221   0.165  0.0337  0.3107  0.2139
 4076W        W20260   6.140  16.883  11.497  0.3214 -0.1079 -0.0848
 4077W        W20261  12.495  13.991   0.106  0.0779 -0.1106  0.2654
 4078W        W20262   8.794   3.770  10.995  0.1399  0.2167  0.2577
 4079W        W20263   1.047   5.898   4.854 -0.0148 -0.2030  0.1169
 4080W        W20264   7.186  10.821   0.242  0.0680 -0.0896 -0.1137
 4081W        W20265  17.601   9.915  11.494  0.5418  0.1475  0.0531
 4082W        W20266   1.178  12.132   5.204 -0.1738  0.1186  0.1808
 4083W        W20267   9.930  18.655   3.578  0.0724 -0.2540 -0.0112
 4084W        W20268   9.248   2.109  14.821  0.0048  0.0775  0.0520
 4085W        W20269  12.988  13.287   3.680 -0.1921  0.1838 -0.2204
 4086W        W20270  11.926   6.626  10.234 -0.0811  0.3162  0.0348
 4087W        W20271   6.128   4.589   4.513  0.2098  0.1829  0.1316
 4088W        W20272  16.274  15.317  11.418 -0.1233 -0.1349  0.0077
 4089W        W20273  16.636   8.721   3.357 -0.1511 -0.1416  0.0792
 4090W        W20274  17.795   1.156  12.608 -0.3663  0.0015 -0.1572
 4091W        W20275   6.506  10.704   4.089 -0.1868  0.2315  0.1509
 4092W        W20276  14.773   7.418  11.973  0.1276  0.1484 -0.3407
 4093W        W20277  16.656   9.671   3.061 -0.0840  0.3955  0.1954
 4094W        W20278  18.462   1.792   4.140  0.0447  0.1247 -0.0124
 4095W        W20279   0.138  13.388   3.918 -0.0463 -0.0368 -0.1166
 4096W        W20280  14.278  12.531  10.370 -0.1111 -0.2088  0.0445
 4097W        W20281   4.239   5.299  10.008 -0.0267 -0.3774  0.0664
 4098W        W20282   0.442   6.431   5.992  0.2503  0.1153 -0.1582
 4099W        W20283   0.481   5.745   0.138  0.0910 -0.0144  0.0181
 4100W        W20284  13.728   9.134   4.456 -0.0429  0.1667  0.1317
 4101W        W20285  15.272  10.478  10.439 -0.0141  0.1692 -0.3516
 4102W        W20286   1.908   0.481  11.280 -0.0563  0.0306 -0.0527
 4103W        W20287   5.497  16.776   1.441 -0.1306  0.2450 -0.0981
 4104W        W20288  17.200   7.415   9.835  0.0309 -0.0524  0.1443
 4105W        W20289  17.261   1.161  14.067  0.2501  0.1084  0.1371
 4106W        W20290   6.734   3.754   4.021 -0.0715 -0.1579 -0.0838
 4107W        W20291  11.463   4.621   3.025 -0.1412 -0.0050 -0.0555
 4108W        W20292  12.782  10.838   3.905 -0.1023  0.1377 -0.0941
 4109W        W20293   1.245   0.544   2.398  0.1206 -0.0591 -0.3210
 4110W        W20294  17.391   6.976   4.758 -0.0818  0.2254 -0.0720
 4111W        W20295   9.551  14.750  10.323 -0.3372 -0.4616 -0.4805
 4112W        W20296  12.599  12.100   2.989  0.0712 -0.1622  0.2635
 4113W        W20297  18.295  15.067  14.895 -0.2384  0.0848  0.0253
 4114W        W20298   4.247  16.245  11.805 -0.0386  0.0280  0.1777
 4115W        W20299   4.371   5.998   6.009  0.1146 -0.3038 -0.2645
 4116W        W20300  18.678   0.866   0.915  0.1744  0.1932  0.1264
 4117W        W20301   2.093   6.289   0.993  0.1045 -0.1923 -0.1545
 4118W        W20302   8.057   5.469  14.821 -0.0447 -0.1245  0.0600
 4119W        W20303   4.557  11.264  12.643 -0.0380 -0.0509 -0.0065
 4120W        W20304  18.701   1.326   4.059  0.1556 -0.3199  0.1325
 4121W        W20305  17.294   0.323   1.426  0.2942  0.2522  0.1028
 4122W        W20306  12.850   2.889  13.732  0.1331 -0.2625  0.1825
 4123W        W20307   0.768   4.013  14.421 -0.0718  0.0138  0.3321
 4124W        W20308   3.553  15.186   2.792  0.3040 -0.1711  0.1702
 4125W        W20309   0.369   7.472   5.641 -0.0684 -0.3895  0.0300
 4126W        W20310   8.201   7.204   4.199  0.2550  0.0944  0.2184
 4127W        W20311   5.513  14.101   3.903 -0.0109 -0.0438 -0.0147
 4128W        W20312  17.524   8.973   3.040  0.2625 -0.0306  0.0634
 4129W        W20313   6.636  14.010   3.675 -0.0947  0.1304  0.0055
 4130W        W20314   1.867   2.238  12.911 -0.0291 -0.2770  0.0815
 4131W        W20315   2.848  18.835   1.442 -0.3863 -0.1671 -0.1658
 4132W        W20316   0.212   3.780   1.164 -0.1031 -0.0677 -0.3042
 4133W        W20317  16.922  13.857  10.959 -0.0571  0.1926  0.0325
 4134W        W20318   8.287  11.473  12.970 -0.1697 -0.1781  0.0533
 4135W        W20319  11.213   9.783   0.336 -0.2797  0.0624 -0.0073
 4136W        W20320   1.068   2.752   4.776 -0.0021  0.1424  0.1474
 4137W        W20321  15.411   4.540  11.434  0.1680  0.1995 -0.2139
 4138W        W20322   3.603   0.467  12.721 -0.0651  0.5052 -0.3375
 4139W        W20323  10.347  11.335   4.629  0.1205  0.1277  0.2718
 4140W        W20324   9.896  17.991  12.430 -0.0891  0.0293  0.0549
 4141W        W20325   4.834   5.978   1.935 -0.0994 -0.1286 -0.0624
 4142W        W20326  14.113   5.365   0.950  0.0921 -0.2205  0.3186
 4143W        W20327  17.063   5.973  13.658 -0.3055 -0.2063 -0.1167
 4144W        W20328  15.594  10.237   3.789 -0.2647  0.0620 -0.0738
 4145W        W20329  14.997   7.537  11.027 -0.1381  0.0590 -0.1519
 4146W        W20330   6.370  11.684  12.451 -0.1717  0.1202 -0.0417
 4147W        W20331  10.490  11.740   3.051  0.1445 -0.2262 -0.1678
 4148W        W20332  16.936   5.429   1.633 -0.1176  0.1361  0.1259
 4149W        W20333  17.480  10.630  11.994  0.3532 -0.2240 -0.0371
 4150W        W20334  12.415  10.818   3.547  0.3309  0.1538  0.1725
 4151W        W20335  10.234   9.121  14.106  0.0148  0.0394 -0.0063
 4152W        W20336   9.569   1.288  10.094 -0.0923 -0.2717 -0.2621
 4153W        W20337   0.225  18.886   3.022  0.2498  0.0585 -0.0872
 4154W        W20338  16.087   1.846  12.250  0.1391  0.1378 -0.0269
 4155W        W20339  12.448   9.723   3.021 -0.0747  0.1604 -0.1916
 4156W        W20340   0.145   4.545   2.238  0.2456  0.1050  0.0352
 4157W        W20341  12.156   6.938  13.025  0.3554 -0.2049 -0.4226
 4158W        W20342   5.917   1.182   1.094 -0.1749  0.2086 -0.1670
 4159W        W20343   2.486  16.973   4.100 -0.3670 -0.1488 -0.1314
 4160W        W20344   4.044   7.990  12.124  0.2532  0.0309  0.0303
 4161W        W20345  12.225   3.037   2.202  0.2885 -0.1596 -0.0162
 4162W        W20346  19.390  12.232  13.454  0.1632 -0.1420  0.0657
 4163W        W20347   3.708  11.568   3.618 -0.0015  0.1263  0.1077
 4164W        W20348   4.349   0.753  14.420 -0.2296  0.0019 -0.2700
 4165W        W20349   6.314  19.325   2.844  0.1348  0.1869  0.0127
 4166W        W20350   6.801   9.406  11.346  0.2930 -0.2125 -0.2117
 4167W        W20351  10.328  17.456  13.855 -0.0771  0.1089  0.1682
 4168W        W20352   8.533   6.446   1.436  0.0902 -0.2687  0.2378
 4169W        W20353  16.617   4.570  11.808  0.2839  0.0873  0.0370
 4170W        W20354  13.837  14.945  13.945  0.0543  0.3830  0.0481
 4171W        W20355   7.456   7.132   1.924 -0.0888 -0.2524  0.0510
 4172W        W20356   4.105   3.751   4.675  0.0810  0.0953 -0.1245
 4173W        W20357  13.874   3.929  14.847 -0.2379 -0.1334  0.0654
 4174W        W20358  10.672  15.796  11.422  0.0908  0.0160 -0.0304
 4175W        W20359   6.683  11.777   4.410  0.0223  0.1393 -0.4829
 4176W        W20360  16.103   1.124  11.612  0.3336 -0.3185 -0.0949
 4177W        W20361  18.513  18.791  13.575  0.1338  0.0505 -0.0338
 4178W        W20362  18.533   7.384   4.043  0.0700  0.2538 -0.1491
 4179W        W20363  11.567  19.158  13.345  0.3495 -0.1181  0.0915
 4180W        W20364   7.831  17.069   0.317  0.1008 -0.1601 -0.0856
 4181W        W20365   7.902   3.109  14.463  0.1411  0.0025  0.1363
 4182W        W20366  16.706   1.592   1.727 -0.0544 -0.1773 -0.1552
 4183W        W20367  10.555   2.592   3.885  0.1661  0.4771 -0.6254
 4184W        W20368  15.769   4.705  13.775  0.1033  0.1727  0.1418
 4185W        W20369  15.107  10.749  11.398  0.1812 -0.0247  0.2195
 4186W        W20370  16.806   5.378   4.778 -0.0496 -0.2343  0.3298
 4187W        W20371   5.415  15.571  10.334 -0.1791  0.1310  0.0750
 4188W        W20372  14.979   8.376  11.855  0.0853  0.0199  0.2132
 4189W        W20373   3.613   7.339   0.072 -0.1877  0.2327  0.3517
 4190W        W20374   8.491  17.932   5.281 -0.2410  0.2404  0.0524
 4191W        W20375  17.748   3.213   4.111 -0.0009  0.1998 -0.2211
 4192W        W20376  14.997   5.535  12.292  0.1126 -0.0976 -0.0474
 4193W        W20377   1.905   8.204  11.449  0.2033  0.0864  0.1551
 4194W        W20378   2.662   2.362   0.913 -0.1075 -0.0626  0.2638
 4195W        W20379  14.233   4.638  13.788 -0.1230  0.0551  0.0631
 4196W        W20380  13.227  19.270  13.624  0.1533  0.1469 -0.0246
 4197W        W20381   7.466   8.247  12.318  0.1624 -0.0269 -0.0642
 4198W        W20382  19.272   8.610   2.445  0.0447  0.0219  0.0775
 4199W        W20383  15.891  14.096   0.614  0.2653  0.1011  0.3923
 4200W        W20384  11.907  17.275   0.651  0.1450 -0.0387 -0.0006
 4201W        W20385  18.069  12.399  10.430 -0.2788  0.4468 -0.0985
 4202W        W20386   2.637   7.612   4.500 -0.1436  0.1135 -0.3139
 4203W        W20387  16.252   8.601   3.709 -0.1651 -0.0439 -0.2854
 4204W        W20388  13.610  15.112   1.408 -0.1937 -0.2339  0.1924
 4205W        W20389   3.062   8.886  14.149 -0.0855  0.0367 -0.1482
 4206W        W20390  14.045   5.455   4.965 -0.0279 -0.0109 -0.2079
 4207W        W20391  15.459   4.582  12.916 -0.1555  0.1230 -0.0133
 4208W        W20392  15.273   6.343   1.501 -0.0745  0.0148 -0.0122
 4209W        W20393  13.249   0.690  12.751  0.0566  0.0079 -0.4545
 4210W        W20394  13.725   2.250  10.192  0.0936  0.1560  0.1660
 4211W        W20395  13.346   7.042   4.330  0.2964 -0.0622 -0.2278
 4212W        W20396  14.329  11.811  14.782 -0.0993  0.0012  0.0805
 4213W        W20397   3.574  13.740   1.489  0.0192  0.0854 -0.1186
 4214W        W20398  11.091   3.618   9.539 -0.0698 -0.1963  0.3225
 4215W        W20399  18.084  12.559   2.487 -0.1417 -0.1201  0.2159
 4216W        W20400  11.025   4.836   4.778  0.1205  0.1984  0.1166
 4217W        W20401  12.494  12.769  14.924  0.0288 -0.0937  0.4157
 4218W        W20402  11.900  15.282  14.501 -0.0981 -0.0676 -0.0118
 4219W        W20403  11.066   1.418   1.998  0.1277  0.0504 -0.0864
 4220W        W20404  18.967  18.640  13.334 -0.1526  0.0207 -0.1079
 4221W        W20405   0.712  17.699   2.810 -0.0358 -0.1082 -0.0188
 4222W        W20406  18.305  17.223   1.347  0.1482  0.1497  0.0773
 4223W        W20407  16.900  11.414   1.814  0.2889 -0.0024  0.1595
 4224W        W20408  15.774   4.995   9.388 -0.0051  0.0997 -0.0286
 4225W        W20409  11.159  10.864  12.915  0.3017  0.0641  0.4501
 4226W        W20410  10.772   5.302   1.708 -0.1887 -0.2178 -0.1126
 4227W        W20411   2.676   6.687  11.391 -0.4454  0.0089  0.1851
 4228W        W20412   2.144   6.324   2.124 -0.1242  0.0593  0.0219
 4229W        W20413   3.230  11.766   3.833 -0.1190 -0.2437 -0.2855
 4230W        W20414  13.093  10.043   9.228  0.1379  0.2711  0.0241
 4231W        W20415   1.698   7.623  10.733  0.0642  0.0195  0.2647
 4232W        W20416  15.146  19.175   1.128  0.1419 -0.0864 -0.1090
 4233W        W20417   1.169  15.218   2.305  0.0635 -0.1716 -0.1913
 4234W        W20418  15.223  17.783  10.510 -0.1380  0.2677  0.0331
 4235W        W20419   7.822  11.882  12.322  0.0848  0.1517  0.0828
 4236W        W20420   2.569  13.472   1.631  0.1863  0.1588 -0.2040
 4237W        W20421   2.811   5.430  12.171  0.2422 -0.1206 -0.0105
 4238W        W20422  13.557   6.930  11.969  0.1141 -0.0835  0.0583
 4239W        W20423   1.666  14.841  11.884 -0.2910 -0.1578  0.3678
 4240W        W20424   0.775   7.250   4.361 -0.1071 -0.0922 -0.0446
 4241W        W20425  13.501  10.039   1.564  0.1475  0.2375 -0.1620
 4242W        W20426  13.209   8.389   1.650  0.1600 -0.2036 -0.2357
 4243W        W20427   6.281   3.082   2.215  0.2799  0.2182 -0.3152
 4244W        W20428   1.981   6.517   3.714 -0.0173 -0.1431  0.1401
 4245W        W20429   3.951   0.457  13.542 -0.1228  0.2503  0.2899
 4246W        W20430  16.559  17.519   2.518  0.4795 -0.0393  0.3468
 4247W        W20431   8.696  14.939   3.364 -0.0557  0.0770  0.3282
 4248W        W20432   2.997   4.212   0.054 -0.0530  0.3181  0.0009
 4249W        W20433   3.884   5.838   2.962  0.0529  0.2074 -0.1641
 4250W        W20434   1.070  13.886   2.921  0.2784 -0.1956  0.1353
 4251W        W20435   3.103   5.932   5.068  0.2159 -0.1393  0.3920
 4252W        W20436   6.930   5.216   3.755  0.0456 -0.0467 -0.1657
 4253W        W20437  17.857   4.454  14.795  0.0230  0.0619 -0.0335
 4254W        W20438  11.789   1.544  11.316 -0.0804  0.0001 -0.1936
 4255W        W20439   5.426   7.094  11.787 -0.1488  0.2081  0.1145
 4256W        W20440  17.779   9.091   2.024 -0.0787 -0.0622  0.3082
 4257W        W20441  13.696   1.560   3.639 -0.0171 -0.0886  0.0431
 4258W        W20442  13.985   7.286  14.073 -0.3891 -0.0823  0.0955
 4259W        W20443  13.607  10.847  13.280 -0.0229  0.0489 -0.1094
 4260W        W20444  10.571  17.260   4.397  0.1534 -0.2404 -0.2608
 4261W        W20445  17.497  16.928  10.228 -0.1429 -0.1136  0.0040
 4262W        W20446   6.674  15.032   3.576  0.0420 -0.2411 -0.2565
 4263W        W20447  18.015   7.566  11.856  0.1719  0.1674 -0.0993
 4264W        W20448   8.075   4.118   4.481 -0.1769 -0.3417 -0.2464
 4265W        W20449  13.336  16.620   1.063 -0.0509  0.0313 -0.0081
 4266W        W20450  12.748   0.515   4.663  0.2489  0.0332  0.1103
 4267W        W20451   9.714   5.162   0.398 -0.1102 -0.0588  0.0707
 4268W        W20452   6.589  11.778  11.955  0.0930 -0.0469  0.2789
 4269W        W20453  11.784   7.729   3.681 -0.1652 -0.4953  0.1725
 4270W        W20454  10.589  15.513  12.633 -0.1659  0.0584  0.2779
 4271W        W20455  14.552  18.766   4.956 -0.0938 -0.1197  0.0950
 4272W        W20456  15.200   1.755   1.675  0.2308  0.1988 -0.2744
 4273W        W20457   2.229  10.446   4.086 -0.2073  0.1719 -0.0278
 4274W        W20458  17.842   3.214   5.105  0.1790 -0.2241  0.1797
 4275W        W20459  17.776   4.342   3.270  0.2501 -0.1735 -0.2610
 4276W        W20460   7.389   8.635   9.776  0.1376  0.3461 -0.0510
 4277W        W20461  18.968   7.636  11.126 -0.3985 -0.0924 -0.1474
 4278W        W20462  15.013   3.348  10.634  0.2034  0.2003 -0.0805
 4279W        W20463  11.673  12.254   1.915  0.0394 -0.2405 -0.0111
 4280W        W20464  15.069   9.793  13.127 -0.0112 -0.3373  0.1530
 4281W        W20465  15.281   7.781   1.704  0.1298  0.1447 -0.0848
 4282W        W20466  13.523  11.396  10.774  0.3104 -0.0894 -0.1150
 4283W        W20467  15.112   3.617   3.271 -0.0148 -0.2074 -0.1217
 4284W        W20468  15.699   2.646   0.032 -0.4004  0.0859  0.0680
 4285W        W20469   9.069  10.835  14.476 -0.0979 -0.2601 -0.2493
 4286W        W20470  15.354   5.703  13.642  0.1462 -0.1366  0.1114
 4287W        W20471   0.664   2.834   3.640  0.0860  0.0690 -0.2379
 4288W        W20472   4.572   1.927  10.946  0.0016 -0.0920  0.1248
 4289W        W20473   5.874   2.914   0.140 -0.1557  0.1501  0.0404
 4290W        W20474  18.164   6.109   3.514 -0.1933 -0.4438 -0.1706
 4291W        W20475  18.173  12.250  11.047 -0.0285  0.3266 -0.4158
 4292W        W20476  14.930   5.649   0.543  0.1716 -0.2474 -0.0440
 4293W        W20477  18.808   8.771  12.058  0.1425  0.1532 -0.4303
 4294W        W20478  17.949   8.930   4.375 -0.0969  0.0226 -0.2830
 4295W        W20479   8.596   3.930   2.736 -0.0499 -0.2638  0.1414
 4296W        W20480   0.869  16.269   4.317  0.0745  0.1660 -0.0518
 4297W        W20481   1.987  12.224   4.230 -0.2353  0.1376 -0.1331
 4298W        W20482  16.545   5.874   0.304  0.1874 -0.0776 -0.0691
 4299W        W20483  16.025   7.695   1.246  0.2713 -0.2193  0.0570
 4300W        W20484  18.171   2.067  14.268 -0.0354 -0.0775 -0.3306
 4301W        W20485   2.969   2.457   5.156 -0.0011  0.1263 -0.1704
 4302W        W20486   5.008   8.027   3.268 -0.1411  0.0890 -0.1249
 4303W        W20487   7.335  11.407  10.237 -0.0005 -0.1106 -0.2403
 4304W        W20488   5.215  17.225   1.525  0.2741  0.0150 -0.1182
 4305W        W20489  10.852   3.553   0.605  0.1743 -0.1738 -0.3417
 4306W        W20490   3.769   5.702   4.010  0.3923 -0.0149 -0.0521
 4307W        W20491  17.793  11.727   5.055 -0.0077  0.1020 -0.1109
 4308W        W20492   8.343   3.805   0.390 -0.0946 -0.0863  0.0160
 4309W        W20493  15.096  10.380  10.886 -0.0098  0.2680  0.1777
 4310W        W20494   7.002   3.077   2.947 -0.0762 -0.1597 -0.1389
 4311W        W20495  18.998   7.671  12.015 -0.1440 -0.0887  0.0647
 4312W        W20496  11.435  16.129  11.416 -0.0489 -0.3122 -0.1139
 4313W        W20497  15.964   5.632   1.121  0.1111 -0.0236  0.3663
 4314W        W20498   9.735  11.543  14.628 -0.0381 -0.4180  0.0034
 4315W        W20499   9.141   7.750  11.368  0.2074  0.2123 -0.1747
 4316W        W20500   2.538  13.898   4.811 -0.2724 -0.0226 -0.0163
 4317W        W20501  18.603   6.625   4.006 -0.3389  0.0039 -0.3450
 4318W        W20502  15.488  12.836  12.447 -0.0943 -0.2865  0.0179
 4319W        W20503  11.864   9.879  14.039 -0.1115  0.0532  0.0090
 4320W        W20504  10.359  13.624   0.510 -0.2938  0.5243 -0.1638
 4321W        W20505  15.057   2.139  11.596 -0.2355  0.0988  0.0212
 4322W        W20506   7.547   4.342   0.953  0.0554 -0.0339  0.1772
 4323W        W20507   6.602  13.474  12.717 -0.0626  0.0659 -0.0015
 4324W        W20508   3.359  13.000  12.914  0.1072 -0.2288 -0.2668
 4325W        W20509  11.511   2.068   4.906 -0.1829  0.0207 -0.1679
 4326W        W20510   7.748   7.503   5.553  0.5304 -0.2103 -0.1045
 4327W        W20511   4.823  13.753   3.106  0.2326 -0.2442 -0.0943
 4328W        W20512   1.185  17.871   2.190 -0.1308  0.3894 -0.0658
 4329W        W20513   2.503   2.727  11.494 -0.0983  0.3445  0.0630
 4330W        W20514   0.935   8.910  14.362 -0.2402  0.0354  0.2473
 4331W        W20515   6.634   5.570  13.704 -0.0926 -0.0026  0.0802
 4332W        W20516  19.192   6.711   1.167 -0.2341  0.0526 -0.1603
 4333W        W20517   4.136   9.117  10.015 -0.0976 -0.0518  0.0020
 4334W        W20518   6.227  12.603  12.376  0.0515  0.0930  0.0799
 4335W        W20519   4.779  19.313  13.944  0.4247  0.1009 -0.0451
 4336W        W20520  16.456  15.290  12.071  0.1867 -0.0670  0.0738
 4337W        W20521   0.818   3.284   3.831  0.1329 -0.0468 -0.1125
 4338W        W20522  11.227  17.644  10.826 -0.2523  0.3547 -0.1931
 4339W        W20523  15.876   2.479  14.529  0.1016  0.1315 -0.2385
 4340W        W20524  14.941  10.474   1.719  0.1208  0.1839  0.1201
 4341W        W20525  15.688  16.435   3.583 -0.2468 -0.0398  0.1241
 4342W        W20526  14.353  13.699   0.098  0.2152  0.3319  0.2085
 4343W        W20527   2.718  16.103  12.130  0.3276  0.3961 -0.2941
 4344W        W20528  17.758  18.203   2.720  0.1115 -0.3025  0.0689
 4345W        W20529  12.546   8.402  13.509 -0.1617 -0.0197 -0.0252
 4346W        W20530   8.638   7.728  12.872 -0.4855  0.0958  0.1209
 4347W        W20531   9.781   9.052  10.294  0.2706  0.1032 -0.1515
 4348W        W20532  12.919  15.045   2.759  0.6167 -0.3130 -0.1875
 4349W        W20533  10.105   9.169   3.893 -0.0109 -0.0422  0.0655
 4350W        W20534  10.545   1.696  10.354  0.0143 -0.2588  0.3140
 4351W        W20535  15.460   1.774  14.499 -0.0294  0.0405 -0.0434
 4352W        W20536  18.096   8.416  12.645 -0.0755 -0.7679 -0.0554
 4353W        W20537   4.292   9.158   5.133 -0.0090 -0.0392  0.1547
 4354W        W20538   6.184  18.490   4.334 -0.2238 -0.1318  0.0203
 4355W        W20539   2.668  19.153  13.836 -0.0329 -0.1164  0.3836
 4356W        W20540   9.491   8.003  13.961  0.2576 -0.1915 -0.2010
 4357W        W20541   0.154   3.802  12.912 -0.1454  0.2727 -0.1489
 4358W        W20542  18.683  15.329  10.014 -0.0807  0.0267  0.2601
 4359W        W20543   6.924   0.323  13.690 -0.2836 -0.3396 -0.2376
 4360W        W20544   2.075   5.767   3.402 -0.0155 -0.0486 -0.0287
 4361W        W20545  17.889   4.421   0.902  0.0500  0.1177  0.0498
 4362W        W20546   8.342   9.210  13.564 -0.0677  0.1345  0.2070
 4363W        W20547   2.289  16.210  14.221  0.1680 -0.1958  0.2074
 4364W        W20548  13.306  15.070   1.935  0.2767 -0.1463 -0.0846
 4365W        W20549  16.751   8.283   1.199 -0.1079  0.0267 -0.3527
 4366W        W20550   7.891  17.523   9.913  0.0326 -0.1149  0.3697
 4367W        W20551   4.142   7.526  13.237  0.1266  0.0109  0.2438
 4368W        W20552  16.157  13.150   4.241  0.1447  0.1189 -0.4630
 4369W        W20553  10.585  18.468   2.790 -0.0472  0.0137 -0.1060
 4370W        W20554  12.158  18.115  10.807 -0.1001 -0.2025 -0.2179
 4371W        W20555   8.725   8.814   1.387 -0.4317  0.1146  0.0631
 4372W        W20556  12.263   4.984  10.173 -0.1281  0.1570 -0.0820
 4373W        W20557  15.186   3.677   1.297  0.0618 -0.2935  0.3416
 4374W        W20558  10.844  15.736   1.653  0.3406  0.1067  0.2237
 4375W        W20559  13.489   2.958   3.710 -0.2477  0.0849 -0.3995
 4376W        W20560   6.916   5.168   5.798 -0.1294  0.1829  0.2103
 4377W        W20561  17.828  16.525   0.829 -0.2321 -0.1797 -0.0083
 4378W        W20562   5.819   4.485  12.451  0.1692  0.1611  0.3561
 4379W        W20563   9.725   9.748   4.921 -0.1108  0.1486  0.1867
 4380W        W20564   2.731  18.079  12.614  0.1494  0.0753  0.1080
 4381W        W20565  10.728  10.696  12.417 -0.2617  0.1392 -0.0079
 4382W        W20566   9.135  10.998  10.440  0.4429  0.0507 -0.1468
 4383W        W20567  16.617   0.328  13.588 -0.2968 -0.5156  0.2109
 4384W        W20568  18.864  13.564  13.656 -0.0237  0.0767  0.1483
 4385W        W20569   6.975  14.848  12.886  0.1269  0.1498 -0.2970
 4386W        W20570   2.426   0.655  12.572 -0.1365 -0.2745  0.3259
 4387W        W20571  16.965   6.090  12.697  0.2421 -0.0376 -0.4259
 4388W        W20572  10.234   2.019  14.700  0.2190 -0.1048 -0.1441
 4389W        W20573  12.163   5.551  14.259  0.0032 -0.1125 -0.3696
 4390W        W20574  17.473   4.074   3.749 -0.0684 -0.0314 -0.1544
 4391W        W20575  13.004  16.331   0.082 -0.0994 -0.0452  0.1256
 4392W        W20576  10.050   8.339   3.461  0.1679  0.0931 -0.0139
 4393W        W20577  11.485  17.989   0.111 -0.0084  0.1664  0.1376
 4394W        W20578  13.118  17.174  14.003 -0.3536  0.0857 -0.1959
 4395W        W20579   1.211  14.396   1.146  0.1870 -0.0962 -0.0071
 4396W        W20580   6.195   2.005   2.282  0.0592  0.0156 -0.1707
 4397W        W20581   2.730  12.123  12.068  0.0508  0.0702 -0.3420
 4398W        W20582  19.025  11.443   2.804  0.0405  0.2067 -0.0692
 4399W        W20583  17.980  11.469   4.518  0.0065 -0.1573  0.1597
 4400W        W20584   7.744   8.269  12.815  0.1407 -0.3335  0.0046
 4401W        W20585   4.682   1.648  14.944 -0.1720  0.2759 -0.0199
 4402W        W20586  10.327   3.983  13.290  0.0460 -0.0752  0.2260
 4403W        W20587   3.589  12.245   5.581  0.2631 -0.1060  0.0066
 4404W        W20588  17.896  18.863   2.418  0.1259 -0.0403  0.1411
 4405W        W20589   5.817   3.748  10.349 -0.3423  0.1559  0.1389
 4406W        W20590   8.472   0.326  12.248  0.3817 -0.3495 -0.1168
 4407W        W20591  17.035  19.330   1.195  0.0841 -0.1815 -0.0467
 4408W        W20592   1.902   2.206   0.290 -0.2358  0.0028  0.2206
 4409W        W20593  12.044   9.062  10.286  0.0421  0.0331  0.0380
 4410W        W20594  10.429  15.366   0.812  0.1400 -0.2536 -0.1415
 4411W        W20595  15.462   7.060  13.106 -0.1804  0.0999  0.4364
 4412W        W20596  19.293  14.271  13.558 -0.2571  0.0108  0.2739
 4413W        W20597   5.950  18.187  10.955 -0.1598  0.5022  0.2345
 4414W        W20598   6.371  15.522  13.458  0.1075  0.4583 -0.0118
 4415W        W20599  14.141  13.386   2.732 -0.0115  0.2094 -0.0045
 4416W        W20600  12.356  13.560  10.917 -0.2304 -0.2213  0.1353
 4417W        W20601  16.061  15.219  13.860 -0.0864 -0.3207  0.0384
 4418W        W20602  13.328   0.194  10.530  0.2359 -0.2878  0.0927
 4419W        W20603  13.386   1.048  11.729 -0.1434  0.4157  0.1728
 4420W        W20604   9.970  13.945   4.785 -0.0677 -0.0661 -0.3930
 4421W        W20605  18.313   2.606  14.858 -0.0127  0.0661  0.0220
 4422W        W20606   0.403   5.488  10.687  0.2551 -0.3726  0.0750
 4423W        W20607   1.127  17.119  11.833 -0.4878  0.1175  0.0050
 4424W        W20608  11.156   5.436   3.087 -0.2139 -0.0995 -0.0652
 4425W        W20609  17.214   3.523  12.184 -0.0442 -0.1656 -0.1280
 4426W        W20610  10.645  15.033  10.963  0.1269 -0.1998 -0.0687
 4427W        W20611   6.621  10.634  11.203 -0.1057  0.1291  0.0793
 4428W        W20612   3.764  13.890  11.113  0.0485 -0.1207  0.2062
 4429W        W20613  15.962   9.358   0.190 -0.1074  0.0621 -0.3453
 4430W        W20614   0.717  10.641  14.210  0.0954  0.1904  0.0936
 4431W        W20615   6.020   4.025  11.268  0.1834 -0.1622 -0.0167
 4432W        W20616  15.609  19.343   2.143  0.2687 -0.3732 -0.0968
 4433W        W20617  12.363  15.576  12.278  0.0446 -0.3979  0.2618
 4434W        W20618   0.394   9.383  11.613 -0.2826  0.0576  0.0273
 4435W        W20619  18.899   5.547  14.274  0.0415  0.0640  0.1312
 4436W        W20620   0.350  18.060   2.725 -0.2160 -0.1580  0.1416
 4437W        W20621   0.909  12.966   2.622  0.2313 -0.1995 -0.2298
 4438W        W20622   3.344  18.926  12.652  0.1422 -0.0202  0.0484
 4439W        W20623  16.769  18.437  12.773  0.2994  0.1989 -0.0385
 4440W        W20624   8.225   7.023   0.797  0.0981  0.2590 -0.2209
 4441W        W20625   2.573  15.030   3.081 -0.0276 -0.0850  0.1060
 4442W        W20626  15.552   6.035  11.965 -0.2849  0.1923  0.0238
 4443W        W20627   0.783  11.601  12.101  0.1158 -0.0650  0.0506
 4444W        W20628   5.689  10.234  14.943  0.1068  0.2522  0.0361
 4445W        W20629  15.972   2.971  12.046 -0.0381 -0.1813  0.1074
 4446W        W20630  14.294   6.523   2.556  0.1292  0.0062  0.0817
 4447W        W20631   4.348  13.134  13.510 -0.1560  0.1014  0.0872
 4448W        W20632  17.136  13.442  10.934 -0.1621 -0.0930  0.3848
 4449W        W20633  17.445   2.879   0.060 -0.1060 -0.3234 -0.0993
 4450W        W20634   8.130   4.757   3.925 -0.0039 -0.1080 -0.1522
 4451W        W20635  13.063  17.647  14.058  0.2753  0.2582 -0.0425
 4452W        W20636   8.618  11.420   4.311 -0.0370 -0.2499 -0.0471
 4453W        W20637  17.074   8.735   3.018  0.0208 -0.1968  0.0790
 4454W        W20638   2.686   1.177  11.108  0.0373  0.0343  0.0881
 4455W        W20639   9.246   9.393   0.627 -0.3049 -0.4798 -0.4983
 4456W        W20640  11.584   2.554   2.197  0.1393 -0.0782 -0.0409
 4457W        W20641   9.465   0.747   2.078 -0.0897 -0.2252 -0.1925
 4458W        W20642  13.530  12.500   1.030 -0.5081  0.3144 -0.1191
 4459W        W20643  10.524   1.006   4.996 -0.4068  0.1237 -0.2324
 4460W        W20644  11.474   0.627   1.320  0.2246 -0.1182 -0.2384
 4461W        W20645  11.416   3.585  12.860  0.0590  0.1712  0.0235
 4462W        W20646   6.721   2.611   0.758 -0.1550  0.0904 -0.2589
 4463W        W20647  10.105  14.795  13.210 -0.0219  0.2948 -0.3299
 4464W        W20648   7.726   0.179   0.345  0.0838  0.1204  0.0396
 4465W        W20649   4.978   7.596   0.083 -0.1643  0.1655  0.2264
 4466W        W20650  18.196   7.756   4.015  0.0462 -0.2008  0.3177
 4467W        W20651   8.755   5.588   2.895  0.1559 -0.1030  0.0895
 4468W        W20652  11.749   0.654   4.981 -0.2338  0.1403 -0.1077
 4469W        W20653   6.864  12.301  11.062  0.2202 -0.0534 -0.0984
 4470W        W20654  10.125   1.628  11.000  0.1567  0.0297  0.1224
 4471W        W20655   1.918  10.249   2.255  0.4119  0.3372 -0.1768
 4472W        W20656   1.741  16.104  10.342  0.1405 -0.0055 -0.0791
 4473W        W20657  14.031   3.415   2.644 -0.0334  0.0024 -0.1494
 4474W        W20658  15.524   4.445   0.844  0.3660 -0.1247  0.0186
 4475W        W20659   7.326   6.598  14.551  0.2079 -0.1179  0.0826
 4476W        W20660  10.166  11.728  11.527  0.0172  0.1246 -0.1772
 4477W        W20661   6.984  10.496  12.284 -0.0661  0.1202  0.1673
 4478W        W20662   1.968   7.986   2.010 -0.3525 -0.0630  0.0902
 4479W        W20663   8.120  10.183   4.314 -0.1146  0.0329  0.3130
 4480W        W20664  19.069   6.117  13.367  0.4409 -0.3399  0.0131
 4481W        W20665   5.527   8.461   3.583  0.0889  0.1665  0.1108
 4482W        W20666  14.103   9.049   4.807 -0.2846 -0.1875 -0.0401
 4483W        W20667   3.295  13.835   0.578  0.0070 -0.0749  0.2922
 4484W        W20668  12.922   7.637  10.142 -0.5887  0.0123  0.1168
 4485W        W20669   7.252  14.540  13.262  0.0241  0.3122 -0.1088
 4486W        W20670   9.927   5.293  10.157 -0.0735 -0.1558  0.2028
 4487W        W20671  12.389   0.022  10.160  0.1544 -0.2509 -0.0658
 4488W        W20672  19.109   8.701  14.761 -0.2534 -0.0458  0.3165
 4489W        W20673   9.456  15.897  14.250  0.0115 -0.0647 -0.2985
 4490W        W20674   9.709  17.786   4.542 -0.4872  0.0817  0.3623
 4491W        W20675   4.066   4.633  11.075  0.0090 -0.1947 -0.0180
 4492W        W20676  12.036  15.185  11.676 -0.3380 -0.2227 -0.0193
 4493W        W20677  15.483  13.694  13.384  0.1010  0.1434  0.0814
 4494W        W20678  14.992   7.569   0.796 -0.1309  0.4068  0.1749
 4495W        W20679  10.196   8.273  11.207 -0.0280  0.0279  0.0087
 4496W        W20680   5.182   4.152   2.379 -0.3125 -0.0082 -0.1326
 4497W        W20681  11.842   5.649   1.466 -0.0059  0.0886 -0.2226
 4498W        W20682  14.493   4.265   9.716  0.0240 -0.0288 -0.1183
 4499W        W20683   6.565   2.844  14.297 -0.0521 -0.0036  0.0122
 4500W        W20684   2.150  12.165  13.155  0.1371  0.2822  0.0571
 4501W        W20685   7.521   5.064   1.865  0.0543 -0.1548  0.0235
 4502W        W20686   8.541  10.073  14.280 -0.0165  0.1230 -0.2367
 4503W        W20687  16.303   3.768   0.065 -0.0459 -0.0510 -0.2797
 4504W        W20688  11.506   5.767  13.146  0.0967 -0.2373  0.0500
 4505W        W20689  10.371  11.828  10.508 -0.0407 -0.3759 -0.0483
 4506W        W20690   7.497  14.062  14.125 -0.0673 -0.0476 -0.2104
 4507W        W20691   7.947   4.009  12.343  0.2261  0.0041  0.3676
 4508W        W20692   1.855   9.026   0.470 -0.1177 -0.1462  0.3104
 4509W        W20693  11.825   7.612   5.248  0.2433  0.1263 -0.2775
 4510W        W20694   3.796  10.536   1.328  0.3795 -0.2043  0.4418
 4511W        W20695   6.861  19.085   1.215 -0.0806 -0.0596  0.0865
 4512W        W20696  13.697   8.178   0.358 -0.0395  0.0871  0.0628
 4513W        W20697  18.660  11.347   0.484  0.2096 -0.2966 -0.2271
 4514W        W20698  14.405   3.961   0.657  0.0887  0.0133  0.0180
 4515W        W20699   4.092   5.580   1.595  0.2648  0.1956  0.0758
 4516W        W20700   9.102   4.528  14.117  0.3073  0.1426 -0.0460
 4517W        W20701  18.998   1.378   1.914  0.0407 -0.0290  0.0479
 4518W        W20702   6.087   6.331  13.563 -0.2315 -0.2319  0.4849
 4519W        W20703  17.042  15.641   4.691 -0.1062  0.4597  0.0276
 4520W        W20704   5.903   7.560  13.877 -0.2363  0.0444 -0.0718
 4521W        W20705   7.256  18.383  14.663 -0.0655  0.2620  0.0942
 4522W        W20706  11.682  16.983  10.290 -0.0195 -0.0543  0.3550
 4523W        W20707  15.893   2.000  11.698 -0.1165 -0.0694 -0.1372
 4524W        W20708  19.313   5.700  13.044 -0.1957  0.2049  0.3558
 4525W        W20709  12.104   9.517  12.496  0.2361 -0.2979 -0.0453
 4526W        W20710  13.091   3.874  13.594  0.1728 -0.0990 -0.0246
 4527W        W20711   0.696  16.169   3.357 -0.1774 -0.1049  0.2135
 4528W        W20712   9.864   7.640   3.021 -0.1972  0.3681  0.5470
 4529W        W20713  11.874  11.965   0.382  0.5817  0.0802  0.0263
 4530W        W20714   1.000  18.371  10.092 -0.0249  0.1613  0.2286
 4531W        W20715   5.030   4.112   5.973  0.2753 -0.1499  0.0804
 4532W        W20716   1.493   5.859   2.801  0.0257  0.1321  0.0312
 4533W        W20717   4.489   7.773  13.555 -0.4739  0.0365  0.0134
 4534W        W20718   6.434   0.010  11.729  0.0181  0.0025  0.2459
 4535W        W20719  13.939   5.021   3.423  0.3029 -0.2244 -0.2209
 4536W        W20720  15.645  11.224  13.857  0.1278  0.1804 -0.0066
 4537W        W20721   6.866  14.008   0.593  0.0454  0.3595 -0.0699
 4538W        W20722  18.569   7.020  11.742 -0.2320  0.2246  0.1357
 4539W        W20723  12.872  12.296   9.132 -0.0999 -0.1729 -0.3688
 4540W        W20724   2.833  12.174   4.042 -0.3776  0.2282  0.0935
 4541W        W20725  18.836  16.232  12.890 -0.0651  0.0611  0.0492
 4542W        W20726  16.906   8.117  13.824  0.0994  0.2845 -0.1354
 4543W        W20727   2.825   6.713  11.897 -0.2144  0.0250 -0.1669
 4544W        W20728  11.266  15.724  12.096  0.0177  0.0304 -0.2414
 4545W        W20729   9.143  11.965   3.305  0.2978  0.0146  0.1816
 4546W        W20730   6.282  14.029  13.285 -0.0595  0.1093 -0.3461
 4547W        W20731  16.970   2.454  14.770  0.0366  0.2553  0.0351
 4548W        W20732   9.319  13.299  14.578  0.3255 -0.1935  0.0958
 4549W        W20733  17.197  12.406   3.332 -0.2997  0.1684 -0.1449
 4550W        W20734   3.411   3.044  11.185 -0.2464 -0.0257  0.2954
 4551W        W20735   0.882  17.216  10.503 -0.3309 -0.1561 -0.1388
 4552W        W20736   5.412  11.270   5.336  0.4199 -0.1861 -0.3062
 4553W        W20737  15.428  11.444  12.779 -0.0483 -0.0547  0.2064
 4554W        W20738  12.333   4.267  12.372 -0.1272 -0.0233 -0.0050
 4555W        W20739   9.308  11.375  13.441 -0.3336 -0.5800 -0.2863
 4556W        W20740   1.523  15.844   0.757  0.0082  0.0113  0.0032
 4557W        W20741   3.914   2.965  10.112 -0.0041 -0.2289 -0.2025
 4558W        W20742  18.702  17.305  12.274  0.4846  0.0549 -0.1863
 4559W        W20743  12.671   8.283   4.379 -0.1310 -0.2669 -0.0434
 4560W        W20744   6.076  16.892  13.228  0.0184  0.1277  0.2746
 4561W        W20745  10.454  11.647   2.522  0.1230  0.2770 -0.1539
 4562W        W20746   1.502  11.169   3.850  0.4374 -0.0389  0.0841
 4563W        W20747  16.568   1.781   3.789  0.2793  0.0055 -0.3017
 4564W        W20748  18.696   2.241  12.742 -0.1156 -0.3423 -0.0604
 4565W        W20749  15.774   7.013  10.085  0.3165 -0.3242 -0.1366
 4566W        W20750   3.000   0.882  14.545  0.1356  0.0822  0.1251
 4567W        W20751  17.094  16.134  12.423 -0.1530  0.2223  0.3281
 4568W        W20752  14.374  17.438   3.175 -0.0538  0.1715 -0.3456
 4569W        W20753  17.837   4.265  11.577 -0.0254 -0.1683 -0.0805
 4570W        W20754  17.601   6.631  12.222 -0.0793 -0.0879  0.0139
 4571W        W20755  15.363  17.249  11.418  0.3589  0.0664 -0.1061
 4572W        W20756   5.418  16.974  11.571  0.2010  0.0287  0.2597
 4573W        W20757  16.179   0.342   0.708  0.0371 -0.1783 -0.2041
 4574W        W20758  19.002  18.370   1.375 -0.1850 -0.2785  0.0687
 4575W        W20759   6.303   7.419   2.528  0.2081 -0.2125 -0.4188
 4576W        W20760   3.128   5.430   0.709 -0.3510 -0.1598  0.3834
 4577W        W20761   6.313  11.705  14.735  0.1004 -0.1981 -0.1669
 4578W        W20762  11.103   3.598  11.434 -0.0105  0.1370 -0.0986
 4579W        W20763  10.414   0.252  13.106 -0.0956 -0.3268  0.3718
 4580W        W20764  13.814  16.296   3.113  0.4093 -0.2143  0.0722
 4581W        W20765   4.797   0.286  11.548  0.1412 -0.2209 -0.1032
 4582W        W20766  11.717   6.235   2.124 -0.0262  0.2982  0.2762
 4583W        W20767  12.633   1.696  13.440 -0.2050  0.0246  0.0686
 4584W        W20768  17.532   8.180   5.531 -0.1326 -0.2644 -0.0761
 4585W        W20769  13.234   7.502   3.398 -0.0253 -0.0142 -0.2349
 4586W        W20770  10.842  18.375  10.681 -0.1330 -0.1021 -0.1307
 4587W        W20771  16.828   2.567  10.827 -0.2187 -0.0864 -0.1722
 4588W        W20772   7.592  12.326   0.469  0.3080 -0.2578  0.1646
 4589W        W20773   0.539  18.652  13.070 -0.2171 -0.1203 -0.1653
 4590W        W20774   3.741   3.832  13.300 -0.0849  0.2243  0.0572
 4591W        W20775  14.657   6.654  14.257  0.3522 -0.3364  0.2516
 4592W        W20776   6.637  12.143   5.313 -0.0508 -0.1336 -0.4584
 4593W        W20777  10.307  14.427   2.204 -0.1261 -0.2769 -0.0659
 4594W        W20778   8.594  13.641   1.481  0.0582  0.3044 -0.0429
 4595W        W20779  10.612  18.140  10.150  0.2933 -0.1138 -0.2856
 4596W        W20780  12.523   0.067   4.842 -0.2007 -0.4976 -0.0361
 4597W        W20781   8.182   7.568   1.046  0.0543 -0.1365 -0.0849
 4598W        W20782   9.119   8.036  10.949 -0.2515 -0.2642 -0.2393
 4599W        W20783  13.700   0.564   3.620 -0.0777 -0.3573  0.2443
 4600W        W20784  17.446   2.220  10.235  0.0989  0.2572 -0.0775
 4601W        W20785  14.344  19.149  13.540 -0.2902  0.0068  0.0909
 4602W        W20786   8.917  13.278   3.955 -0.2387  0.0365  0.1776
 4603W        W20787  16.498  13.912   2.690 -0.2405 -0.0610  0.0118
 4604W        W20788   0.778   0.391   3.546 -0.1473  0.1945  0.0313
 4605W        W20789   0.821  17.864  12.163  0.0470 -0.0906 -0.3207
 4606W        W20790   9.240  11.194   0.054 -0.0087 -0.2018 -0.3027
 4607W        W20791  15.581   5.565  10.728 -0.0754  0.1362 -0.0399
 4608W        W20792   9.944  11.930   2.017  0.0736  0.0601  0.0617
 4609W        W20793   9.820  16.541  14.193 -0.1389 -0.2096  0.0314
 4610W        W20794   1.919  17.041   4.122 -0.0245 -0.0605 -0.2414
 4611W        W20795  15.273   7.835  12.508 -0.0494  0.1089 -0.1715
 4612W        W20796   3.371   7.614   3.395  0.0256 -0.0509 -0.2807
 4613W        W20797   9.961   8.903   2.681  0.0952 -0.0531  0.0750
 4614W        W20798  13.627   1.399  11.450  0.1445  0.0666 -0.0780
 4615W        W20799  15.560  15.906   5.527 -0.0341 -0.1114  0.2561
 4616W        W20800  10.591   1.679   2.733  0.1954  0.1586  0.0268
 4617W        W20801   6.233  11.653  13.032 -0.1820 -0.1526  0.5585
 4618W        W20802  10.921   1.907   3.156  0.0497 -0.2106 -0.1495
 4619W        W20803   2.617  13.456  12.011  0.0388  0.3068 -0.1211
 4620W        W20804  18.685  10.473   4.852  0.2683 -0.0647 -0.0765
 4621W        W20805   3.293   7.334   2.091  0.1276 -0.1536  0.0186
 4622W        W20806  16.084   0.528  13.516  0.0108  0.0403 -0.0223
 4623W        W20807   7.023  13.752   4.135 -0.2752 -0.3150 -0.0214
 4624W        W20808  11.730   6.768   0.415 -0.2670  0.0547  0.2235
 4625W        W20809   6.390  16.385  14.655  0.4346 -0.0242  0.0876
 4626W        W20810  10.229   0.066   4.525  0.0080  0.2363 -0.0104
 4627W        W20811   1.848   9.428   4.043 -0.2585  0.0395 -0.3440
 4628W        W20812  16.415   7.177   2.596 -0.0776 -0.1265  0.2230
 4629W        W20813  16.875  15.865  14.671  0.0861 -0.1485 -0.0035
 4630W        W20814   8.725   3.948  10.479 -0.2268 -0.0209 -0.2371
 4631W        W20815   3.282   0.839   0.331 -0.4581 -0.1919  0.1028
 4632W        W20816   2.128  13.978  11.636  0.0864 -0.2153  0.1960
 4633W        W20817   7.943   0.508  14.235  0.1202 -0.0027  0.1135
 4634W        W20818  18.676   8.245  12.657 -0.2110  0.1449  0.1256
 4635W        W20819  13.273  15.659  10.977 -0.1810 -0.1995  0.0347
 4636W        W20820   4.685   1.004   1.706 -0.2318 -0.1179 -0.0792
 4637W        W20821   1.069   7.458   3.376 -0.2063  0.2327  0.0288
 4638W        W20822  13.048   6.732   4.550 -0.2125  0.0772  0.0236
 4639W        W20823   7.744  14.441  11.479 -0.1346 -0.0882  0.2336
 4640W        W20824  11.922   8.729  10.841  0.5237  0.0483  0.0398
 4641W        W20825  12.344  15.866   1.848  0.1330 -0.0339 -0.0732
 4642W        W20826   8.835   0.761   3.401 -0.0144 -0.1303 -0.0309
 4643W        W20827   8.692  12.298  11.665 -0.0273 -0.0705  0.1923
 4644W        W20828  19.094  14.579  10.449 -0.2158  0.2896 -0.1101
 4645W        W20829  16.103   6.210  12.887 -0.1652  0.3704  0.0561
 4646W        W20830   5.881   7.162  12.493  0.0718  0.2456 -0.1697
 4647W        W20831   5.207   8.108   2.288 -0.1775  0.0925  0.2403
 4648W        W20832  11.123  10.264   0.897 -0.3256 -0.3709 -0.5207
 4649W        W20833   8.958   4.017   0.990 -0.3215  0.2382 -0.2630
 4650W        W20834   8.883   8.861   3.637 -0.2469 -0.1514 -0.1764
 4651W        W20835   6.889  19.305   4.462 -0.1553 -0.2504 -0.1839
 4652W        W20836  13.750   6.983  12.408  0.4010 -0.1706 -0.1564
 4653W        W20837  14.500  14.077  14.782  0.1799  0.2677 -0.1143
 4654W        W20838  16.814   1.800  14.029 -0.1322 -0.2651 -0.0209
 4655W        W20839  12.463  17.700  14.334 -0.1208  0.0494 -0.0467
 4656W        W20840  10.910   8.073   3.971  0.3490  0.2373 -0.2628
 4657W        W20841  15.410   8.677   3.051 -0.0414  0.2601 -0.1565
 4658W        W20842  15.221   9.237   1.382 -0.1943 -0.1587  0.2437
 4659W        W20843   5.382   8.087   0.352 -0.0938 -0.1220  0.1687
 4660W        W20844   6.027  16.550   4.707  0.2496 -0.0185 -0.1609
 4661W        W20845  16.182   4.733   3.819 -0.1434  0.1120 -0.3800
 4662W        W20846  13.364  15.326  11.901 -0.0064 -0.1226  0.1529
 4663W        W20847   5.313  17.783   2.617  0.0659  0.0790 -0.2847
 4664W        W20848  13.426   8.183   2.057  0.2811 -0.0021  0.0078
 4665W        W20849  17.263  15.063  14.628  0.0797  0.1266 -0.0888
 4666W        W20850   2.128   5.914  14.579 -0.3606 -0.0424 -0.1851
 4667W        W20851  17.191   5.609  14.500 -0.0113  0.1776 -0.2877
 4668W        W20852   2.325   4.768   0.965  0.2642  0.1728 -0.1410
 4669W        W20853  15.569  15.064   0.709  0.1371  0.0160  0.4373
 4670W        W20854  15.077   6.331  14.170  0.2362  0.0319 -0.1241
 4671W        W20855  18.758  18.691  10.823 -0.0454  0.3180 -0.0070
 4672W        W20856   6.070  12.481  14.050 -0.0536  0.3011  0.1755
 4673W        W20857  14.970  18.658   2.487 -0.2126  0.3699 -0.1493
 4674W        W20858  12.917  17.552   9.935 -0.1031  0.2298 -0.0195
 4675W        W20859   9.374  11.529   0.416 -0.0622 -0.2765 -0.2266
 4676W        W20860   2.219   4.402  13.269  0.0623  0.0059  0.0897
 4677W        W20861  12.306  15.335   1.709 -0.0704 -0.3509  0.0063
 4678W        W20862   2.148  17.204  12.333  0.2334 -0.0658 -0.3578
 4679W        W20863   6.783   9.914  12.256 -0.2014  0.0516  0.2096
 4680W        W20864  15.216  13.116   0.317  0.0537 -0.2815  0.0724
 4681W        W20865  12.846   1.285   1.337 -0.1486 -0.4750 -0.1193
 4682W        W20866  18.069   9.039  13.379 -0.1535  0.1443 -0.0783
 4683W        W20867   1.901  10.979   1.720  0.0045 -0.1297 -0.2641
 4684W        W20868   9.445  11.023   9.911  0.0328 -0.2448 -0.1409
 4685W        W20869   7.707  17.427   4.855 -0.0381  0.0065  0.0049
 4686W        W20870   9.699   6.765   1.378 -0.2099 -0.2564  0.4042
 4687W        W20871  14.279   8.147  10.821 -0.0158 -0.3851  0.0268
 4688W        W20872  14.664  13.624  14.625 -0.1515  0.1301 -0.3877
 4689W        W20873   4.514   4.196   5.376  0.3071  0.1525  0.2620
 4690W        W20874  12.376  11.459   3.746 -0.0225 -0.0229  0.0340
 4691W        W20875   9.861  19.262  11.836  0.1660 -0.1368 -0.1729
 4692W        W20876   9.845   8.875  14.467  0.2137 -0.1225 -0.0958
 4693W        W20877  10.011  11.042   1.956  0.0801 -0.0409  0.1992
 4694W        W20878   2.631   3.694   3.778  0.2126  0.3452 -0.0875
 4695W        W20879   3.480  10.084   2.519  0.1480  0.1135 -0.3833
 4696W        W20880   3.756   2.347   4.344  0.0308 -0.0693  0.3078
 4697W        W20881   6.694   0.509   1.418 -0.0326  0.0085  0.1557
 4698W        W20882   9.324   2.779  13.738  0.0144  0.0177 -0.2054
 4699W        W20883   7.807   6.527   5.995  0.1403 -0.2614  0.3349
 4700W        W20884  11.519   4.231  10.197  0.1777  0.1447 -0.0024
 4701W        W20885  17.583  14.215   5.596 -0.2300 -0.0073  0.1853
 4702W        W20886  15.364  16.816  10.560 -0.2370 -0.3492 -0.0080
 4703W        W20887   7.654  18.580  10.268 -0.2430  0.2133  0.0100
 4704W        W20888  14.644   3.415  11.523 -0.0713  0.2858  0.0569
 4705W        W20889  14.102  12.502  14.041  0.3038 -0.3827 -0.0424
 4706W        W20890   7.585   0.071   9.284 -0.2646  0.1131 -0.0638
 4707W        W20891   1.195  12.826  10.254  0.1495  0.1853 -0.1473
 4708W        W20892  12.716  13.255  10.642  0.1953 -0.0319 -0.1161
 4709W        W20893  13.141   0.799  12.138  0.1714  0.2949 -0.3587
 4710W        W20894   2.309  10.790  10.932  0.2450  0.0889  0.0155
 4711W        W20895   4.226   2.991   3.112  0.1413  0.0063  0.1403
 4712W        W20896   3.199   5.395  11.489 -0.3790  0.1193 -0.0477
 4713W        W20897  17.106  16.239   2.658  0.0298 -0.3358 -0.1843
 4714W        W20898   0.452  14.828  11.293  0.3823 -0.1716  0.0655
 4715W        W20899   0.911   0.807   3.893  0.0094 -0.1789  0.1716
 4716W        W20900  12.783   0.880   3.839  0.1674 -0.1400 -0.1211
 4717W        W20901   1.197  17.239  11.278  0.3743  0.3590 -0.1090
 4718W        W20902   1.398  14.241  11.212 -0.0809 -0.2616  0.0769
 4719W        W20903  19.081  16.938  12.367  0.2783  0.2391  0.1182
 4720W        W20904  14.890  10.106   3.043 -0.3319  0.0737 -0.2501
 4721W        W20905   5.567  17.424   2.415  0.2110 -0.0653  0.0457
 4722W        W20906   8.747   5.473   1.425  0.0945  0.1594 -0.0209
 4723W        W20907   8.229   6.073  13.538 -0.0726  0.0782 -0.2681
 4724W        W20908  12.877   8.102   0.674  0.0660  0.1782 -0.1740
 4725W        W20909  16.074  12.598   3.612  0.5232  0.2578  0.1461
 4726W        W20910  12.877  12.865  10.383 -0.1398  0.0973 -0.3475
 4727W        W20911   4.453   5.355   3.572  0.2569 -0.0716  0.2299
 4728W        W20912   4.783  11.266  13.251  0.3908 -0.3378  0.0946
 4729W        W20913  15.351  12.208   2.363  0.2905  0.0904 -0.1143
 4730W        W20914   6.514  19.211   2.254 -0.1204  0.2632  0.1195
 4731W        W20915   6.375   0.066   4.543 -0.0277  0.1476 -0.2310
 4732W        W20916  19.161   2.151   1.305 -0.0478 -0.0703 -0.0641
 4733W        W20917   5.053   1.574   2.252  0.3387  0.2617  0.0768
 4734W        W20918   4.115  16.665  11.591 -0.3462  0.0123  0.2026
 4735W        W20919   8.909   2.424   3.704  0.0600  0.0735 -0.0015
 4736W        W20920   8.494   1.161  13.754 -0.1197  0.3372 -0.2674
 4737W        W20921  15.769  14.434   2.404  0.0166 -0.1753  0.3989
 4738W        W20922   9.836   7.029   4.130  0.0917 -0.0801  0.1365
 4739W        W20923  10.651  17.535  14.567  0.2463 -0.0091 -0.2038
 4740W        W20924   6.383   8.882   5.979  0.2062 -0.1872  0.3444
 4741W        W20925  15.613  14.188   1.509 -0.1757 -0.1414 -0.1159
 4742W        W20926   4.362  18.909   4.098  0.1440 -0.3204  0.4100
 4743W        W20927   6.793  14.395   2.723 -0.0060 -0.0500  0.1589
 4744W        W20928   5.487   1.033  14.177  0.3321  0.0242  0.0279
 4745W        W20929   3.264  13.078   2.136 -0.2620  0.0714 -0.1311
 4746W        W20930  10.883   7.804   3.520  0.1420 -0.4877  0.1089
 4747W        W20931   6.069  12.061   5.310 -0.0685  0.1446 -0.0636
 4748W        W20932  11.131  12.832   3.652 -0.3311 -0.2769 -0.2416
 4749W        W20933   8.899   7.954  11.803  0.2834 -0.2846 -0.0656
 4750W        W20934   2.153   5.438   0.952  0.4611 -0.1958  0.0429
 4751W        W20935   7.631  18.829  12.552  0.0626  0.0548  0.0023
 4752W        W20936   1.915   4.399  10.911 -0.1868  0.0620  0.1985
 4753W        W20937  18.609   7.881  13.457 -0.0758 -0.0251 -0.0005
 4754W        W20938  17.644   2.106  14.327  0.2327  0.2419  0.0322
 4755W        W20939   2.071  12.872   4.163  0.1327  0.3534  0.1635
 4756W        W20940   9.549  17.121   0.437  0.0622 -0.2116 -0.4341
 4757W        W20941   2.157   4.309   3.025 -0.2236  0.1645  0.0909
 4758W        W20942   6.417   9.461   4.018 -0.2314 -0.1907  0.2487
 4759W        W20943  18.189  12.300  14.502  0.1317  0.0813  0.2697
 4760W        W20944  15.607  18.054  10.151  0.0496  0.1763 -0.0067
 4761W        W20945   8.478   2.790   4.156 -0.1162  0.0491 -0.4665
 4762W        W20946  11.150   0.256  11.908 -0.0506  0.2380 -0.2230
 4763W        W20947  11.841   4.889   1.494 -0.0042  0.3633 -0.1076
 4764W        W20948   4.654   0.517  12.680 -0.0137  0.0037  0.1625
 4765W        W20949   1.636   7.795   2.928  0.3251  0.1002 -0.2984
 4766W        W20950   0.578   8.104   3.575 -0.3214  0.2276  0.0700
 4767W        W20951   0.126   3.784   1.655 -0.0744 -0.1500 -0.0536
 4768W        W20952  16.616   0.623  14.870  0.1979 -0.2881  0.0423
 4769W        W20953   2.611   7.074   4.611  0.0246  0.2214 -0.2009
 4770W        W20954  15.468  15.775  13.624  0.2394  0.2192  0.0421
 4771W        W20955  16.673   4.098  11.298 -0.0994  0.1581 -0.0453
 4772W        W20956   9.872   0.390   0.740 -0.2105  0.2863  0.2903
 4773W        W20957  16.793   3.883  10.525 -0.0538 -0.0006 -0.1622
 4774W        W20958  17.605   9.583   1.345  0.0466  0.1265  0.4318
 4775W        W20959   2.380  15.048  11.456 -0.1687 -0.1269 -0.3127
 4776W        W20960  14.614  17.556  13.138 -0.0784  0.1490  0.0739
 4777W        W20961  13.267  10.856  10.715  0.3521  0.1400 -0.1063
 4778W        W20962   7.028   9.741   1.641  0.3105  0.4189 -0.0867
 4779W        W20963   1.760   3.288   4.214  0.1381 -0.0414 -0.0649
 4780W        W20964   7.203  10.942   3.911 -0.0293 -0.0269  0.4061
 4781W        W20965  11.882   3.772  14.421 -0.1842 -0.1181 -0.1205
 4782W        W20966   9.699  10.063   1.895  0.1171  0.0959 -0.0289
 4783W        W20967   2.631  14.548  12.260 -0.1146  0.0512 -0.4435
 4784W        W20968  13.848  10.888  12.220  0.3346  0.2275  0.0289
 4785W        W20969   7.819   3.244  13.991 -0.0595 -0.1381  0.0248
 4786W        W20970  14.753  18.618   0.195  0.3365  0.1112 -0.1590
 4787W        W20971   1.774  17.077  14.895  0.4511 -0.0848 -0.1822
 4788W        W20972   4.626  12.091  11.911 -0.1752 -0.2373 -0.3283
 4789W        W20973  17.171  19.008   2.894 -0.1384 -0.2688  0.2035
 4790W        W20974  12.424  11.216   2.041  0.1303  0.1258 -0.1671
 4791W        W20975  17.401  17.756   9.734  0.1035  0.0396 -0.0127
 4792W        W20976   5.138   5.564   9.864  0.0645  0.4188 -0.2995
 4793W        W20977   2.424  12.675  11.199 -0.1058 -0.5092 -0.0663
 4794W        W20978  13.584   6.215  13.923  0.1071 -0.0240  0.2557
 4795W        W20979   4.922  11.889   1.037 -0.0668  0.3182 -0.0409
 4796W        W20980  18.618  10.599  13.116  0.5050 -0.1029  0.0280
 4797W        W20981   3.946   9.750   4.492  0.0789 -0.1788  0.0900
 4798W        W20982   8.029  16.381   3.817  0.1993  0.3809 -0.3661
 4799W        W20983  18.006   5.850   2.409 -0.2015  0.0414  0.0019
 4800W        W20984  10.313  15.099   1.865  0.2601  0.1659  0.1620
 4801W        W20985  15.258  12.385   1.857  0.0171  0.0894 -0.0391
 4802W        W20986  19.388  11.195  14.170  0.0397  0.1611 -0.1783
 4803W        W20987   3.459   2.326  14.910  0.0486 -0.3058  0.1182
 4804W        W20988   5.162  18.155   1.982  0.1213  0.3251 -0.4143
 4805W        W20989  11.764   2.191   1.666 -0.0680 -0.1247 -0.0811
 4806W        W20990   2.231   4.638  12.781 -0.2485 -0.1685 -0.1167
 4807W        W20991  14.306   3.643  13.227 -0.1010 -0.5071  0.1130
 4808W        W20992   0.845   0.842   2.374  0.0238  0.0483 -0.2089
 4809W        W20993  13.962   2.970   1.797 -0.0134  0.1902  0.1021
 4810W        W20994   2.925  13.300   2.866 -0.3749  0.0386  0.2435
 4811W        W20995   8.991  13.465  11.027  0.1419  0.0030 -0.4351
 4812W        W20996   8.162  16.213  12.271  0.2344  0.1104 -0.1739
 4813W        W20997  17.367  14.546   0.527  0.0952  0.0240 -0.3173
 4814W        W20998  13.767   6.483  12.272  0.0065  0.1299 -0.1409
 4815W        W20999  15.836   8.265  11.188  0.3119  0.0264 -0.2542
 4816W        W21000  11.944  15.261   0.128  0.0745  0.1509 -0.2115
 4817W        W21001  11.835   8.663  12.380  0.1966  0.2760  0.1611
 4818W        W21002   5.381  18.163   0.740 -0.1670  0.1411 -0.0481
 4819W        W21003   2.475   3.029  14.933 -0.2774  0.3063 -0.1036
 4820W        W21004   3.303   2.832  13.642  0.1278  0.3737 -0.0031
 4821W        W21005  16.935   8.874   5.125  0.0141  0.1665  0.0407
 4822W        W21006   9.942  12.569  11.073  0.1124 -0.4459  0.1061
 4823W        W21007   1.917   1.317  12.662  0.1759  0.3819  0.1427
 4824W        W21008   2.668  18.634  10.660 -0.2594 -0.5096 -0.1970
 4825W        W21009   5.552   5.404  10.988  0.1454  0.3971 -0.1810
 4826W        W21010  16.758   8.627   4.747 -0.0660 -0.0725 -0.1151
 4827W        W21011  15.280  15.900  10.785 -0.1607  0.2121  0.0329
 4828W        W21012  15.613   1.225   1.358 -0.3473  0.0806 -0.0439
 4829W        W21013   1.374   8.225   4.289  0.2903  0.2848  0.3676
 4830W        W21014   7.455  11.231   3.051  0.0753 -0.0846 -0.0744
 4831W        W21015   2.523  15.793   0.210  0.1026  0.2003  0.2106
 4832W        W21016   2.511  17.977   0.366  0.0596  0.1516 -0.3124
 4833W        W21017  14.504   8.548   4.051  0.2489 -0.0065  0.4657
 4834W        W21018  10.330  15.589   4.662 -0.0101 -0.3405  0.0159
 4835W        W21019  15.825  10.629   9.793 -0.5607 -0.3037  0.5030
 4836W        W21020   3.496  17.761   4.200 -0.2045  0.1082 -0.0433
 4837W        W21021   9.461   3.403   5.072  0.1056 -0.1546  0.0675
 4838W        W21022  18.878   7.020  12.902 -0.1409 -0.0626 -0.2141
 4839W        W21023  11.305   4.528  12.462  0.1468 -0.1219  0.3146
 4840W        W21024  18.928  16.600   4.932  0.3134 -0.1090 -0.0206
 4841W        W21025  10.261   4.558   3.527 -0.3854  0.2108 -0.0976
 4842W        W21026   4.985  18.281   3.971 -0.1023 -0.2371 -0.0414
 4843W        W21027   2.832  16.898  12.852  0.2870  0.0762 -0.0057
 4844W        W21028   6.199   9.808   4.606 -0.2451 -0.0443 -0.0443
 4845W        W21029   1.103   8.323  14.276 -0.0433  0.2829 -0.3054
 4846W        W21030  14.646  17.100   3.992 -0.0923  0.1890  0.0744
 4847W        W21031   6.154  15.603   1.309 -0.1547 -0.1822 -0.0942
 4848W        W21032  15.185  13.711  11.544  0.3879  0.0025 -0.0228
 4849W        W21033   7.357  12.421  13.543  0.2325  0.1601  0.1868
 4850W        W21034  14.033   2.155  11.577 -0.2094  0.0594 -0.2764
 4851W        W21035  15.802  19.129   4.028 -0.1085 -0.2023 -0.1392
 4852W        W21036  10.357  13.697  10.732  0.0139 -0.2191  0.2162
 4853W        W21037  14.437   9.312   3.866 -0.2048 -0.2191  0.1916
 4854W        W21038   6.434   2.827   2.716  0.2620  0.0677 -0.0986
 4855W        W21039  17.771  18.738   1.731  0.0420 -0.1123 -0.0586
 4856W        W21040   8.414   8.865  11.642  0.2279 -0.0501  0.0084
 4857W        W21041   6.920  19.109  10.222 -0.1394  0.0491  0.1689
 4858W        W21042  19.332   2.145   0.815 -0.0747  0.0119 -0.1272
 4859W        W21043  13.342  15.663  11.468  0.1567  0.4774 -0.0674
 4860W        W21044   1.785  14.612   5.878  0.1381  0.1868  0.0735
 4861W        W21045   1.112  18.211   0.151 -0.2881 -0.3265  0.4376
 4862W        W21046   7.208  17.662   0.898 -0.0215  0.0006  0.2256
 4863W        W21047   6.241   3.320   1.684 -0.0769  0.2016 -0.3912
 4864W        W21048   0.734   0.643   0.583  0.1269  0.0573  0.1180
 4865W        W21049   0.551   1.747   4.374 -0.2490  0.4192  0.2263
 4866W        W21050  18.691  10.336  11.794  0.2315 -0.1484  0.2377
 4867W        W21051   3.558  13.267   4.028  0.0359 -0.1660 -0.3323
 4868W        W21052   0.060   2.617   1.137 -0.1974  0.0511  0.0466
 4869W        W21053  13.305  19.356  12.716  0.3601 -0.0133 -0.0704
 4870W        W21054  11.242   3.961  14.089 -0.1746 -0.2677 -0.2642
 4871W        W21055  13.770   7.872   0.750 -0.0243  0.1808  0.2130
 4872W        W21056  16.347  14.142   0.822 -0.1140 -0.2120  0.1300
 4873W        W21057  17.791  14.534  10.586 -0.3799 -0.0283  0.0652
 4874W        W21058  17.016   5.858   2.543 -0.2685  0.0240  0.5005
 4875W        W21059  11.976   8.701   1.362 -0.4552 -0.0027 -0.0053
 4876W        W21060  14.900   4.514  11.097 -0.0660 -0.5171 -0.2129
 4877W        W21061  11.915  13.595  13.733  0.0344 -0.1360 -0.1295
 4878W        W21062   6.149  15.517  11.081  0.1673  0.1641  0.3640
 4879W        W21063  14.721   8.542  12.593  0.1701 -0.0341 -0.1401
 4880W        W21064  13.303   7.813  11.836  0.0026 -0.3672  0.1582
 4881W        W21065  12.964   4.689   1.850  0.1453  0.2676  0.1620
 4882W        W21066   5.615  17.940   2.146 -0.2436 -0.2405 -0.1626
 4883W        W21067   3.824  10.711  12.771  0.0148  0.0222  0.1844
 4884W        W21068   7.806  11.412  13.133 -0.0934 -0.3158  0.2673
 4885W        W21069  10.298   3.215  13.942  0.1163  0.1655  0.1843
 4886W        W21070  15.370   8.955  12.858  0.2615 -0.4914  0.1461
 4887W        W21071   9.602   5.597   0.718  0.2076  0.4323 -0.3624
 4888W        W21072  19.241  17.598  11.033 -0.0498 -0.1768  0.0691
 4889W        W21073   1.150   9.224  14.621  0.1511 -0.5067 -0.1494
 4890W        W21074   9.454   5.782  14.215  0.0944 -0.3178  0.0388
 4891W        W21075  13.062  14.075  11.006  0.3123  0.1669  0.0539
 4892W        W21076   2.810   5.529   4.914 -0.1173  0.0678  0.0659
 4893W        W21077  15.132  13.015  10.336 -0.3824  0.2114 -0.0625
 4894W        W21078  14.492  16.713  14.320  0.3059 -0.1301 -0.1737
 4895W        W21079   8.650  16.510  11.113  0.2204 -0.2461  0.1640
 4896W        W21080  18.971   8.327  14.258 -0.0581  0.1730 -0.1056
 4897W        W21081  16.705   6.239   2.321  0.0396  0.0744  0.0096
 4898W        W21082  13.966   9.591  13.774  0.1273 -0.2388 -0.0319
 4899W        W21083  17.721   9.366  11.120 -0.2633 -0.1228  0.1629
 4900W        W21084   3.450   8.371  11.696  0.3595  0.3471 -0.1309
 4901W        W21085   4.919   1.089  10.506  0.1741 -0.1585  0.0293
 4902W        W21086  12.231  17.309  11.598 -0.2392 -0.1792 -0.4107
 4903W        W21087   3.309   1.882   9.364 -0.1368 -0.2452  0.1258
 4904W        W21088  18.493   1.515   0.421 -0.1035 -0.2164 -0.3018
 4905W        W21089  12.167   6.743   2.353  0.0577 -0.0925 -0.0324
 4906W        W21090   9.997   5.277  13.427  0.1829 -0.1729  0.0862
 4907W        W21091   0.558  10.105   0.386 -0.0896  0.2134 -0.0528
 4908W        W21092  16.692   7.375   1.423 -0.0144  0.4695 -0.2477
 4909W        W21093   0.685   2.290  12.675  0.1068  0.0179  0.0098
 4910W        W21094   8.559  10.958   4.088  0.3570  0.1213  0.0482
 4911W        W21095  10.589   9.395   5.359 -0.0192 -0.1351  0.1649
 4912W        W21096   4.179   9.025  14.306  0.0105 -0.0950 -0.0513
 4913W        W21097  18.394   8.287   4.122 -0.3578  0.1023  0.2692
 4914W        W21098   1.450   0.994   4.400 -0.2746  0.2944 -0.1197
 4915W        W21099   0.315  14.072   3.637 -0.0220  0.2590  0.0028
 4916W        W21100   8.921  19.045   3.566  0.0472 -0.2344 -0.0482
 4917W        W21101   2.875   4.612   5.070 -0.1694 -0.1067  0.0656
 4918W        W21102   2.952  17.347   1.486 -0.0469  0.2908 -0.1136
 4919W        W21103   9.725   6.324   1.498 -0.1994  0.0188 -0.0938
 4920W        W21104  17.598   4.395   2.833  0.2125  0.1422 -0.0645
 4921W        W21105   8.222  10.776   0.045 -0.0590  0.4352 -0.2557
 4922W        W21106   4.901  17.319   0.771 -0.2934  0.1717 -0.2499
 4923W        W21107  13.691   2.840   4.144 -0.1680  0.0062 -0.3277
 4924W        W21108  16.210   1.847   1.548  0.4007  0.3657  0.0378
 4925W        W21109  12.654  17.507  11.616  0.1232 -0.0185 -0.2421
 4926W        W21110   2.648  16.569  13.997  0.1225  0.0440 -0.0281
 4927W        W21111  10.804   4.354  10.815  0.0762 -0.3565 -0.0580
 4928W        W21112   6.918   0.755   4.897 -0.1916 -0.4671 -0.2104
 4929W        W21113   1.793  17.526  13.340  0.1033 -0.1539 -0.1984
 4930W        W21114   8.840  10.114   3.864 -0.1165 -0.1312 -0.0853
 4931W        W21115   2.385   2.508   2.246 -0.0819  0.0390 -0.2191
 4932W        W21116   5.732  13.215  13.147  0.2618  0.3270  0.0333
 4933W        W21117   8.961   8.061   0.787  0.0202 -0.2081 -0.1463
 4934W        W21118   3.704   4.902   3.055 -0.1218 -0.4367  0.0858
 4935W        W21119  13.581  11.967  11.063 -0.0037 -0.2697  0.1662
 4936W        W21120   9.870  18.229   1.309  0.0236 -0.2962  0.3744
 4937W        W21121   0.156   0.179  10.384  0.1527  0.0028  0.0032
 4938W        W21122  11.893  10.147  10.501 -0.0034 -0.3211  0.1048
 4939W        W21123   3.522  12.176  11.096 -0.0344 -0.3678 -0.1413
 4940W        W21124   8.188  12.019   4.759  0.1499  0.1402 -0.2116
 4941W        W21125  13.950   3.146   1.249 -0.2722 -0.1146  0.0952
 4942W        W21126   8.586   4.812   4.214 -0.3277 -0.1978 -0.2386
 4943W        W21127   7.388  14.003  14.620  0.1270  0.4539  0.0991
 4944W        W21128  10.906  15.537  14.324 -0.3234  0.0262 -0.0681
 4945W        W21129   8.346  12.440  11.994 -0.2173 -0.0829  0.2416
 4946W        W21130   4.245  19.242  10.724 -0.0523  0.1132  0.2624
 4947W        W21131   8.075   5.478  13.669 -0.0489 -0.0163 -0.1576
 4948W        W21132  18.859   5.679   2.882 -0.0212 -0.1728  0.2159
 4949W        W21133   6.566   4.791   4.470  0.0965 -0.2918 -0.1065
 4950W        W21134  18.270  18.470  11.603  0.1055 -0.2165 -0.0265
 4951W        W21135  17.773  15.242   3.454  0.2245 -0.0676 -0.0099
 4952W        W21136  10.229  11.556   0.047 -0.0233  0.0674 -0.2953
 4953W        W21137  17.612  17.940  14.740 -0.1126  0.0277  0.0671
 4954W        W21138  14.502   8.434   9.299 -0.0143 -0.0987  0.0527
 4955W        W21139   2.653  16.908  14.379 -0.1038  0.0469  0.2691
 4956W        W21140  12.392  11.357  11.837  0.2683 -0.0579 -0.3021
 4957W        W21141  13.278   5.093   2.912  0.0236 -0.1783  0.3774
 4958W        W21142  13.259  11.669   9.750  0.1420  0.0657 -0.0116
 4959W        W21143   0.494   9.106  12.001 -0.0533  0.2222 -0.3996
 4960W        W21144  18.750  13.674   0.315  0.0434 -0.0969 -0.0443
 4961W        W21145   6.371  17.512   3.366  0.0694 -0.0130 -0.0953
 4962W        W21146   7.232   2.826   9.750  0.0764 -0.0198 -0.4810
 4963W        W21147   5.043   8.297   1.853 -0.1972  0.3044 -0.2542
 4964W        W21148  15.415   2.378  12.387  0.2585  0.1524 -0.0319
 4965W        W21149   8.094  12.668  11.433 -0.0370 -0.1555  0.1521
 4966W        W21150   8.394  14.872   1.354 -0.0172  0.0036  0.0746
 4967W        W21151  16.697   4.267  14.070  0.2655  0.3159  0.1485
 4968W        W21152   7.041   3.796   5.455  0.1975 -0.1995 -0.2133
 4969W        W21153   2.354   8.643  12.472  0.0673  0.1640  0.1770
 4970W        W21154   5.161  11.143  12.010  0.1058 -0.1440 -0.0050
 4971W        W21155   1.882   6.705   0.758  0.0760  0.1774  0.0018
 4972W        W21156  12.397  12.756  12.720  0.0552  0.1793 -0.0319
 4973W        W21157   4.297   4.243   3.858  0.2466 -0.2508  0.2152
 4974W        W21158   4.362   4.710  14.768 -0.0692  0.2125  0.1030
 4975W        W21159  12.843   9.591  10.467 -0.0050 -0.1221 -0.1839
 4976W        W21160  10.963   4.042   0.408 -0.0823  0.2606 -0.3072
 4977W        W21161   1.091   0.209   0.786  0.1714  0.2086 -0.1644
 4978W        W21162  10.285  12.657   4.333 -0.2964 -0.3566  0.2866
 4979W        W21163  13.178   2.838   1.258  0.0493  0.0804 -0.3414
 4980W        W21164   5.233  11.598   3.600 -0.0845  0.0353  0.1085
 4981W        W21165   5.596  10.156  14.383  0.0157  0.1441  0.1058
 4982W        W21166  11.875  17.964  12.396 -0.2202  0.1896 -0.2921
 4983W        W21167  18.599   5.960   3.196  0.0524 -0.1696  0.0019
 4984W        W21168  15.926   8.356   0.409 -0.2860  0.0785  0.0625
 4985W        W21169  18.195   2.263   9.345  0.2113 -0.2223  0.1301
 4986W        W21170  16.699   2.256   0.854 -0.2150  0.0454  0.0183
 4987W        W21171   9.397   8.409  13.087  0.1398  0.1038 -0.1858
 4988W        W21172   0.424   7.559   1.127  0.3060 -0.0971  0.3635
 4989W        W21173  10.118  16.390  10.210 -0.0927 -0.3126 -0.2016
 4990W        W21174   9.211  10.741   1.008  0.3660  0.2757  0.3096
 4991W        W21175  12.880  11.588  11.790 -0.0870 -0.0672  0.1440
 4992W        W21176  17.374   3.068  11.977 -0.0798  0.2306 -0.0610
 4993W        W21177  14.672   1.600   2.098  0.3326 -0.1053  0.0135
 4994W        W21178  14.965  18.001   4.393  0.0541 -0.1309  0.0233
 4995W        W21179  14.573  10.880   3.953 -0.1368 -0.2393  0.2498
 4996W        W21180  17.040   9.820  10.741 -0.2818 -0.0334 -0.1085
 4997W        W21181  16.333  14.277  12.145  0.1318  0.0883 -0.0445
 4998W        W21182   3.091  13.555  11.103  0.0987 -0.1222  0.0964
 4999W        W21183   5.685  16.865   5.504 -0.2060  0.0093  0.1551
 5000W        W21184  12.512  10.221   9.914  0.2398 -0.0014 -0.0573
 5001W        W21185   4.779   8.961   3.005 -0.3429  0.0843  0.0587
 5002W        W21186   1.529  13.054   0.709 -0.0977  0.2311 -0.2626
 5003W        W21187   8.236  10.185  11.683  0.2110  0.1158  0.0340
 5004W        W21188   5.143   1.419  14.439 -0.0485 -0.0485  0.0267
 5005W        W21189   3.793   0.436  11.774 -0.0133 -0.0959 -0.0272
 5006W        W21190   5.583  14.077  12.164 -0.1295 -0.1677 -0.1632
 5007W        W21191   0.515  16.676  11.641 -0.1606  0.2337 -0.3505
 5008W        W21192   6.461   7.125   3.030 -0.1210  0.0689 -0.0273
 5009W        W21193  12.806   4.505  13.651 -0.0448 -0.2901 -0.2527
 5010W        W21194   5.741  17.111   1.717  0.0320  0.0625  0.2088
 5011W        W21195   3.827  16.841   5.208 -0.1753 -0.3160 -0.1517
 5012W        W21196  17.449   4.250   0.719 -0.1187 -0.1285  0.3113
 5013W        W21197   0.102   8.326  13.044 -0.0885 -0.1455 -0.2067
 5014W        W21198   6.260   7.067   2.034  0.1322 -0.3002  0.1033
 5015W        W21199   7.979   1.583  12.013 -0.0377  0.0391  0.0854
 5016W        W21200  16.088   2.264  14.902  0.0865 -0.0139  0.2019
 5017W        W21201  12.399  10.343  10.570  0.1091  0.1263 -0.0477
 5018W        W21202   8.526   7.389   1.984  0.1534 -0.3129  0.1083
 5019W        W21203  10.678  19.350   4.756 -0.1537 -0.3370 -0.1165
 5020W        W21204  10.898  11.533   5.211 -0.0242 -0.3556  0.2407
 5021W        W21205  16.259  17.829   0.910  0.3263 -0.0496  0.0966
 5022W        W21206   3.129  13.813   2.782 -0.0991  0.0869 -0.1505
 5023W        W21207   0.247   2.939   9.783  0.0686 -0.1964  0.2999
 5024W        W21208   7.216  10.890   5.288 -0.1597  0.1564  0.1680
 5025W        W21209  14.495   0.405  11.882 -0.1960  0.3226 -0.0085
 5026W        W21210   2.094   2.939   2.005 -0.0049  0.1465 -0.2564
 5027W        W21211   0.792  13.466  12.875  0.0092  0.0038  0.1336
 5028W        W21212  10.756  10.049   4.576  0.0463 -0.3715  0.0443
 5029W        W21213   6.187  13.164   9.750 -0.0146  0.0716  0.1582
 5030W        W21214  16.335  10.368  11.108  0.0675  0.0578 -0.0684
 5031W        W21215   6.100   5.122  10.058  0.0941 -0.1876 -0.2159
 5032W        W21216  16.205   4.549   2.083 -0.1954  0.3748 -0.4074
 5033W        W21217  12.296  17.565   0.547 -0.0782 -0.0695  0.1858
 5034W        W21218  12.438   2.200   4.188 -0.1846 -0.1190 -0.2525
 5035W        W21219   5.039   8.839   2.570  0.1021 -0.2029 -0.1864
 5036W        W21220   3.948   9.702  11.657 -0.0662  0.2180  0.2267
 5037W        W21221  11.328   7.655  11.583  0.1109 -0.2060  0.3111
 5038W        W21222  18.523  14.993  12.289  0.0698 -0.0369  0.1886
 5039W        W21223  18.684   3.191  10.914  0.2138 -0.2216  0.1155
 5040W        W21224  10.995   6.130  10.760 -0.2289  0.0566  0.2948
 5041W        W21225   0.591   6.701   4.038  0.1655  0.4425  0.1275
 5042W        W21226   2.375   2.060   2.050  0.0050  0.4574  0.2360
 5043W        W21227  18.330   4.551   0.807 -0.2768 -0.2715 -0.0326
 5044W        W21228   7.319   4.722  14.360 -0.1203  0.2795 -0.0212
 5045W        W21229  17.463   4.712  14.912 -0.4108 -0.0499 -0.0121
 5046W        W21230  14.700   3.511  13.645  0.0903  0.3205 -0.1897
 5047W        W21231   6.736  15.664  12.399  0.0204 -0.0925  0.2196
 5048W        W21232  11.460  12.843   0.661 -0.0538  0.0363  0.0429
 5049W        W21233  11.471   4.158   5.020  0.0533 -0.0389 -0.0883
 5050W        W21234  10.267   3.117   2.680  0.1699 -0.1455  0.0438
 5051W        W21235   1.280   0.678   1.062 -0.5224 -0.0532 -0.0766
 5052W        W21236  12.074   9.612  13.268  0.1020  0.1491  0.1931
 5053W        W21237  15.536  15.980   3.706 -0.2511 -0.3245 -0.2285
 5054W        W21238   3.891  18.730   3.870 -0.1354 -0.0623  0.1142
 5055W        W21239  11.429   6.366   4.540  0.0678  0.3518  0.0293
 5056W        W21240   6.071  10.582   4.901 -0.1057  0.0700 -0.1791
 5057W        W21241  17.768   1.394   0.080 -0.1992 -0.0440  0.3712
 5058W        W21242  11.834  11.075   0.305  0.1014 -0.0276  0.0718
 5059W        W21243   1.729   0.317   2.427 -0.2374 -0.1246  0.1177
 5060W        W21244  14.583  10.996  11.366  0.0621 -0.2303 -0.1111
 5061W        W21245   5.580  18.699  10.533 -0.0152  0.0598  0.1434
 5062W        W21246  15.204   2.784  10.999 -0.0505 -0.0859  0.1069
 5063W        W21247  18.336  11.535  13.742 -0.1243  0.1896  0.1603
 5064W        W21248  13.258  10.135   1.183  0.1386  0.1564  0.0266
 5065W        W21249   4.366  10.885  14.681 -0.0386  0.0727  0.1280
 5066W        W21250  14.693  15.018   2.480 -0.0505  0.4280 -0.1941
 5067W        W21251  12.087   5.443   0.918 -0.1515 -0.2149  0.2566
 5068W        W21252   5.525  12.903   3.939 -0.0208  0.0115 -0.0763
 5069W        W21253  16.376   3.210  11.826 -0.0436  0.1793 -0.1821
 5070W        W21254   1.146   9.339   5.625 -0.1287  0.0306 -0.0091
 5071W        W21255  18.523  17.822  11.909 -0.4829 -0.1672  0.1354
 5072W        W21256  15.698  18.804   4.414 -0.1281  0.1106 -0.2514
 5073W        W21257   2.809  10.564  13.733  0.3576 -0.0801 -0.1108
 5074W        W21258   2.824   5.773   0.519 -0.1323 -0.1506 -0.0384
 5075W        W21259   2.886   6.518   4.304 -0.1886  0.0604 -0.0279
 5076W        W21260   1.725  16.097   9.615  0.0752  0.1930 -0.0180
 5077W        W21261  16.578   9.763   0.218 -0.1971  0.0088 -0.4036
 5078W        W21262  13.266   5.676  13.893  0.0405 -0.1449 -0.0280
 5079W        W21263   1.755  14.782  12.765 -0.2077  0.0202  0.0215
 5080W        W21264   9.603   0.221  14.383 -0.1516 -0.0237 -0.2944
 5081W        W21265   4.800   4.668  11.535 -0.1964 -0.0893  0.0824
 5082W        W21266   9.632  15.101  14.748  0.1155 -0.2497 -0.3845
 5083W        W21267  19.245   6.086   3.821 -0.0581 -0.0087  0.0027
 5084W        W21268   8.297  17.872   9.982  0.3316 -0.2422 -0.0154
 5085W        W21269   0.865  18.629   0.263  0.0578 -0.1931 -0.4837
 5086W        W21270  13.306   0.705   4.712 -0.0643  0.0609  0.0354
 5087W        W21271  10.928  13.085  14.275  0.4211 -0.1585  0.2825
 5088W        W21272   7.168  12.054  12.648  0.2913 -0.2397  0.0645
 5089W        W21273   2.249  11.172  13.519 -0.0213  0.1834 -0.1651
 5090W        W21274  16.571  11.088   0.488  0.1207  0.1174  0.2832
 5091W        W21275   6.319  15.672   0.155  0.2628 -0.1162 -0.1355
 5092W        W21276   6.131   8.212   1.987 -0.3287 -0.1141 -0.2473
 5093W        W21277  14.706  11.308   4.771  0.1216  0.2065  0.3300
 5094W        W21278   0.749   6.981  14.133  0.1467  0.0334 -0.1628
 5095W        W21279   9.546   3.889  10.644  0.2307 -0.2618 -0.0703
 5096W        W21280  12.234   4.826   1.170  0.1927  0.0481  0.2144
 5097W        W21281   1.746   2.013  10.509 -0.2250  0.3839 -0.0519
 5098W        W21282   3.380   6.718   4.763  0.0060 -0.3569  0.3909
 5099W        W21283  19.100   0.138   4.523 -0.1449 -0.1283  0.0876
 5100W        W21284   8.214   9.822   1.580 -0.1370  0.0822 -0.0052
 5101W        W21285  14.597   8.557   3.077 -0.1115 -0.1053 -0.0793
 5102W        W21286   4.673  12.324   3.993 -0.2127  0.2031 -0.2402
 5103W        W21287   3.679   3.004  13.987  0.2871 -0.3694  0.1671
 5104W        W21288  18.876   2.796  11.171  0.1189 -0.1453  0.0497
 5105W        W21289   9.498  16.886  11.400  0.1188  0.2049 -0.1898
 5106W        W21290   0.921  15.618  12.984 -0.1379 -0.0092  0.3678
 5107W        W21291   3.078  19.291  13.514 -0.0296  0.0912 -0.0726
 5108W        W21292  10.653   6.852  13.722  0.2209  0.2004 -0.2121
 5109W        W21293   5.425   3.541   0.906  0.1225  0.1644  0.2414
 5110W        W21294  13.566   4.182  11.666 -0.2296 -0.1955  0.0733
 5111W        W21295   4.335   2.431  10.893  0.3670  0.3681 -0.0640
 5112W        W21296   8.011  12.357  10.351 -0.1013 -0.0548 -0.0560
 5113W        W21297  15.292   5.154   1.638 -0.4038 -0.1460  0.0726
 5114W        W21298  12.514   4.216  14.686  0.2829  0.0687 -0.1659
 5115W        W21299  10.259   2.315   2.476 -0.0336  0.2215 -0.2366
 5116W        W21300  11.826  16.374   3.910 -0.0078  0.2670 -0.3389
 5117W        W21301  15.725  13.413  13.061 -0.0704 -0.2361 -0.0378
 5118W        W21302   5.412  12.237  14.834 -0.1204  0.0331 -0.2546
 5119W        W21303   7.396   3.245  14.224 -0.1748 -0.0747 -0.0882
 5120W        W21304   2.983  10.116   4.845 -0.0866 -0.1246 -0.1444
 5121W        W21305  11.076   7.224  13.808 -0.2036  0.3050 -0.5712
 5122W        W21306  18.466   4.360  13.396  0.3596 -0.2269 -0.3242
 5123W        W21307   2.223  15.830   4.671 -0.3535 -0.2498 -0.0371
 5124W        W21308  17.465  12.797   4.164 -0.3627  0.2556 -0.0308
 5125W        W21309  11.421  12.924  14.363  0.0691 -0.0412  0.1102
 5126W        W21310   8.158   0.536   1.222  0.2087  0.2541  0.2108
 5127W        W21311  14.198  11.877  10.420  0.3095  0.2039  0.3456
 5128W        W21312  18.872  19.022   2.798  0.0860  0.2112  0.0465
 5129W        W21313   1.305  11.340  11.404  0.1239 -0.2599 -0.0059
 5130W        W21314  11.585  17.668   3.924  0.2781  0.3330  0.0282
 5131W        W21315   7.860  12.682   2.556  0.1955 -0.2176 -0.3248
 5132W        W21316  13.847   7.479   1.546  0.0572  0.0690  0.1149
 5133W        W21317   5.610  15.500  11.170 -0.1553 -0.0368  0.3490
 5134W        W21318  15.442  16.109   1.847  0.3995 -0.2487  0.1726
 5135W        W21319   0.363   8.844  11.100 -0.1288  0.2330 -0.0820
 5136W        W21320   5.071  18.210   2.492  0.0607  0.1869 -0.1789
 5137W        W21321   3.502  16.904  11.453  0.1255 -0.0018 -0.1862
 5138W        W21322  15.473  10.257  10.052 -0.2266 -0.1317  0.0925
 5139W        W21323  14.336  11.891  13.554 -0.2073 -0.1473 -0.0365
 5140W        W21324  19.189  14.340   4.889  0.2650 -0.0380  0.0082
 5141W        W21325   4.498   2.105   3.224 -0.0086 -0.1026 -0.0293
 5142W        W21326   7.264  13.207  12.318  0.0855  0.0857 -0.0030
 5143W        W21327  19.257   2.760   4.541  0.0288 -0.1932  0.2045
 5144W        W21328  13.681   6.782   1.814 -0.0474  0.0679 -0.0416
 5145W        W21329   4.058   3.450   5.242 -0.4657 -0.0650 -0.2148
 5146W        W21330   8.273   0.423  10.476  0.5182 -0.1986  0.3482
 5147W        W21331  13.780   2.958  10.347 -0.1028 -0.3254  0.0922
 5148W        W21332  17.451  11.413   5.275  0.0027 -0.1731  0.1249
 5149W        W21333   1.402   5.555   4.744  0.3621  0.2767 -0.1102
 5150W        W21334  10.575   2.699   2.530 -0.2065  0.6699  0.4806
 5151W        W21335  15.844   0.636   0.249 -0.1237 -0.1597 -0.3011
 5152W        W21336   3.484  16.651  10.398 -0.0918 -0.0615  0.1631
 5153W        W21337   2.244  16.306   0.973  0.0984  0.0128 -0.0032
 5154W        W21338   4.231  16.262  11.287 -0.0305 -0.3023  0.0462
 5155W        W21339  12.975   4.258   3.029 -0.1133  0.3033  0.0883
 5156W        W21340  16.636  15.819   8.774  0.0131  0.4538  0.1026
 5157W        W21341   5.202   9.876   1.145  0.0389 -0.1655  0.2351
 5158W        W21342  17.178  15.846  12.031 -0.2545 -0.1522  0.2230
 5159W        W21343   1.007   8.184   2.414 -0.2867 -0.2081 -0.2525
 5160W        W21344   0.381  19.112  14.376 -0.0195  0.3609 -0.0338
 5161W        W21345  19.064   4.546  14.133  0.0137 -0.5133  0.3916
 5162W        W21346  16.375  12.555   2.644  0.3491  0.4431  0.0877
 5163W        W21347   3.652  11.373   0.897 -0.2093 -0.2551  0.2341
 5164W        W21348   2.476   8.630  10.129  0.1098  0.1401 -0.1941
 5165W        W21349  17.636   2.254   4.119  0.2208 -0.2842  0.0314
 5166W        W21350   8.333  16.508   1.715  0.0818 -0.0320 -0.1512
 5167W        W21351   2.131  13.822   0.785  0.1398 -0.1813 -0.0103
 5168W        W21352  15.902  12.733   2.738  0.2832  0.3977  0.2409
 5169W        W21353   7.196   4.057  10.698  0.2268 -0.2634 -0.0597
 5170W        W21354  18.547   3.723  13.810  0.0730  0.1624  0.0150
 5171W        W21355   4.239  15.413  12.894 -0.0900 -0.0270 -0.0826
 5172W        W21356  13.676   8.759   0.293  0.2493  0.4689  0.1631
 5173W        W21357   9.264   1.366   2.841  0.0392  0.1045  0.0908
 5174W        W21358  10.395  12.397  14.757 -0.0663  0.0705 -0.0374
 5175W        W21359  15.599   2.892  11.679 -0.0207  0.1373  0.0380
 5176W        W21360   7.173  10.406   2.988 -0.0267  0.2141 -0.1378
 5177W        W21361  16.316   3.142   4.222  0.2316  0.0279  0.0180
 5178W        W21362   4.105   3.191  14.508  0.0813 -0.1545 -0.1000
 5179W        W21363  18.035  13.903  13.170 -0.2352 -0.0117 -0.2519
 5180W        W21364  17.630  18.389   0.555 -0.1530  0.0820  0.2767
 5181W        W21365  16.399   6.061   3.291 -0.1917  0.5440 -0.0905
 5182W        W21366  11.587   0.979  11.264  0.0138 -0.2706  0.1182
 5183W        W21367  11.535   2.843  10.796  0.0284  0.0010 -0.1118
 5184W        W21368   4.914   9.308  11.669  0.0305  0.1129 -0.3272
 5185W        W21369   1.701  16.158  13.608 -0.0364  0.1397  0.1079
 5186W        W21370   4.764  15.594  12.973 -0.0142  0.0665 -0.0742
 5187W        W21371   5.596  11.844  13.518 -0.1350 -0.0421  0.3708
 5188W        W21372  10.110   1.914  10.049 -0.1294 -0.0358  0.3505
 5189W        W21373  18.545   1.862  13.534 -0.0034 -0.1951 -0.0757
 5190W        W21374  11.212   5.674   1.955  0.3066  0.2097 -0.0658
 5191W        W21375   2.451   6.509   4.609 -0.1131  0.0254 -0.3686
 5192W        W21376   5.190   2.301  12.272 -0.1794  0.2809  0.3301
 5193W        W21377  17.312   8.521   2.015  0.2048 -0.4463 -0.0430
 5194W        W21378  11.483  11.439  12.446  0.0483  0.0866 -0.0012
 5195W        W21379  18.073   1.980   2.596  0.2085 -0.1961  0.2501
 5196W        W21380   8.341   3.533  14.002  0.1409  0.3378  0.0586
 5197W        W21381  12.198  19.035  11.271  0.1050 -0.2118  0.2258
 5198W        W21382   4.968  15.901   3.598  0.1906  0.0866 -0.0863
 5199W        W21383  16.466  11.086  14.425  0.2489  0.1260  0.1514
 5200W        W21384  11.909   2.770  11.845  0.3586 -0.0588 -0.0442
 5201W        W21385   9.609   2.275   0.219  0.0647 -0.2774 -0.1962
 5202W        W21386  13.238   6.102  12.589 -0.1226 -0.1724  0.0107
 5203W        W21387   8.351   2.376  14.825  0.0246 -0.0931  0.1516
 5204W        W21388   6.866  17.655  13.082 -0.2241  0.0847 -0.2354
 5205W        W21389  13.476  18.699  10.766  0.2000  0.2193 -0.1022
 5206W        W21390  16.151  17.937   0.281 -0.0760  0.1259  0.1203
 5207W        W21391  15.608   3.828  12.204  0.0735 -0.5536  0.0923
 5208W        W21392   5.268  12.701   0.185  0.2890  0.1294 -0.1716
 5209W        W21393  10.926  13.863   1.444 -0.1132 -0.0678 -0.1424
 5210W        W21394  10.158  14.661  12.392 -0.2133  0.4259 -0.0290
 5211W        W21395   7.268  16.239   3.976  0.1180 -0.0825 -0.1914
 5212W        W21396  13.420   4.984  14.498 -0.4066 -0.1713 -0.2811
 5213W        W21397   1.769  13.645  14.504 -0.0729  0.1557  0.2227
 5214W        W21398  13.734  17.420   4.486 -0.0096  0.0784 -0.1157
 5215W        W21399  15.155   3.301  13.546  0.0678  0.3635  0.0830
 5216W        W21400  18.805   8.473   4.409 -0.0529  0.0242 -0.0704
 5217W        W21401   5.466  13.430   1.627 -0.4181  0.1738 -0.0512
 5218W        W21402  11.469   1.335  10.845  0.3011 -0.1467  0.3239
 5219W        W21403  15.872  18.830   5.027 -0.1487 -0.0327 -0.2660
 5220W        W21404   9.964  11.411   2.310 -0.4335 -0.1545  0.4092
 5221W        W21405   0.312  11.208  11.286  0.2103 -0.0757 -0.0834
 5222W        W21406  11.591   9.990   0.534 -0.0792  0.1783  0.3894
 5223W        W21407  16.981  13.404   1.879 -0.0597  0.0377 -0.2789
 5224W        W21408   5.017   4.381  10.430 -0.0253  0.0642  0.1006
 5225W        W21409  14.901   8.905  14.023 -0.1893 -0.1190 -0.1204
 5226W        W21410   3.836  18.179  12.410  0.1116 -0.8188  0.0969
 5227W        W21411  18.467   7.020   0.844 -0.2057 -0.0472 -0.3287
 5228W        W21412  18.467  15.747   4.127 -0.0870  0.0542  0.0913
 5229W        W21413  14.942   4.757  11.538  0.0081 -0.1701 -0.4470
 5230W        W21414   5.293   3.438   1.370 -0.2913 -0.3688  0.2704
 5231W        W21415   3.383  10.980   5.015 -0.2061  0.0349 -0.4048
 5232W        W21416   1.446  12.991   2.394 -0.0068  0.2940  0.2771
 5233W        W21417   9.160   4.955  14.412 -0.3282 -0.1328 -0.0506
 5234W        W21418  11.023   8.166   2.163 -0.0862  0.0978  0.3270
 5235W        W21419   4.835  17.066   4.680  0.1730  0.0763 -0.3077
 5236W        W21420  10.728   8.877  12.888  0.0246 -0.0287  0.1107
 5237W        W21421   7.133   2.651  10.596 -0.2958  0.3683 -0.1317
 5238W        W21422   2.618  19.280   1.393  0.1029 -0.0837 -0.0553
 5239W        W21423   4.689   3.031   3.001 -0.0225  0.0858  0.3267
 5240W        W21424   7.305  17.379  13.124 -0.0015 -0.2874  0.0650
 5241W        W21425   7.297   4.032   2.042  0.1202  0.0727  0.1998
 5242W        W21426  11.934  12.503   0.675 -0.1657 -0.0833  0.2375
 5243W        W21427  17.442  13.711   0.472 -0.1469  0.3049  0.2207
 5244W        W21428   6.121   0.988  12.984 -0.0871  0.2440  0.1778
 5245W        W21429  16.223   9.572  13.853 -0.0346  0.3609  0.1382
 5246W        W21430   9.667   6.513   0.445 -0.0292  0.3626  0.4356
 5247W        W21431   7.230   3.851   4.873 -0.3803  0.0492  0.0951
 5248W        W21432  15.176  12.419  12.586 -0.1336  0.0084 -0.2238
 5249W        W21433  10.785  15.578   4.188  0.2505 -0.0839  0.0492
 5250W        W21434   7.011   0.051   3.551 -0.1533 -0.0463 -0.3274
 5251W        W21435  13.412  16.346   3.421  0.1693  0.0030  0.1047
 5252W        W21436   7.545  10.130   4.228 -0.2674  0.0270 -0.0241
 5253W        W21437  10.124  18.750   5.127 -0.2108  0.0087 -0.2218
 5254W        W21438  16.277   9.482   4.644  0.0710 -0.2873 -0.0854
 5255W        W21439  12.950   6.484   2.918 -0.3112  0.0103  0.0764
 5256W        W21440   6.027  17.048  14.021 -0.0784 -0.0832 -0.4013
 5257W        W21441   1.753  12.267  13.630 -0.5433 -0.0898 -0.1264
 5258W        W21442   1.490  13.244  13.918 -0.0626 -0.1764 -0.0347
 5259W        W21443  10.410  15.824  13.573  0.2409  0.2079 -0.0823
 5260W        W21444  15.506  11.770  14.105  0.0384  0.1597 -0.4451
 5261W        W21445   1.129  13.460   2.245 -0.3167  0.2601  0.0077
 5262W        W21446   8.563  11.983   5.185 -0.0052 -0.0374 -0.0651
 5263W        W21447  18.204   8.183   4.897 -0.0834 -0.0320 -0.0576
 5264W        W21448  18.925  10.311   0.243  0.0004  0.1342  0.0648
 5265W        W21449   5.150   8.683   0.866  0.1882  0.0496 -0.0814
 5266W        W21450  17.654   7.143   5.568  0.2665  0.1836 -0.1773
 5267W        W21451  15.193  10.974   2.038  0.0674  0.1360  0.0152
 5268W        W21452   3.869  15.638   0.789  0.0512  0.1456 -0.1061
 5269W        W21453   9.432  18.168   0.638  0.0762 -0.0667 -0.1883
 5270W        W21454   8.164  12.485   3.922 -0.1547  0.1354 -0.1906
 5271W        W21455  15.337  14.707  11.662 -0.0722  0.0523  0.1845
 5272W        W21456   0.976   7.344  14.618 -0.1568  0.1004 -0.0895
 5273W        W21457   5.063  12.283   4.364  0.0749  0.0256  0.1236
 5274W        W21458  15.976   7.279  10.556  0.3649  0.2332  0.1221
 5275W        W21459   4.272  14.637   0.061 -0.3383  0.0063  0.2050
 5276W        W21460  12.297  12.288  14.583 -0.2984 -0.2745 -0.2373
 5277W        W21461  12.099  14.711   0.916  0.0845 -0.0101 -0.1231
 5278W        W21462  18.606   1.459  12.112 -0.2085 -0.0241 -0.2981
 5279W        W21463   6.751  15.882  11.932 -0.0292  0.1544 -0.1846
 5280W        W21464  16.637  16.925  10.978 -0.1223  0.3562  0.2105
 5281W        W21465   6.863  10.129   5.417  0.2633  0.0138 -0.2241
 5282W        W21466  19.151  16.845   0.722  0.0429 -0.2136 -0.2550
 5283W        W21467   0.759   1.180  10.915  0.0148 -0.0267 -0.2418
 5284W        W21468  13.834   1.768   4.700 -0.1824 -0.1056  0.2953
 5285W        W21469  12.897  12.301  14.035  0.2103 -0.1606 -0.0262
 5286W        W21470   1.826   3.151  13.010 -0.3024 -0.0595  0.0987
 5287W        W21471   2.521   9.489  11.505 -0.2598 -0.1817  0.0843
 5288W        W21472  11.472  19.224   9.915  0.3972  0.1364 -0.0753
 5289W        W21473  10.306   9.355   5.769 -0.0673 -0.3523 -0.0809
 5290W        W21474   0.887  12.741  13.483  0.1718  0.2212  0.1842
 5291W        W21475  16.052   1.107   1.789  0.2647 -0.0868  0.2094
 5292W        W21476   5.595  15.465   1.057  0.0034 -0.1308  0.2012
 5293W        W21477   1.454   9.964  10.874 -0.0338 -0.3650  0.0988
 5294W        W21478  13.681   0.442  10.230 -0.5207 -0.0983 -0.2977
 5295W        W21479  11.980   5.912  14.517  0.0079 -0.2107  0.0911
 5296W        W21480  14.325  16.254   2.990  0.1716  0.2864 -0.3056
 5297W        W21481   4.151   3.753   1.738 -0.1184 -0.0275 -0.2813
 5298W        W21482   3.635  11.916   1.798  0.1072  0.0826  0.0871
 5299W        W21483   9.831  14.925  12.053  0.0245  0.0234 -0.0439
 5300W        W21484   2.750   8.706   0.623 -0.1982  0.6057 -0.0309
 5301W        W21485  11.355   0.438   4.193  0.1519 -0.1830 -0.2809
 5302W        W21486  18.244   2.877   2.616 -0.0419  0.0977  0.1034
 5303W        W21487  18.498  15.905  11.858 -0.2006 -0.2313 -0.0478
 5304W        W21488  18.991  15.666  13.064  0.2441  0.1934  0.3581
 5305W        W21489  11.230   7.986  12.956  0.1737 -0.3386  0.4203
 5306W        W21490   5.810   1.302   2.911 -0.0229 -0.0470 -0.0224
 5307W        W21491   9.948  16.699   3.620 -0.1398  0.1591  0.1421
 5308W        W21492  15.198   2.660   3.215  0.0934  0.1644  0.1486
 5309W        W21493   0.140   8.987   4.479 -0.1914 -0.0790  0.0305
 5310W        W21494  13.963   3.847  13.458  0.2606 -0.0524  0.3648
 5311W        W21495   6.958  10.423   4.902 -0.1252 -0.1435  0.3603
 5312W        W21496   2.868  11.025  11.780  0.0967 -0.0754 -0.1288
 5313W        W21497  12.320   1.206   1.370  0.0782  0.2683  0.1042
 5314W        W21498   9.461   3.437   5.586  0.1105 -0.1099 -0.1549
 5315W        W21499  10.210   2.672   4.318 -0.3196 -0.2043 -0.0091
 5316W        W21500   0.177   0.985  14.009  0.1440 -0.2664  0.0620
 5317W        W21501   4.046   7.165   0.194 -0.2939 -0.1537  0.2823
 5318W        W21502  15.557   0.648  13.299 -0.2056 -0.0790 -0.2859
 5319W        W21503   6.336   6.994   0.732  0.1809  0.1342 -0.2456
 5320W        W21504   4.385   4.360  11.380  0.2092 -0.0278  0.1426
 5321W        W21505  13.004  15.434   1.851 -0.0211 -0.0516  0.2988
 5322W        W21506   0.985   7.676  14.279  0.1102 -0.5683  0.1786
 5323W        W21507  18.808   3.574   4.878 -0.0792 -0.1082 -0.0600
 5324W        W21508  16.384   4.618   0.257 -0.1975  0.5011 -0.3509
 5325W        W21509   9.211  14.868   0.078 -0.1764  0.1116  0.0342
 5326W        W21510   8.229  17.135  14.242  0.2195 -0.1671 -0.2106
 5327W        W21511   4.738   7.511  11.256  0.0056  0.3978 -0.0275
 5328W        W21512   1.605   9.915   1.122  0.0649 -0.0717 -0.1437
 5329W        W21513  14.763   4.055  11.010  0.0386  0.1058 -0.1069
 5330W        W21514   0.926   2.619  10.543  0.0924  0.0785  0.2457
 5331W        W21515   3.027   2.457   3.995  0.0508  0.0444 -0.0233
 5332W        W21516  10.886   9.637  14.095 -0.2259 -0.4455 -0.2196
 5333W        W21517   2.997   7.584   1.643 -0.1333  0.1924  0.2350
 5334W        W21518  15.338   7.553  14.361  0.1276 -0.1140  0.0200
 5335W        W21519   3.126   7.438  14.804  0.0357 -0.0246 -0.2413
 5336W        W21520   4.042   6.600   1.022  0.0627  0.1341 -0.1663
 5337W        W21521  17.204   2.305   3.806  0.2472 -0.0584 -0.1862
 5338W        W21522  10.989  13.787   2.677 -0.1193  0.0225  0.1149
 5339W        W21523   3.491  17.022  14.030 -0.0670  0.0734  0.1439
 5340W        W21524   6.813   3.052   3.915  0.0924 -0.0433  0.0545
 5341W        W21525   5.812  16.852  11.095  0.1332 -0.1240 -0.3342
 5342W        W21526   7.620  14.203  11.921  0.0575  0.2285  0.0438
 5343W        W21527  10.202  17.158  12.995 -0.0532  0.0486  0.1615
 5344W        W21528  16.584   9.866   0.720  0.6132 -0.0776 -0.1979
 5345W        W21529  17.874   5.270   4.827  0.0437  0.0377 -0.1934
 5346W        W21530  10.766  10.687   1.765  0.0100 -0.0133 -0.0626
 5347W        W21531   4.686  18.313  11.319 -0.1244 -0.0151 -0.2148
 5348W        W21532  12.500   9.269  14.629 -0.1077 -0.1403  0.1059
 5349W        W21533   1.584   8.654   0.185 -0.1359  0.0756 -0.4383
 5350W        W21534  15.728  10.827   2.031 -0.0289 -0.1687  0.1056
 5351W        W21535  17.132   6.231   3.315 -0.0152  0.1008  0.1253
 5352W        W21536   3.545   1.536   1.659  0.0408 -0.0780  0.1423
 5353W        W21537   6.903   6.296  12.484  0.1446 -0.3915  0.1017
 5354W        W21538   5.007   1.653  14.025  0.0793  0.0895  0.2131
 5355W        W21539   0.311   4.547  12.726 -0.0959  0.0659  0.0027
 5356W        W21540   6.919  16.545  12.568 -0.0613  0.1685 -0.0212
 5357W        W21541  14.054   3.304   3.194  0.1476 -0.3054 -0.2535
 5358W        W21542  18.971   5.698   4.166 -0.0017  0.1023 -0.2718
 5359W        W21543   3.245  17.013   1.190 -0.0911 -0.2132  0.1823
 5360W        W21544  17.531  18.851   0.722  0.0391 -0.0111 -0.2393
 5361W        W21545  12.827  18.654  13.826  0.0611  0.1150  0.2686
 5362W        W21546   7.128   5.955   1.778  0.0585 -0.2673  0.2023
 5363W        W21547  10.454  19.343  14.222  0.3644 -0.2340  0.2607
 5364W        W21548  11.292  12.271   2.413 -0.0412  0.0682 -0.3425
 5365W        W21549   7.447  12.245   3.242  0.2926 -0.2000  0.4240
 5366W        W21550  13.845  14.730   4.180 -0.2027 -0.1734  0.5351
 5367W        W21551   1.913  15.892   3.331  0.0370  0.0504  0.1423
 5368W        W21552   8.154  14.137  11.580  0.2572  0.0169  0.0900
 5369W        W21553  17.016  10.238  11.944 -0.3729 -0.0225 -0.0836
 5370W        W21554  14.688   7.416  12.871 -0.2412 -0.3148  0.2075
 5371W        W21555   7.671   2.113  11.645  0.2222  0.2818  0.0744
 5372W        W21556   0.918   6.031  14.113 -0.1102  0.0126 -0.0426
 5373W        W21557   8.773   4.146   4.860 -0.1019 -0.3264 -0.2493
 5374W        W21558  13.270   3.699  14.065  0.1738 -0.0191 -0.0835
 5375W        W21559   6.913  13.092   1.615 -0.1640 -0.0162 -0.0324
 5376W        W21560   0.618  10.085   4.382 -0.0419  0.2994 -0.0388
 5377W        W21561  16.098   4.933  13.057 -0.1071  0.0083 -0.1832
 5378W        W21562   5.769   7.812  12.076 -0.3754 -0.2475 -0.2272
 5379W        W21563   4.963   6.442  13.573 -0.0235 -0.0571 -0.0134
 5380W        W21564   9.337   5.427   4.353  0.0235 -0.0064 -0.0518
 5381W        W21565  13.227   7.112  13.495  0.1277  0.2924  0.0938
 5382W        W21566  15.537  17.644  13.160 -0.0373 -0.1009 -0.1220
 5383W        W21567  18.921   9.564  12.305 -0.2271 -0.0673 -0.1976
 5384W        W21568   7.617  19.122  13.075 -0.0269 -0.1476  0.1975
 5385W        W21569  14.928  17.033   4.791  0.0306 -0.1001 -0.0983
 5386W        W21570   0.706  18.823   2.616 -0.0829 -0.1183 -0.2059
 5387W        W21571  14.347   2.058   3.979 -0.1203  0.3184 -0.3957
 5388W        W21572   4.950   2.859  13.496  0.0307  0.2377 -0.2014
 5389W        W21573  16.974   7.298  13.044  0.1892 -0.1579 -0.0633
 5390W        W21574  12.079   8.698   0.424 -0.0365 -0.1090 -0.0698
 5391W        W21575   3.771  18.305   0.654  0.1392  0.2909 -0.0627
 5392W        W21576   6.920   4.285   4.783 -0.0836 -0.2412  0.0512
 5393W        W21577  17.685   7.276   2.989 -0.0405 -0.1729 -0.1009
 5394W        W21578   5.870  12.675   0.536  0.1558 -0.2075 -0.0915
 5395W        W21579   6.687   6.550   1.714 -0.1210 -0.0866 -0.1775
 5396W        W21580  17.860   6.333  14.904 -0.3386 -0.2173  0.1558
 5397W        W21581  13.627  15.932  10.319 -0.1034  0.3995 -0.2285
 5398W        W21582   1.829   4.649  13.084 -0.1531 -0.0898  0.0433
 5399W        W21583   2.543  18.094   1.648  0.0857  0.0493 -0.0342
 5400W        W21584   8.927  18.382   1.473  0.0269 -0.0473 -0.1756
 5401W        W21585   7.400  10.987   1.319  0.0393 -0.2109 -0.0880
 5402W        W21586   5.069   3.782  13.732 -0.2504 -0.1967 -0.3184
 5403W        W21587   3.901   5.389   5.261  0.0874 -0.3245 -0.1303
 5404W        W21588   4.158   2.861   0.534  0.4897  0.1070  0.0765
 5405W        W21589   9.349  11.347  13.954 -0.0465 -0.1024 -0.0522
 5406W        W21590  14.488   4.329   2.296  0.1371 -0.2567 -0.3533
 5407W        W21591  16.438   5.248   3.874 -0.1615 -0.0425  0.0206
 5408W        W21592  18.160   9.758   1.245 -0.3193 -0.1985  0.3669
 5409W        W21593   3.679  11.937  12.258  0.0400 -0.0331  0.0767
 5410W        W21594  11.312  10.755   0.293 -0.2365  0.1030  0.0273
 5411W        W21595   9.103  11.080  11.970  0.2574  0.1460  0.1519
 5412W        W21596   0.396   9.850  13.572  0.0353  0.1410  0.1419
 5413W        W21597   3.282  18.762   1.667 -0.3621 -0.1481  0.0427
 5414W        W21598   4.433  11.726  11.026 -0.2739 -0.2439 -0.1850
 5415W        W21599  12.494  13.523  11.451 -0.1205  0.0446  0.0925
 5416W        W21600  14.169  12.682   4.425 -0.2186 -0.3451 -0.0405
 5417W        W21601  14.799  14.156   2.485  0.2499 -0.2168 -0.0485
 5418W        W21602  12.015  13.542  11.724 -0.1855 -0.3349  0.0101
 5419W        W21603  11.072   4.932  10.826  0.4312  0.2572 -0.0347
 5420W        W21604  16.806  10.721   1.823 -0.0910  0.0675  0.2751
 5421W        W21605   6.250  18.467   0.194 -0.1324 -0.1291 -0.2206
 5422W        W21606   4.082   2.009   3.450 -0.0554 -0.0771  0.1509
 5423W        W21607  17.176  12.540  10.604  0.2849  0.1021 -0.0149
 5424W        W21608   8.485  10.522   2.989 -0.0742 -0.2100 -0.1825
 5425W        W21609   2.501   1.511   0.476  0.2031 -0.1776  0.2026
 5426W        W21610   7.753  18.215  14.505 -0.1178 -0.0086  0.1262
 5427W        W21611   8.202   2.774   4.637  0.0819  0.1144 -0.3153
 5428W        W21612   1.314  17.532   9.664  0.0333 -0.5595  0.2376
 5429W        W21613  14.620  16.666   3.079  0.3370 -0.1337  0.3837
 5430W        W21614   6.427  16.900  12.862  0.0196 -0.0192  0.0398
 5431W        W21615   8.498   5.954  14.078 -0.0924  0.0826 -0.1169
 5432W        W21616   4.940  19.382   5.253  0.2829 -0.0943 -0.0202
 5433W        W21617  11.030   4.749  12.816 -0.3463 -0.0866  0.0964
 5434W        W21618   2.550   7.535   1.728  0.0963 -0.0073  0.0127
 5435W        W21619  13.660   2.590   5.556 -0.2032  0.0074  0.1886
 5436W        W21620  16.198   8.345   3.332 -0.0138 -0.0680  0.0620
 5437W        W21621   7.844   5.155   3.823  0.1452  0.1293 -0.1064
 5438W        W21622  16.889   0.448  14.458 -0.3522  0.6518  0.1109
 5439W        W21623   7.985   9.703  10.909 -0.2106  0.0029 -0.0325
 5440W        W21624  14.187   3.535  14.718 -0.1468  0.5533 -0.1626
 5441W        W21625  11.058   9.907  10.153  0.0703 -0.1985  0.0429
 5442W        W21626   0.392   9.975  14.867 -0.3180  0.2024 -0.1156
 5443W        W21627   8.829  12.491  12.236 -0.6485 -0.1279  0.1104
 5444W        W21628  11.681   8.762  14.583  0.2074  0.1954 -0.1605
 5445W        W21629  15.268  11.426   1.763 -0.2868 -0.0718  0.3212
 5446W        W21630  12.025   2.249   0.389  0.2504  0.2198  0.1304
 5447W        W21631  17.783  12.892  14.403  0.0588 -0.3551  0.4402
 5448W        W21632   7.857   4.974  11.361 -0.0125  0.2053 -0.0805
 5449W        W21633  13.571  17.694   3.002 -0.0639 -0.0313  0.0643
 5450W        W21634  18.951   0.043   1.430 -0.0569  0.2531 -0.0820
 5451W        W21635  12.977   6.914  11.979 -0.0175 -0.0633  0.2008
 5452W        W21636  14.919  17.221   0.502 -0.0042  0.0455  0.0084
 5453W        W21637  11.437   6.831   2.250  0.2404  0.0924 -0.0301
 5454W        W21638   1.613  16.336   2.110 -0.1088  0.4455 -0.0175
 5455W        W21639  15.693   9.923  12.348  0.0903 -0.0746 -0.1542
 5456W        W21640   8.194  16.627  10.193  0.3047  0.2008  0.1466
 5457W        W21641   7.956   6.340  12.668 -0.4739  0.2234  0.0548
 5458W        W21642   2.971   5.483  13.265  0.1186 -0.1120 -0.1428
 5459W        W21643  18.031  18.128  12.603  0.0762 -0.2095 -0.0368
 5460W        W21644  15.321  13.021  14.777  0.1678  0.1701 -0.1463
 5461W        W21645  16.805  10.663   4.469 -0.2193 -0.1594  0.3244
 5462W        W21646  11.190   8.404   4.329  0.4027  0.2571 -0.1315
 5463W        W21647   3.550  18.839  11.723 -0.1165 -0.0058  0.1361
 5464W        W21648   5.278   5.304   2.945 -0.0134  0.0707 -0.4220
 5465W        W21649  11.269  15.190  14.389  0.2230 -0.2030 -0.0140
 5466W        W21650   5.092  18.203   1.390  0.1633  0.2598  0.1767
 5467W        W21651   1.090  14.719   2.228  0.0049 -0.1201 -0.1249
 5468W        W21652   7.997  13.390   1.957  0.0321 -0.1787 -0.2806
 5469W        W21653  15.555   0.956   9.856  0.0265 -0.1086 -0.1117
 5470W        W21654   0.383   2.054   0.450 -0.0930 -0.1468 -0.1852
 5471W        W21655   1.686   2.636   6.129  0.0709 -0.2359 -0.1014
 5472W        W21656   9.537  12.299  13.921 -0.1551  0.2237  0.2779
 5473W        W21657  10.287   8.159   1.292  0.0759 -0.0862 -0.0714
 5474W        W21658   2.018   4.170  12.796 -0.1058 -0.0030 -0.1826
 5475W        W21659   6.162  10.780   3.482 -0.1569 -0.1078 -0.1719
 5476W        W21660   5.716   1.981  12.235  0.1079 -0.5210 -0.0511
 5477W        W21661   8.656  19.296   4.625 -0.0655 -0.0947  0.1297
 5478W        W21662   3.684   7.508  11.302  0.0479 -0.0371  0.0927
 5479W        W21663  13.690  15.266  14.368 -0.3674  0.1486 -0.1729
 5480W        W21664  17.233  10.114  11.104 -0.2084  0.1859 -0.2099
 5481W        W21665   9.125   4.484   5.071 -0.0312  0.1357  0.3176
 5482W        W21666   6.252   1.066  10.639 -0.0580  0.4021  0.0193
 5483W        W21667   8.151   2.938   0.915  0.0698 -0.0511  0.0551
 5484W        W21668  13.145   7.646  12.817 -0.2328  0.2010 -0.0645
 5485W        W21669  17.118  11.045   0.500  0.0746 -0.0468  0.0360
 5486W        W21670  11.092   1.745   1.190 -0.2349  0.2035  0.0807
 5487W        W21671   5.431   2.965  11.448 -0.0427  0.1202  0.1253
 5488W        W21672   2.023   4.527   1.344 -0.2620  0.0593 -0.0848
 5489W        W21673  14.222  17.615   9.119  0.0848 -0.2623 -0.0279
 5490W        W21674  16.197  15.930  12.241  0.1791  0.3471 -0.1755
 5491W        W21675  16.518  17.200  13.049  0.0077  0.0433 -0.0784
 5492W        W21676   5.225  17.433   3.373 -0.0381  0.2272  0.0904
 5493W        W21677  15.924   1.941  14.551 -0.0576  0.0248  0.1998
 5494W        W21678   3.607  14.683   2.718  0.1624 -0.0581 -0.0034
 5495W        W21679  18.291  12.889  13.211 -0.2870 -0.4651  0.1483
 5496W        W21680   9.964   4.726   4.119  0.1534 -0.1676 -0.0106
 5497W        W21681  11.577   6.677  14.926 -0.0589 -0.2329  0.2049
 5498W        W21682  16.470   6.852  14.914 -0.2741 -0.1848 -0.0049
 5499W        W21683   2.233   7.126  13.341 -0.1014  0.0453  0.1787
 5500W        W21684   2.232   3.662   0.500  0.1567 -0.3200  0.0866
 5501W        W21685   8.114   6.065   4.096  0.1095  0.0212 -0.0425
 5502W        W21686   8.365  18.438  14.762  0.1604 -0.0656  0.0059
 5503W        W21687   9.813  12.261   3.672 -0.0305  0.0493  0.3522
 5504W        W21688  15.888   6.615   9.847 -0.1154  0.0511  0.1072
 5505W        W21689  10.389  11.945  13.487 -0.0557 -0.0049 -0.1535
 5506W        W21690  11.561  12.538  12.807  0.0843  0.0260 -0.4520
 5507W        W21691   3.588  11.568  12.600 -0.1792  0.0607 -0.0548
 5508W        W21692  17.616  12.967  11.830 -0.0476 -0.1220  0.2289
 5509W        W21693   0.554  15.719  10.224  0.2215 -0.0227 -0.2157
 5510W        W21694   4.251  11.223  10.763 -0.3104 -0.1492 -0.0425
 5511W        W21695  14.099   3.540   4.576 -0.2992  0.3988 -0.5338
 5512W        W21696   3.289   9.498   4.173 -0.5165  0.0233  0.1535
 5513W        W21697   1.498  15.868   2.863 -0.1182 -0.1455 -0.0980
 5514W        W21698  16.425  10.178   2.539 -0.0967 -0.0005 -0.0912
 5515W        W21699   4.986   5.599   0.616  0.2576 -0.0852 -0.3180
 5516W        W21700  15.198  13.914   1.708 -0.1387 -0.1728 -0.0329
 5517W        W21701  18.357   5.803   1.732  0.0662 -0.0092  0.0142
 5518W        W21702   7.549  14.435   5.441  0.2265 -0.0633  0.1732
 5519W        W21703  13.044   9.751   3.676  0.2741  0.2447 -0.2738
 5520W        W21704   9.443   1.773  12.209  0.2500 -0.2170  0.0547
 5521W        W21705  18.660  12.917   3.030  0.0006  0.0111  0.0468
 5522W        W21706  11.029   6.588  10.483 -0.0030 -0.0407 -0.0157
 5523W        W21707  15.535  18.731  11.614 -0.0103 -0.0705  0.0291
 5524W        W21708  13.908  10.696  11.723 -0.0716 -0.0722 -0.1137
 5525W        W21709  15.189  18.230   2.425 -0.0077  0.1322  0.1162
 5526W        W21710   4.949  10.509   1.612 -0.1958 -0.2543 -0.0816
 5527W        W21711  14.118  10.528  14.350  0.2852 -0.1641  0.1797
 5528W        W21712  15.772  18.914  13.117  0.1665 -0.1461  0.0241
 5529W        W21713   3.069  13.301   0.845 -0.0846 -0.0367  0.0513
 5530W        W21714   2.374   4.984  14.924  0.0282 -0.0830 -0.1379
 5531W        W21715   9.022  18.757   0.975 -0.0791  0.1897  0.0874
 5532W        W21716   0.345  14.557   3.406 -0.1665 -0.1984 -0.1838
 5533W        W21717  16.919   6.896   5.287  0.1098  0.0632  0.1519
 5534W        W21718  16.179  17.680  10.854  0.1448 -0.0579 -0.1201
 5535W        W21719  15.851   8.977   2.895  0.1939  0.1902 -0.1566
 5536W        W21720  13.166   7.934   1.401  0.2298  0.1102  0.0117
 5537W        W21721  11.957   6.978   3.559  0.2404 -0.2220  0.0542
 5538W        W21722  15.455  10.969   4.638 -0.0703  0.0529  0.1731
 5539W        W21723  14.272   9.585  12.154 -0.1332  0.0760  0.2505
 5540W        W21724   4.992   0.691   0.987  0.2800 -0.3416 -0.0699
 5541W        W21725  13.120   9.875  14.713 -0.0282  0.4199 -0.0118
 5542W        W21726   8.925   8.284  14.468 -0.1823 -0.2186  0.2174
 5543W        W21727   7.014   3.204  14.473  0.2362 -0.1630 -0.0228
 5544W        W21728   5.986  18.107   1.772 -0.2894  0.0276 -0.2098
 5545W        W21729   2.390  13.306  14.466 -0.3095 -0.1558  0.3391
 5546W        W21730   9.368  14.128  10.720  0.3110  0.0933  0.1829
 5547W        W21731  14.748   1.147   4.291 -0.0899  0.2560  0.2150
 5548W        W21732   6.168   4.049   4.207  0.0947  0.1480  0.0659
 5549W        W21733   4.190  18.333  10.602  0.1021 -0.2343  0.3093
 5550W        W21734   7.391  17.268   0.285 -0.0801  0.1370 -0.0750
 5551W        W21735  12.331  16.368   2.898 -0.0915 -0.3105 -0.4092
 5552W        W21736   8.750  17.362   0.009  0.1118  0.0575 -0.0035
 5553W        W21737   6.643   2.039   1.983  0.1664 -0.1647 -0.1669
 5554W        W21738  14.704   0.023   2.088  0.0656  0.2987 -0.1760
 5555W        W21739  13.459  11.107  13.755  0.0730  0.2035  0.2037
 5556W        W21740  16.839   5.467   0.450 -0.1677  0.1079 -0.0621
 5557W        W21741  17.040   5.722  10.819  0.0118  0.3009 -0.1459
 5558W        W21742  16.594   8.422   1.697  0.0523  0.1553 -0.0322
 5559W        W21743   6.591  13.428  11.785  0.3871 -0.1776 -0.2839
 5560W        W21744  11.821  11.758  12.617  0.0773  0.3339  0.1490
 5561W        W21745   3.226  13.569   3.821 -0.0612 -0.2852  0.0051
 5562W        W21746  15.025  18.925  11.692 -0.1330 -0.1494  0.0768
 5563W        W21747  13.223   1.275  11.293 -0.1526 -0.2979  0.0147
 5564W        W21748  17.016  13.763  13.533 -0.1190  0.2726  0.0408
 5565W        W21749  16.979   5.408  13.965  0.0741 -0.0353  0.4608
 5566W        W21750  18.558  13.955  11.346  0.1430  0.1501 -0.2946
 5567W        W21751   5.742  18.830   2.292  0.0526 -0.2293  0.0091
 5568W        W21752   2.112  14.219   2.697 -0.1848  0.0030  0.1548
 5569W        W21753  15.584   6.113   3.643  0.0096  0.2423 -0.4449
 5570W        W21754   4.815   6.271  11.804  0.0430  0.3529  0.2469
 5571W        W21755  19.171   2.970   3.817  0.1208 -0.1870  0.0043
 5572W        W21756  14.921   5.083  10.281 -0.2988  0.0241  0.0176
 5573W        W21757   6.097  11.948   3.241 -0.3497 -0.2520  0.1504
 5574W        W21758  19.166   3.039  14.364  0.1201 -0.1651 -0.2069
 5575W        W21759   7.648   9.661  11.271  0.0279  0.1543  0.3787
 5576W        W21760  14.980  12.927   9.746 -0.1021  0.0889 -0.2599
 5577W        W21761  10.012  15.986  14.831  0.2742  0.1297 -0.0566
 5578W        W21762  10.545  15.106  14.892  0.0219 -0.2047  0.0606
 5579W        W21763  13.641  17.818  11.233  0.0119  0.0594 -0.0372
 5580W        W21764  13.135   3.488   0.127  0.2710 -0.1665  0.3805
 5581W        W21765   2.795  14.328  10.138 -0.0762  0.1764  0.0684
 5582W        W21766   2.331  16.051   1.454  0.0188 -0.2347  0.0812
 5583W        W21767  12.332  14.405   4.076 -0.1016  0.1166  0.1711
 5584W        W21768   2.858   3.274   1.537 -0.1000  0.0780  0.4912
 5585W        W21769  16.788   9.010   9.544  0.1723 -0.1318  0.2170
 5586W        W21770   7.686  16.204   4.211  0.1770  0.0991 -0.0890
 5587W        W21771  10.547   2.793  14.127  0.1705 -0.0639 -0.2633
 5588W        W21772   3.861  17.761  11.702  0.1157  0.1802  0.4836
 5589W        W21773   1.217   2.116   4.826  0.1482  0.2614  0.1317
 5590W        W21774   1.153  15.283   4.337  0.3215 -0.2624 -0.0967
 5591W        W21775   8.122   7.069  12.628  0.1684  0.1254  0.0000
 5592W        W21776  18.470   6.131   4.971 -0.0127  0.0011  0.1039
 5593W        W21777   9.435   7.103  10.571  0.0859  0.1380 -0.1539
 5594W        W21778   4.843   0.223  10.292  0.1575 -0.0079 -0.1850
 5595W        W21779  17.923  11.487  11.053 -0.1649 -0.0137  0.1570
 5596W        W21780  12.946  12.175   3.562 -0.3575 -0.0163  0.0293
 5597W        W21781  11.311  16.922   1.681  0.1053  0.0370  0.0639
 5598W        W21782   8.209   9.696  11.426  0.4753  0.0296 -0.0985
 5599W        W21783  13.567   9.894   3.342  0.0545 -0.0046  0.1835
 5600W        W21784   7.928  15.882   3.182 -0.3369  0.1988 -0.0988
 5601W        W21785   9.919  10.926   0.431 -0.1172 -0.1258 -0.0374
 5602W        W21786   8.920  14.462   2.506  0.2165 -0.0574  0.1813
 5603W        W21787  18.556  14.620   3.259 -0.1192  0.1729 -0.1840
 5604W        W21788   0.449   5.584  14.267 -0.0281 -0.3000 -0.0927
 5605W        W21789   0.671   8.019   0.267 -0.1966 -0.0267  0.2143
 5606W        W21790  19.283  17.451  12.221 -0.2857  0.0276  0.1277
 5607W        W21791   7.073  13.395  10.024 -0.0943  0.2432  0.0733
 5608W        W21792   4.969  18.118  13.127 -0.0875 -0.1023 -0.2551
 5609W        W21793   4.419  14.988   0.371 -0.0934 -0.5189  0.1431
 5610W        W21794  17.291   7.294  13.597 -0.0910  0.0421  0.1531
 5611W        W21795   2.564   2.627   0.510  0.0689  0.0244  0.3745
 5612W        W21796   1.465   7.959  14.406 -0.0647 -0.0220 -0.2447
 5613W        W21797   4.403  11.641  12.195 -0.3393 -0.1518  0.1403
 5614W        W21798   8.399   1.217   4.166  0.0588  0.1366  0.3270
 5615W        W21799  14.812   5.857   1.006 -0.0988  0.0471  0.1559
 5616W        W21800   9.500  19.287  10.647  0.0530 -0.0372  0.0648
 5617W        W21801   4.846   2.533   5.082  0.0162 -0.0004  0.0589
 5618W        W21802   7.822  11.091  11.170 -0.0485 -0.1799 -0.0386
 5619W        W21803   2.027  10.604   3.566  0.0235 -0.1741  0.1128
 5620W        W21804  11.940   6.053  13.199  0.0421  0.0832  0.0985
 5621W        W21805  15.426  18.299  10.625 -0.2309  0.2376  0.0963
 5622W        W21806   0.944  15.315  14.519 -0.2153  0.1598 -0.0105
 5623W        W21807  10.390  14.151  11.839  0.3526 -0.1141 -0.2162
 5624W        W21808   5.953  17.075   2.709  0.0255  0.2124  0.2124
 5625W        W21809  16.947   0.095  11.726 -0.0526 -0.3127 -0.1789
 5626W        W21810  17.994   1.134   3.718  0.4757 -0.0485 -0.1258
 5627W        W21811   8.819   4.945   0.463  0.0642 -0.1204 -0.2848
 5628W        W21812   4.749   8.518  11.493  0.3061  0.0177 -0.1470
 5629W        W21813   8.638  14.374  11.609 -0.2759  0.4819 -0.0491
 5630W        W21814  16.277   8.302  12.915 -0.0727 -0.2233  0.3381
 5631W        W21815   9.011   9.761  11.009  0.1346  0.1877  0.2174
 5632W        W21816  10.419  16.931   0.407  0.0248 -0.0390 -0.2395
 5633W        W21817   7.425  12.669   6.117  0.2144  0.2317 -0.2039
 5634W        W21818  12.702   9.903  10.810  0.4270  0.3627 -0.1717
 5635W        W21819   0.825   6.010   5.346  0.1433 -0.1711 -0.0261
 5636W        W21820   0.713  17.011   5.048  0.0184  0.0164 -0.0950
 5637W        W21821  13.288  16.936  12.702 -0.1665 -0.0322  0.1746
 5638W        W21822   5.743   3.034   1.600  0.0455 -0.0827 -0.2382
 5639W        W21823   7.895   9.223   4.578  0.1064  0.0135 -0.0660
 5640W        W21824  17.233   6.843  13.010  0.1016 -0.1190  0.0016
 5641W        W21825   4.212   3.828   5.562 -0.2248  0.3061  0.4030
 5642W        W21826  16.787   8.010  14.777 -0.1583  0.3304  0.1145
 5643W        W21827  14.801  17.492   1.974  0.2831 -0.0412  0.0140
 5644W        W21828   1.765  19.304  11.229 -0.0571  0.2488 -0.2953
 5645W        W21829  14.342   2.205   2.780  0.0495  0.2402  0.1149
 5646W        W21830   9.006  18.190   0.956 -0.1278 -0.2157  0.1786
 5647W        W21831  15.362   9.541   4.297 -0.1132 -0.0888 -0.0337
 5648W        W21832  14.340   9.199   3.034 -0.0680 -0.0409 -0.0779
 5649W        W21833   1.598  14.796   1.044 -0.1807  0.0992  0.2102
 5650W        W21834   4.323   8.235  11.241  0.1518  0.0713  0.2478
 5651W        W21835  18.626   2.884   0.967  0.1017 -0.0151  0.0595
 5652W        W21836   6.668   2.363  14.228  0.0814 -0.1962  0.2941
 5653W        W21837   7.529   3.275   3.627  0.3954  0.3981 -0.0706
 5654W        W21838  14.175   3.502  10.343  0.0393 -0.0538 -0.2285
 5655W        W21839   4.370  17.375  14.064 -0.0296 -0.2100 -0.0312
 5656W        W21840   2.125  14.884   2.319  0.0443 -0.0825 -0.0844
 5657W        W21841   0.674  13.730   2.232 -0.3183  0.2800 -0.0816
 5658W        W21842   0.452   2.898   0.880  0.0453  0.3916 -0.0332
 5659W        W21843   4.545  13.510   4.403 -0.1174 -0.0552 -0.1795
 5660W        W21844  13.601  18.194  10.837  0.0511  0.0082  0.1034
 5661W        W21845  12.756   4.699  14.722  0.0223 -0.0095 -0.0411
 5662W        W21846   2.649   6.670   3.107 -0.3994  0.1146 -0.1051
 5663W        W21847   7.738   6.759   3.059  0.0439 -0.5220 -0.2027
 5664W        W21848   9.451  16.663  10.107  0.0640  0.2057 -0.3132
 5665W        W21849  15.333  10.149   9.223 -0.0199  0.1543 -0.2065
 5666W        W21850   8.859   9.532   0.369 -0.0018  0.0688 -0.2152
 5667W        W21851   7.459  14.457   3.138 -0.2049 -0.0901 -0.0088
 5668W        W21852  15.060  12.663   0.093  0.1823 -0.0061 -0.0047
 5669W        W21853   0.007   7.507  12.496  0.0493 -0.2250 -0.2073
 5670W        W21854   8.111   7.853  14.819 -0.0406  0.1539 -0.4171
 5671W        W21855   7.165   4.153  11.213  0.0725 -0.3170 -0.1824
 5672W        W21856   2.649  12.061   2.774 -0.0169 -0.1204 -0.2914
 5673W        W21857   4.280  14.216   4.346 -0.2332  0.0201 -0.0685
 5674W        W21858   6.969  18.245  12.996  0.0787 -0.2367  0.2289
 5675W        W21859   4.671  15.874   1.365 -0.1903  0.0774  0.0809
 5676W        W21860  11.839  10.082   3.606  0.0622  0.0091 -0.0824
 5677W        W21861  10.252   0.526   3.674  0.1161  0.1582  0.2067
 5678W        W21862  15.988   7.771  13.625  0.3088  0.0285 -0.1476
 5679W        W21863  14.353  17.372   2.181  0.0806 -0.0211  0.3864
 5680W        W21864  17.408   7.764   1.082 -0.0376  0.0757 -0.2703
 5681W        W21865   3.468   6.617   2.299  0.0840  0.0130  0.2225
 5682W        W21866  18.229   1.786   4.797 -0.0251 -0.1417 -0.1513
 5683W        W21867   3.113  14.046  13.002 -0.2699  0.2116 -0.0553
 5684W        W21868   6.963  11.043  11.265  0.0495  0.1823  0.0726
 5685W        W21869   8.800  14.660   1.149 -0.0768  0.1597 -0.3806
 5686W        W21870   1.419  14.563  14.467  0.0636 -0.0691 -0.2409
 5687W        W21871   5.568  15.628  13.617 -0.3016  0.1921  0.0040
 5688W        W21872  19.337   9.624  11.063  0.4386 -0.1364  0.0676
 5689W        W21873  14.316   7.768  12.761  0.3304 -0.2381 -0.1586
 5690W        W21874   0.509   9.086   0.217  0.0295 -0.0110 -0.0758
 5691W        W21875   7.822  19.249   1.799  0.0547 -0.4711  0.1287
 5692W        W21876  10.763  14.317   1.307  0.2128  0.4248 -0.3392
 5693W        W21877   4.153   7.957   5.093  0.2576  0.1970 -0.2472
 5694W        W21878   1.630   9.933  12.702 -0.2536  0.1868  0.0529
 5695W        W21879  17.719   2.669  11.981  0.3337  0.2259 -0.0427
 5696W        W21880  17.711  14.992   2.101 -0.2265 -0.1292  0.2603
 5697W        W21881  11.658  14.521   2.987 -0.0007 -0.0140 -0.0634
 5698W        W21882   6.004  13.872   0.216 -0.2105  0.2724  0.1326
 5699W        W21883   1.788  13.274   2.826 -0.1480  0.2485 -0.0347
 5700W        W21884  12.045  12.910  13.057  0.0838 -0.1082 -0.4197
 5701W        W21885   3.984  16.628  12.759 -0.0575 -0.2698  0.0325
 5702W        W21886   9.451  18.433  12.808 -0.1874  0.3834  0.0033
 5703W        W21887  15.958   1.479   4.681 -0.2431  0.2835 -0.3281
 5704W        W21888   6.294  15.764  10.668  0.0261  0.1341  0.0155
 5705W        W21889  14.054  12.836  11.724 -0.0535  0.1188 -0.3228
 5706W        W21890   5.528  12.364  13.377 -0.1029  0.0708 -0.1206
 5707W        W21891   0.696   9.556   4.204 -0.0385 -0.1111 -0.0583
 5708W        W21892   3.451  14.091  13.428  0.0065  0.2084  0.0813
 5709W        W21893  11.011  16.567   1.830  0.0518  0.1516 -0.5067
 5710W        W21894  18.729   9.732  13.560  0.0450 -0.0370 -0.1466
 5711W        W21895   3.691   9.607   1.945  0.0651 -0.4240  0.2649
 5712W        W21896   0.372   9.742  11.241  0.2547 -0.0851 -0.0374
 5713W        W21897  16.700  14.928  11.055 -0.0591  0.0179  0.3556
 5714W        W21898  16.187   9.015   0.701 -0.1812 -0.1457 -0.0094
 5715W        W21899  15.345   0.542   4.006 -0.1181 -0.1008  0.0018
 5716W        W21900  16.184  17.473   4.473  0.1893 -0.0363 -0.1084
 5717W        W21901  11.306  16.920   0.749  0.0168 -0.1635  0.2690
 5718W        W21902  17.495   6.806  14.943  0.0715  0.0974 -0.3105
 5719W        W21903  15.175  16.636  13.890 -0.2132  0.2208 -0.0814
 5720W        W21904  11.064   1.073  12.330  0.0686  0.2007  0.1426
 5721W        W21905   5.524  15.547  11.642  0.1247 -0.0925  0.0481
 5722W        W21906  15.456  11.236   0.054  0.2756 -0.0121  0.0591
 5723W        W21907  13.020  13.310  13.788 -0.0580 -0.2889 -0.1087
 5724W        W21908  13.787  19.001   0.292 -0.1084  0.2942 -0.1714
 5725W        W21909  15.368   5.601  14.901  0.2557 -0.0288  0.0864
 5726W        W21910  10.371   0.823   3.272 -0.1907  0.1990  0.0261
 5727W        W21911   2.420  11.906  12.796  0.4818  0.1510 -0.0284
 5728W        W21912  14.055   4.866   2.516 -0.0122  0.3646  0.3547
 5729W        W21913   1.207   7.992   0.871 -0.0980 -0.2393  0.1950
 5730W        W21914   7.656  17.886   0.926 -0.0194 -0.0398  0.0600
 5731W        W21915  19.366   1.073  13.565 -0.0624 -0.0958 -0.1293
 5732W        W21916   4.639   0.159  10.745  0.1140 -0.2555 -0.0139
 5733W        W21917   8.887  18.502  10.394 -0.0229  0.0292  0.1203
 5734W        W21918  10.140  14.851   1.402  0.0361 -0.5741 -0.0099
 5735W        W21919  14.885  12.327  13.017 -0.0167  0.1156 -0.1157
 5736W        W21920  11.698   5.958  12.746  0.0553 -0.2556  0.1958
 5737W        W21921  14.775   9.056  14.498  0.0135 -0.1868 -0.0969
 5738W        W21922   3.833  13.574  13.618  0.0672  0.0226  0.3778
 5739W        W21923   2.125  18.473   2.693  0.1770 -0.0866 -0.0211
 5740W        W21924  17.073   7.987  11.971 -0.0607  0.0118 -0.0194
 5741W        W21925   2.743  16.412  14.457 -0.1141 -0.1081 -0.1243
 5742W        W21926   8.244   8.859   0.147 -0.1891 -0.2197  0.0651
 5743W        W21927   0.157   6.525   0.511 -0.0424  0.1861  0.0021
 5744W        W21928   9.814  11.383   4.241 -0.0255  0.2889  0.1779
 5745W        W21929  18.103   2.721  12.630 -0.0099 -0.2731 -0.2490
 5746W        W21930   1.942   1.709   3.683 -0.0601  0.0373 -0.1819
 5747W        W21931   8.584   1.548   0.914  0.0609  0.1138  0.1476
 5748W        W21932   1.402  14.636   1.567  0.0492  0.1535 -0.0321
 5749W        W21933   1.569  12.901   4.188 -0.3591 -0.0704  0.3381
 5750W        W21934   9.352  14.758  11.269 -0.2240  0.4360  0.0168
 5751W        W21935   1.237   2.461   3.988 -0.0798  0.0390  0.0661
 5752W        W21936  12.860   8.846  11.387 -0.0911 -0.3732 -0.1018
 5753W        W21937   1.464   4.009  13.504  0.2114  0.1752  0.3070
 5754W        W21938   7.902  15.884   1.208 -0.1955 -0.0897 -0.0995
 5755W        W21939  16.200   3.538   0.528  0.0666  0.1587  0.2104
 5756W        W21940   1.515   2.351   2.795  0.1323 -0.0244 -0.0407
 5757W        W21941   1.124   7.013  11.171 -0.0612 -0.0344 -0.3586
 5758W        W21942   4.548   6.837  13.678  0.2538 -0.1399  0.0871
 5759W        W21943  12.341   4.708  12.569  0.0117  0.0673  0.1265
 5760W        W21944   8.682   9.947  11.453 -0.2176  0.1550 -0.3555
 5761W        W21945   1.986  13.611   1.608  0.0089 -0.2123  0.1803
 5762W        W21946   9.781  12.565   1.276  0.0044 -0.2931  0.0182
 5763W        W21947   7.298   2.265  12.985  0.0640 -0.1152 -0.0935
 5764W        W21948  15.736   2.955  14.313  0.0334 -0.0041 -0.0056
 5765W        W21949  12.237   7.215  14.057 -0.0223 -0.1000  0.0996
 5766W        W21950   1.837  10.543  12.529  0.0074  0.3080  0.2750
 5767W        W21951   6.407   2.768   4.588 -0.0345 -0.0210  0.1376
 5768W        W21952   2.658  16.665   3.301 -0.0014  0.3639 -0.3063
 5769W        W21953  10.197  19.258  11.426 -0.0543  0.1385 -0.2980
 5770W        W21954  16.029  11.230   0.250  0.2447  0.0712 -0.0990
 5771W        W21955   8.004  14.267   0.309 -0.0691 -0.1045  0.0206
 5772W        W21956   5.046  15.281  14.197  0.1649 -0.0660  0.0031
 5773W        W21957  18.382  13.566   2.007  0.0495 -0.2208 -0.0142
 5774W        W21958   1.117   0.280  14.070  0.2854  0.1342  0.3002
 5775W        W21959  13.769   4.568   3.545 -0.0131 -0.3080 -0.0302
 5776W        W21960  14.435  18.382  13.385  0.0619 -0.0476 -0.3767
 5777W        W21961   8.238  12.840  10.282 -0.0906  0.0914  0.1495
 5778W        W21962   1.353   9.174  10.197  0.1214  0.2314  0.0258
 5779W        W21963   9.418   1.607  13.321 -0.0795  0.1304  0.2311
 5780W        W21964  11.879   5.549  11.266 -0.1774  0.2360  0.1543
 5781W        W21965   5.990  13.814  12.055  0.4585  0.3041  0.1168
 5782W        W21966  12.198   6.487   4.859 -0.3389  0.2031  0.0881
 5783W        W21967   8.088  15.542   3.744  0.1946 -0.1313 -0.0212
 5784W        W21968  12.341  11.018   3.996 -0.0170 -0.1545  0.1395
 5785W        W21969   1.455   4.917  12.893 -0.0252  0.0624 -0.0638
 5786W        W21970   1.495  15.312   1.012  0.1331 -0.0892  0.1674
 5787W        W21971   3.003   1.365  13.516  0.1155 -0.0655 -0.1564
 5788W        W21972  19.151  11.151   0.628 -0.2527  0.2984  0.1400
 5789W        W21973   1.933  12.033   4.689 -0.0795 -0.1027 -0.3212
 5790W        W21974  18.669  12.037   1.023  0.1648 -0.0959 -0.1177
 5791W        W21975   3.199   5.009  14.705 -0.0494 -0.2107 -0.1299
 5792W        W21976  13.671   1.687  14.330 -0.1818 -0.0220  0.1434
 5793W        W21977  14.791  14.625   0.450  0.0365  0.2506 -0.1129
 5794W        W21978  18.527   1.087   1.908 -0.0670  0.0289 -0.2803
 5795W        W21979  14.953   3.041   9.529  0.2738  0.1680  0.1086
 5796W        W21980  19.263   7.598   2.030 -0.4128 -0.1579  0.0985
 5797W        W21981   5.843  10.532  10.900  0.0853 -0.0301  0.1953
 5798W        W21982  16.743  17.524   3.208 -0.0701 -0.3827 -0.1126
 5799W        W21983   4.609   5.774  11.232  0.3681  0.1325  0.0340
 5800W        W21984  11.420  12.769   4.468  0.1088 -0.0682  0.0285
 5801W        W21985   2.672  17.192   2.272  0.2090  0.0525  0.1384
 5802W        W21986  15.512  11.028   1.550  0.5571  0.0423  0.0265
 5803W        W21987   0.110  12.146   3.309 -0.1883  0.1995  0.1331
 5804W        W21988   5.262   4.891  13.482 -0.3161 -0.1044 -0.0183
 5805W        W21989   6.223  10.776   1.197  0.1445  0.0947 -0.0885
 5806W        W21990  18.219   4.034  10.785 -0.2581 -0.2714 -0.0269
 5807W        W21991  11.769   4.745   0.223 -0.1493  0.0395  0.2248
 5808W        W21992   3.889  16.806  14.804 -0.0208 -0.0656 -0.0137
 5809W        W21993  16.939   8.231   2.486  0.0549  0.0962 -0.0725
 5810W        W21994  13.421  14.746  12.513  0.0092  0.1737  0.1538
 5811W        W21995   7.138   3.428   1.262  0.2166  0.1802  0.4275
 5812W        W21996   1.903  19.158  13.177 -0.1526  0.0678 -0.2198
 5813W        W21997   4.683   7.046   2.858 -0.0488 -0.2172 -0.2247
 5814W        W21998  12.078   6.091   0.090  0.1473  0.0610 -0.2554
 5815W        W21999  13.873  12.210  10.763  0.0910 -0.3858  0.3556
 5816W        W22000  18.684  12.754   2.379 -0.0164  0.0693 -0.0501
 5817W        W22001   9.629   7.720  11.275  0.2467  0.1852  0.1129
 5818W        W22002   6.095  13.081   0.292  0.0947 -0.0013 -0.1759
 5819W        W22003   4.310   8.411   0.547  0.1656 -0.3551 -0.1806
 5820W        W22004  10.635   8.272   3.569  0.1396 -0.1518 -0.3879
 5821W        W22005   4.436   5.988   3.342 -0.0276  0.3206 -0.2270
 5822W        W22006   4.589  17.254  10.497  0.2453 -0.1841 -0.1266
 5823W        W22007   4.726  14.825   5.097 -0.0679 -0.1856 -0.2667
 5824W        W22008  13.414  18.620  13.596  0.1969  0.0731  0.0567
 5825W        W22009  11.838  19.069   3.928 -0.1650  0.0261 -0.0997
 5826W        W22010  11.992   7.255  12.230 -0.0722  0.1025 -0.0555
 5827W        W22011  13.861  13.509  14.807 -0.1872 -0.2599 -0.2225
 5828W        W22012   2.845  12.060   4.687 -0.3024  0.1140 -0.1443
 5829W        W22013   1.669   9.145   0.991 -0.1660 -0.1399  0.2079
 5830W        W22014  15.228   6.380   0.140 -0.1922 -0.0195 -0.0221
 5831W        W22015   2.056   4.029   1.559 -0.3502 -0.1070 -0.2500
 5832W        W22016   8.961   6.717   1.612  0.0808  0.0176 -0.2868
 5833W        W22017  10.841   2.208  10.886 -0.0312  0.0026  0.3148
 5834W        W22018   0.317  12.496   0.226 -0.1255  0.1935 -0.2241
 5835W        W22019  11.445   3.080   4.010 -0.1096  0.0317  0.0312
 5836W        W22020   7.141   6.773   3.246 -0.0818 -0.0376  0.0743
 5837W        W22021   6.274  14.802   0.090  0.1573 -0.0485 -0.0772
 5838W        W22022   4.539  13.631   1.580 -0.1908 -0.0678 -0.1712
 5839W        W22023   2.730  16.180   1.165 -0.1657 -0.2336 -0.0081
 5840W        W22024   1.981   9.377  14.437 -0.1319 -0.0561  0.0217
 5841W        W22025   6.768  14.105  13.522 -0.0041 -0.2996 -0.2221
 5842W        W22026  11.530  15.907   4.169 -0.3066 -0.1218  0.0637
 5843W        W22027   8.704  12.902  13.916  0.0968 -0.2465 -0.0928
 5844W        W22028   6.009  11.914  11.285  0.2567 -0.4265  0.1417
 5845W        W22029   7.461  15.939  12.431 -0.0350 -0.1450  0.1261
 5846W        W22030   7.396   0.926   0.900  0.3583 -0.1558  0.0300
 5847W        W22031  16.637  14.005   1.865  0.2920  0.0920  0.0563
 5848W        W22032   4.372  15.708   0.471 -0.1072  0.3311  0.2369
 5849W        W22033   6.899  17.663   9.982 -0.4070 -0.1065  0.1231
 5850W        W22034  16.772   3.982   0.800  0.0750 -0.0505  0.2592
 5851W        W22035   8.741   7.643  12.270 -0.1347 -0.2533  0.0933
 5852W        W22036   2.206  11.235  11.154  0.3055  0.1196 -0.0051
 5853W        W22037   2.510  15.644   1.172  0.0553 -0.1658  0.0728
 5854W        W22038  15.665  10.481   2.410  0.3976  0.0588 -0.0889
 5855W        W22039   9.238  10.057   3.460  0.3945  0.0807 -0.1266
 5856W        W22040   3.338  10.138  14.067 -0.0115 -0.1109 -0.0813
 5857W        W22041  14.332   0.407   2.020  0.0258 -0.1029 -0.0674
 5858W        W22042   4.268   6.531   2.316 -0.0051 -0.0975 -0.1133
 5859W        W22043  14.687  19.072   0.410  0.0066  0.1459 -0.0374
 5860W        W22044   2.046  16.303  10.718 -0.0825 -0.3392 -0.0454
 5861W        W22045  19.118   5.532  11.938 -0.1690 -0.4115 -0.2519
 5862W        W22046  14.584   8.681  10.220  0.0318 -0.0753 -0.0098
 5863W        W22047  10.713   6.251  13.241 -0.1632 -0.2757  0.0206
 5864W        W22048   2.100  16.758   4.501  0.1832 -0.0976 -0.1300
 5865W        W22049   1.548  10.803   3.473  0.0750  0.2082  0.2758
 5866W        W22050  17.658  15.547   9.309  0.0613  0.1610  0.2298
 5867W        W22051   4.647  18.009   4.471 -0.2804 -0.1421 -0.0678
 5868W        W22052  16.952   6.746   3.512  0.1041 -0.0902  0.3256
 5869W        W22053   6.659   1.547   4.539  0.3950 -0.0326 -0.2089
 5870W        W22054  10.385  16.754  13.383 -0.0105 -0.0686 -0.1421
 5871W        W22055   9.061  13.958  11.108 -0.0934 -0.2941  0.2639
 5872W        W22056  19.149  10.729   3.340 -0.1267 -0.0280 -0.0816
 5873W        W22057  13.525   6.332  11.126 -0.1930  0.1333 -0.2879
 5874W        W22058  18.785  12.583  11.571 -0.1704 -0.2889 -0.1704
 5875W        W22059  16.941  19.027   0.784 -0.1298  0.1101 -0.0973
 5876W        W22060   7.805  13.820   4.820  0.2550 -0.1902  0.0046
 5877W        W22061  15.414  14.656   0.903  0.0903  0.1384 -0.2243
 5878W        W22062   1.456  12.047   4.789  0.1379 -0.2671  0.1131
 5879W        W22063  10.328  19.240   0.402  0.2421  0.1604  0.0138
 5880W        W22064  15.645  13.450   8.883 -0.3334 -0.2308  0.2632
 5881W        W22065  14.573  18.640  13.900 -0.0223 -0.1290 -0.0655
 5882W        W22066  10.384  19.202   5.171  0.1448 -0.3218  0.1480
 5883W        W22067  12.949   8.686  13.183  0.0250  0.1155  0.2687
 5884W        W22068   8.152   8.103  13.306 -0.0795  0.1123 -0.3304
 5885W        W22069   0.225  14.643   1.435  0.3772  0.3565  0.0358
 5886W        W22070  13.161  11.205   2.554  0.0291  0.1428  0.0195
 5887W        W22071   2.212  10.959  10.440  0.2218 -0.1947 -0.1675
 5888W        W22072   6.548   6.708   2.177  0.1192  0.0043  0.0272
 5889W        W22073  15.891  17.704  12.741 -0.2890  0.0381  0.2883
 5890W        W22074   7.800   7.120  13.610 -0.0874 -0.2088  0.4169
 5891W        W22075  19.123   7.137   2.212  0.0037 -0.2540  0.0361
 5892W        W22076   4.985  12.317   1.651  0.3032 -0.3993  0.0216
 5893W        W22077   9.001  16.679   1.022 -0.2762 -0.2577  0.2208
 5894W        W22078   0.017   4.474   0.128  0.1069  0.0795  0.1988
 5895W        W22079   0.367  17.182   1.642 -0.1348 -0.0482  0.2710
 5896W        W22080   9.842  18.919  11.415 -0.0693 -0.2536 -0.0908
 5897W        W22081   6.702   2.400   4.795 -0.6265 -0.2105 -0.0865
 5898W        W22082  13.271  18.759  11.659  0.0568  0.3269  0.0205
 5899W        W22083   7.464  10.441   0.646 -0.2340  0.0961  0.0731
 5900W        W22084  17.620  17.188   5.273 -0.0179 -0.3346  0.0502
 5901W        W22085   5.775   8.560   3.002  0.1626 -0.1626  0.1417
 5902W        W22086  18.677  19.373  12.101 -0.6122 -0.0760 -0.1744
 5903W        W22087   7.086  12.212   0.612 -0.3700 -0.0715  0.2258
 5904W        W22088  15.639   4.937   3.401 -0.2675 -0.3991  0.1614
 5905W        W22089  18.654  18.696  11.380 -0.3916  0.1821  0.1167
 5906W        W22090  17.319   0.759  14.542  0.1804  0.1230 -0.2460
 5907W        W22091   4.146  18.586  13.342  0.0977 -0.2998 -0.1006
 5908W        W22092  14.455  16.916   0.138 -0.1544  0.2254  0.1609
 5909W        W22093  12.070  13.392   1.584 -0.1482  0.0351  0.2130
 5910W        W22094  13.390  11.593   0.623  0.2823  0.3415  0.2328
 5911W        W22095   7.394  17.191   0.786  0.2086 -0.2680 -0.4723
 5912W        W22096  18.668   3.155  11.647  0.0608 -0.4628  0.0953
 5913W        W22097   7.651   0.556   2.068 -0.5071  0.0292  0.2469
 5914W        W22098  17.821   6.765   2.598  0.1592 -0.3107  0.3207
 5915W        W22099   0.623  11.562  12.582  0.1029  0.0015 -0.1498
 5916W        W22100   6.525   8.453  13.762  0.0687  0.0268 -0.1389
 5917W        W22101   8.779  10.848  12.386  0.1604  0.1787 -0.1869
 5918W        W22102   4.176  12.590  12.503 -0.0052 -0.2080  0.2355
 5919W        W22103   6.562   6.958  11.843 -0.2465  0.1368  0.1601
 5920W        W22104   7.483  13.087  14.318 -0.0200  0.0485 -0.0169
 5921W        W22105  17.997   5.703  10.570  0.1662  0.1866 -0.0805
 5922W        W22106  11.104   8.430  10.510 -0.3625 -0.0355  0.0090
 5923W        W22107   3.526   5.490   3.053 -0.2360  0.0709 -0.2294
 5924W        W22108   6.852   2.744  11.170 -0.2362 -0.0994  0.0555
 5925W        W22109   7.445  15.255   0.114 -0.1718  0.0674 -0.2234
 5926W        W22110  15.302   2.552  10.528 -0.4118 -0.2406  0.0360
 5927W        W22111   0.124   8.743   0.304  0.0523 -0.0735  0.1434
 5928W        W22112   0.434  14.638   4.608 -0.0575 -0.1396 -0.0862
 5929W        W22113  11.872   6.681   1.973  0.2364 -0.0284 -0.2029
 5930W        W22114  16.971  11.186   0.051 -0.2125  0.2635  0.0104
 5931W        W22115   2.021  17.826   3.606 -0.2284  0.0116  0.0892
 5932W        W22116   6.380   0.232   0.269  0.0163  0.0552 -0.0507
 5933W        W22117  10.890  17.418   2.030 -0.1463  0.0883  0.2377
 5934W        W22118   4.886  12.985  14.921  0.1264 -0.0828  0.2237
 5935W        W22119   7.160  13.423   2.726 -0.3996 -0.3114 -0.0257
 5936W        W22120   8.649   4.552  12.097  0.0499 -0.4635  0.1873
 5937W        W22121   5.800  16.144  11.877  0.1686 -0.0100  0.3199
 5938W        W22122  10.533   8.707  11.279 -0.0123 -0.2762 -0.4147
 5939W        W22123   2.916   7.750  13.406  0.2133 -0.1257 -0.0322
 5940W        W22124   9.083   5.260   2.698 -0.0344  0.1271  0.1684
 5941W        W22125   6.051  14.696  12.073 -0.1715 -0.0184  0.0049
 5942W        W22126   4.123  12.149   2.706 -0.2363 -0.3626 -0.3316
 5943W        W22127  18.405   8.102  13.046  0.1288 -0.3160 -0.2739
 5944W        W22128   4.436  17.720   1.019 -0.0671  0.0124 -0.0709
 5945W        W22129  17.066   2.927  12.408  0.2495  0.2282 -0.1027
 5946W        W22130  17.142  19.183   2.182 -0.1709  0.1254  0.0233
 5947W        W22131   4.664   2.066   1.958 -0.0157 -0.7266 -0.1214
 5948W        W22132  10.489   0.908   1.319 -0.2304  0.0477  0.1452
 5949W        W22133   4.114   1.724  12.113  0.0120 -0.0061 -0.2501
 5950W        W22134  19.165   5.286   3.194  0.1185 -0.0478 -0.2695
 5951W        W22135  19.111   0.558   3.172  0.2166  0.3061 -0.1835
 5952W        W22136  14.634  12.363  14.292  0.0069  0.3232 -0.0202
 5953W        W22137  15.069  11.602  14.221  0.2622  0.1639 -0.0345
 5954W        W22138   9.301  16.787  11.876  0.0295 -0.0249 -0.2955
 5955W        W22139   6.354  14.378   3.965  0.1573 -0.1154 -0.2164
 5956W        W22140   4.902   8.001  13.098  0.1297 -0.2339  0.1209
 5957W        W22141  12.235  11.895   1.184  0.1231  0.0646 -0.0214
 5958W        W22142   3.990  18.429   2.804  0.0797 -0.0804  0.0936
 5959W        W22143  14.595   0.802   0.376  0.1369  0.0618 -0.2396
 5960W        W22144   1.070   6.567  11.453 -0.2259  0.2165  0.3241
 5961W        W22145  10.461  13.441   0.981  0.3180  0.2064  0.4481
 5962W        W22146   1.162  19.144  14.703 -0.0579  0.0951  0.2875
 5963W        W22147  18.919  14.416   4.061 -0.0806  0.0199  0.1824
 5964W        W22148   7.725   2.211   2.483  0.0081 -0.1565  0.1972
 5965W        W22149   8.755  16.484  13.954 -0.4178 -0.6195 -0.0713
 5966W        W22150   0.897   4.024   2.263  0.2645 -0.0343  0.1548
 5967W        W22151  17.778   8.061   3.149 -0.0152  0.0606 -0.1291
 5968W        W22152  15.799   4.174  11.404  0.4413 -0.0273 -0.2688
 5969W        W22153  16.070   0.023  10.583  0.1651 -0.2674  0.2637
 5970W        W22154  18.727   2.403  14.934 -0.2858 -0.1407 -0.0412
 5971W        W22155  12.537   6.322  11.992 -0.0548 -0.0485 -0.0658
 5972W        W22156   1.886   8.910   5.583 -0.2033 -0.0029  0.0372
 5973W        W22157   0.907  12.627   2.971 -0.0608 -0.3240  0.0737
 5974W        W22158   5.057  12.856   0.930 -0.0126 -0.1960 -0.2909
 5975W        W22159   5.423  13.457   2.132 -0.1173 -0.0513  0.1990
 5976W        W22160  12.050   7.326   9.552 -0.3993 -0.0046  0.1004
 5977W        W22161   7.771   8.911  12.970 -0.1086  0.1941  0.4842
 5978W        W22162  10.706  11.141   0.962 -0.2554  0.0496 -0.2618
 5979W        W22163   8.311   0.605  13.185  0.1545  0.1034 -0.1130
 5980W        W22164  16.477  15.562  14.451 -0.2994 -0.1205  0.2301
 5981W        W22165   9.222   3.607  12.007 -0.1690 -0.1638 -0.2494
 5982W        W22166  15.658  16.525  14.474  0.0645 -0.0468 -0.2029
 5983W        W22167   6.440   4.409  14.804 -0.1027  0.0257 -0.0200
 5984W        W22168   6.902  18.609   3.878  0.0965 -0.4521 -0.3321
 5985W        W22169  15.288  15.317   0.345 -0.0080  0.1867 -0.0363
 5986W        W22170   9.393   0.455   4.492 -0.0926  0.0276 -0.0606
 5987W        W22171  17.811   9.644  11.987 -0.4317  0.4154  0.0054
 5988W        W22172   5.311   6.670   5.335  0.2564  0.0207  0.0745
 5989W        W22173   7.226  17.703   8.814  0.2608  0.0427 -0.0246
 5990W        W22174   3.260  11.416  12.957 -0.0241 -0.4768  0.0194
 5991W        W22175  16.077   6.072   0.231  0.1400 -0.2372 -0.1725
 5992W        W22176  15.132  15.143  14.318 -0.1259  0.0342 -0.2370
 5993W        W22177  18.667   0.972   3.732 -0.1482  0.1151 -0.1367
 5994W        W22178   0.132   2.605  10.940  0.1859 -0.2942 -0.6154
 5995W        W22179   7.055   6.017   5.487 -0.1348 -0.3452  0.1541
 5996W        W22180   7.585  13.306  13.267 -0.2806 -0.0507 -0.0126
 5997W        W22181  15.005  15.645  13.618 -0.1217  0.0931 -0.2759
 5998W        W22182   8.644   6.653  10.795  0.0316 -0.0434  0.0235
 5999W        W22183  10.246  18.091  11.182  0.1830 -0.1700  0.0285
 6000W        W22184  16.875   2.573   1.137  0.0594  0.1116  0.1772
 6001W        W22185   9.237  16.468  13.683  0.1852 -0.0219  0.1400
 6002W        W22186   1.623   8.631   4.171 -0.1885  0.0918  0.0684
 6003W        W22187   3.786   8.989   4.974  0.5950 -0.0020 -0.0853
 6004W        W22188   3.838   4.934   2.399 -0.0019 -0.0765 -0.0203
 6005W        W22189   7.098   2.174   4.469 -0.1173 -0.1170 -0.2993
 6006W        W22190   8.170  12.562   0.645  0.1337  0.0462  0.4281
 6007W        W22191  16.446  10.222  11.662  0.0118  0.1637  0.1564
 6008W        W22192   9.050  15.660   1.104 -0.2633  0.0801 -0.0324
 6009W        W22193  14.008  17.143  13.899 -0.0312  0.0388 -0.0181
 6010W        W22194  16.783   7.621  13.607 -0.0004  0.0178  0.1352
 6011W        W22195  12.629   2.622  14.570 -0.1286 -0.1625  0.0964
 6012W        W22196  16.058  17.931   4.043  0.2598  0.0850 -0.1587
 6013W        W22197  14.525   5.711   3.462 -0.1438  0.0635  0.0359
 6014W        W22198  13.769  17.980   2.597  0.2099 -0.1273  0.1849
 6015W        W22199   8.693  18.847   4.366 -0.2574 -0.0478 -0.0302
 6016W        W22200  10.458  16.176  13.229 -0.0909  0.2311  0.0148
 6017W        W22201  12.792  14.728  10.035  0.0155  0.3890 -0.2030
 6018W        W22202  11.517   8.264  11.354  0.0685 -0.1216  0.1659
 6019W        W22203  17.884  11.592  13.520 -0.3362  0.1698  0.2841
 6020W        W22204   8.921  16.312  10.187 -0.0030  0.3405 -0.1788
 6021W        W22205   6.117   9.492  12.270 -0.0097  0.0840  0.2481
 6022W        W22206  10.540   1.402   1.492 -0.2344 -0.1705  0.0789
 6023W        W22207   3.685  19.284   0.350 -0.1516 -0.1094  0.1487
 6024W        W22208   8.135   2.142   2.939 -0.3037  0.2096 -0.4060
 6025W        W22209   3.685  16.874  13.099  0.3155  0.1233  0.0538
 6026W        W22210   0.491  15.763  13.207  0.3136  0.0554  0.4306
 6027W        W22211  13.506  11.567   2.512  0.1049  0.0070 -0.1336
 6028W        W22212  15.113  18.757   3.496 -0.0499  0.2291  0.1373
 6029W        W22213   5.577  15.277   2.293  0.0654  0.0657 -0.1539
 6030W        W22214   5.206   7.350   4.895  0.3470 -0.1973 -0.3330
 6031W        W22215   9.504  15.377   0.860 -0.2209 -0.1511  0.2849
 6032W        W22216   9.242   4.348   2.010 -0.0133 -0.0231  0.0699
 6033W        W22217   7.079   4.508   4.295 -0.0208  0.3654  0.0044
 6034W        W22218   5.051   9.232  14.726  0.0894  0.1989  0.0911
 6035W        W22219   1.291   3.767   5.513 -0.0663  0.1412 -0.2349
 6036W        W22220   3.395  17.772   5.252  0.0369 -0.0545  0.2476
 6037W        W22221   1.306   5.932   1.860 -0.0022  0.4981 -0.0090
 6038W        W22222   8.758  13.243  11.417 -0.0578  0.1992  0.0586
 6039W        W22223   4.947   0.736   4.122  0.1459  0.1233  0.1413
 6040W        W22224   4.767   9.802  13.393  0.0278 -0.2592  0.1252
 6041W        W22225   7.401  11.563   2.725  0.0498 -0.1868  0.0338
 6042W        W22226   5.928  15.824  11.392 -0.4379  0.0065  0.1413
 6043W        W22227  10.041  13.100   2.147 -0.1597 -0.1780  0.1634
 6044W        W22228  17.147  18.544   0.729  0.2367  0.2624 -0.0484
 6045W        W22229  18.299  18.813  10.604  0.2585  0.0846  0.4417
 6046W        W22230   8.468  18.846  11.216 -0.2024  0.5524  0.3932
 6047W        W22231  12.787   2.985   5.483  0.0275  0.0392  0.0200
 6048W        W22232   1.136   0.001   2.448 -0.0676  0.0026 -0.1525
 6049W        W22233  11.826   7.901   9.380  0.1727  0.1770 -0.3822
 6050W        W22234  18.936   6.381  14.786 -0.2305 -0.2615 -0.1775
 6051W        W22235   3.608  12.124   5.087 -0.2119  0.0787 -0.0057
 6052W        W22236   0.472   3.152   0.446 -0.2415 -0.1755 -0.1091
 6053W        W22237   9.043   7.103   3.843 -0.0030 -0.1509 -0.0679
 6054W        W22238  12.378  14.042   2.490 -0.0193  0.0628 -0.1465
 6055W        W22239   1.993   7.572  13.400  0.0870  0.1578  0.2530
 6056W        W22240   0.132   3.698   4.056 -0.3149  0.2777  0.1195
 6057W        W22241   8.737  17.643   4.098 -0.0469  0.1583  0.2781
 6058W        W22242   7.853  11.342  10.586  0.1013  0.1757  0.1291
 6059W        W22243   9.320  11.022   0.536  0.0345 -0.0464  0.0643
 6060W        W22244  10.980  11.319  13.839 -0.1505 -0.2593  0.3199
 6061W        W22245  12.996  17.527  11.083 -0.0180  0.4573 -0.2358
 6062W        W22246   7.458  11.668  11.855 -0.0724  0.1993 -0.2913
 6063W        W22247   1.738  18.605   5.260 -0.2408 -0.1217  0.1897
 6064W        W22248   9.792   3.547   1.464  0.3972  0.0972 -0.1811
 6065W        W22249  18.150  11.996   0.220  0.3050  0.1484 -0.2491
 6066W        W22250  16.088  15.850   3.831  0.2615  0.1061 -0.0296
 6067W        W22251  17.776   8.712   1.197  0.1764  0.1064 -0.2065
 6068W        W22252  10.989  18.032   4.019  0.3266  0.1091  0.2697
 6069W        W22253   7.192  15.049  12.044 -0.1920  0.5188 -0.0849
 6070W        W22254   4.172   8.808  12.023  0.0762 -0.0667 -0.1612
 6071W        W22255  17.205  12.250  11.225  0.0248  0.2225 -0.1860
 6072W        W22256  15.923  10.640   3.705 -0.1015 -0.1748  0.1858
 6073W        W22257  16.252   4.649  10.795  0.1777  0.2441 -0.1506
 6074W        W22258   7.560   9.022   0.628  0.0589  0.2379 -0.0948
 6075W        W22259  18.825   8.076  13.871  0.2588  0.0734 -0.2432
 6076W        W22260  15.928   4.262   1.716 -0.3297  0.0873  0.0705
 6077W        W22261   7.225  15.068   5.076 -0.0829  0.0390 -0.1712
 6078W        W22262  16.214   4.580  14.038 -0.0196 -0.0714  0.0447
 6079W        W22263   9.776   0.183  11.355  0.2898  0.0266 -0.0437
 6080W        W22264   5.506  12.276   5.247  0.0396 -0.0705  0.1759
 6081W        W22265  17.128   0.653   2.469  0.1028  0.2512 -0.1557
 6082W        W22266  17.799   0.884   3.259  0.0685  0.0565 -0.0772
 6083W        W22267  13.170  14.105  14.386  0.1154  0.1252  0.0356
 6084W        W22268   4.010  14.402   1.116  0.2934 -0.0211 -0.0825
 6085W        W22269   2.941   0.719   1.774 -0.0940 -0.0411  0.1950
 6086W        W22270   0.732   1.952   3.124  0.0894  0.0038 -0.1764
 6087W        W22271   6.722  14.937  11.671 -0.3086  0.0977  0.4677
 6088W        W22272  16.193   1.879   9.871  0.2272 -0.1269  0.2196
 6089W        W22273   2.767  13.663  12.874  0.1766  0.0173  0.0604
 6090W        W22274  12.380  11.132   3.113 -0.0559 -0.0286  0.0680
 6091W        W22275   5.337   3.471  11.493  0.0820  0.2930  0.0683
 6092W        W22276   3.071   1.450  14.822  0.3305  0.1249  0.2086
 6093W        W22277  15.381  18.095   3.216 -0.1497 -0.1199  0.1434
 6094W        W22278   2.557   9.047   0.332  0.0111 -0.6787  0.1236
 6095W        W22279  14.698  18.019   1.389  0.1231 -0.5125 -0.0179
 6096W        W22280  16.937   4.209  10.164 -0.1972  0.2141 -0.0262
 6097W        W22281  14.355   3.956   1.886 -0.1322  0.0394  0.1045
 6098W        W22282   3.564  15.267   0.874  0.1123 -0.4045 -0.2784
 6099W        W22283  19.368   7.525  13.975 -0.0432  0.0039  0.1907
 6100W        W22284   8.270   0.056  10.892  0.0544 -0.2117 -0.1659
 6101W        W22285   1.723   3.362  12.000  0.0899  0.1938  0.0706
 6102W        W22286  19.130   3.641   1.211  0.2708 -0.4448 -0.1721
 6103W        W22287  15.327  18.271  14.327  0.2789  0.1038  0.1453
 6104W        W22288  18.303   3.098  13.286  0.1951 -0.2337 -0.2163
 6105W        W22289  10.047   9.496   5.313  0.1029 -0.1324 -0.0639
 6106W        W22290   5.588  14.071   2.438 -0.2900  0.0574  0.3397
 6107W        W22291  10.613   1.854  13.811  0.1794  0.0154 -0.3536
 6108W        W22292  11.373   1.994  12.137  0.1700 -0.0873 -0.0147
 6109W        W22293   4.240  12.457   4.176  0.0267  0.0795  0.2159
 6110W        W22294  11.262   0.220   0.305  0.0720  0.0253 -0.1102
 6111W        W22295  10.668  18.337   0.048 -0.1411 -0.2728  0.2287
 6112W        W22296  16.332  14.724  13.393 -0.3402  0.0084 -0.2479
 6113W        W22297   9.764   6.489   0.930  0.0312 -0.1339  0.0923
 6114W        W22298  10.312  16.731  14.439  0.1013 -0.0608  0.0250
 6115W        W22299  14.342  10.956  11.810 -0.2116 -0.0770 -0.0872
 6116W        W22300   2.399   2.943  13.178 -0.1295  0.1001 -0.5836
 6117W        W22301   4.545   8.518   1.637  0.4536 -0.2084  0.2588
 6118W        W22302  13.237   9.052  12.567  0.0696 -0.0981  0.0818
 6119W        W22303  10.300   5.490  11.703 -0.0602  0.0649 -0.0102
 6120W        W22304  17.302  10.947   1.762  0.0470 -0.1532 -0.2155
 6121W        W22305  11.610   2.349   9.883 -0.2547 -0.2974  0.0988
 6122W        W22306  17.161  11.619   0.285  0.0283 -0.0051 -0.2591
 6123W        W22307  12.126   5.257  12.439 -0.2043 -0.3029  0.2247
 6124W        W22308   9.319  19.262   0.262  0.2034 -0.1099 -0.4690
 6125W        W22309   0.156   9.695  12.728 -0.0681 -0.1525 -0.0642
 6126W        W22310  16.075   5.294   2.664 -0.0572 -0.1249  0.0646
 6127W        W22311  18.562   9.094   5.072  0.0700  0.0329 -0.0994
 6128W        W22312   0.980   3.639   4.258 -0.3123  0.0901 -0.3490
 6129W        W22313   4.037  11.456   1.731  0.0205 -0.2507  0.0918
 6130W        W22314   1.755   1.288   4.878 -0.1178 -0.1875 -0.2721
 6131W        W22315   7.131   8.873  14.295 -0.3129 -0.1756  0.2830
 6132W        W22316   5.245   4.654   4.380  0.0898 -0.3710 -0.0704
 6133W        W22317   6.034   9.778   1.492 -0.3610  0.1550  0.6368
 6134W        W22318  13.879   6.781   2.704  0.1431 -0.0863  0.2917
 6135W        W22319   1.190  11.060  11.807 -0.0734  0.2904  0.3325
 6136W        W22320  14.747   0.413  13.680 -0.2285 -0.0467  0.1536
 6137W        W22321  16.737   2.315   2.358 -0.3538 -0.0661  0.4321
 6138W        W22322   3.900  10.799  11.635  0.1307  0.1349 -0.0980
 6139W        W22323   6.049   0.883  13.551 -0.4611 -0.2202  0.0124
 6140W        W22324  18.902   0.530   0.549  0.0683  0.1519  0.1514
 6141W        W22325  18.137  10.752  14.200  0.2538  0.2341  0.1302
 6142W        W22326   2.491   9.711  13.780 -0.2216 -0.0948  0.2955
 6143W        W22327   6.853   2.104  11.363  0.0778 -0.0700  0.0027
 6144W        W22328   9.079  11.751   4.319  0.2446  0.1299  0.1886
 6145W        W22329  12.633  15.130  12.102 -0.2731  0.0300  0.1654
 6146W        W22330  15.675   1.157   0.820  0.0962  0.3580 -0.0646
 6147W        W22331   0.890   1.035  14.483 -0.3549 -0.0535 -0.2393
 6148W        W22332  14.610  17.056   3.425 -0.1097 -0.1082 -0.1273
 6149W        W22333  10.721  15.855  10.559 -0.1009  0.4293  0.3872
 6150W        W22334  19.267   5.347  13.937 -0.0835 -0.5499 -0.2791
 6151W        W22335  11.298   0.104   9.121 -0.2062 -0.2621  0.0143
 6152W        W22336  13.978  16.869  10.365  0.1802  0.2269 -0.0174
 6153W        W22337   2.826  18.734   4.379 -0.0543 -0.0892  0.0502
 6154W        W22338   1.332   1.156   2.340  0.0256  0.0159 -0.3983
 6155W        W22339  10.069  12.886  13.529 -0.2363 -0.1221 -0.0342
 6156W        W22340  14.363  11.183   4.434  0.1013 -0.1354 -0.1687
 6157W        W22341  12.269   3.922  13.114 -0.1889  0.2709  0.1931
 6158W        W22342   7.678  10.968   1.756 -0.2117  0.0764  0.1671
 6159W        W22343   2.913   1.263   0.431  0.0591  0.1281  0.1456
 6160W        W22344   2.517   1.740  11.288 -0.1599 -0.0807 -0.1534
 6161W        W22345  11.006   6.336  11.999  0.0295 -0.2682 -0.1097
 6162W        W22346  13.848   0.547  11.049 -0.1083 -0.0727 -0.0089
 6163W        W22347  17.985   1.035   4.443 -0.1334 -0.0503  0.0846
 6164W        W22348  13.858  15.606   1.726 -0.1155  0.1702 -0.0541
 6165W        W22349   5.201   1.024   5.541  0.0649  0.3916  0.5015
 6166W        W22350   3.997  14.763  10.311  0.3493  0.1441 -0.1116
 6167W        W22351  10.495   7.903  11.339  0.1955  0.1271  0.1528
 6168W        W22352   3.232   3.335   4.681  0.2250 -0.5227  0.1110
 6169W        W22353  16.597  11.945  13.126  0.0748  0.0618 -0.0460
 6170W        W22354  18.377  12.693   1.239 -0.3412 -0.3170  0.1216
 6171W        W22355   8.214  16.604   0.349  0.3304  0.1165 -0.0843
 6172W        W22356  14.651  14.010  12.180 -0.2770 -0.0884  0.3931
 6173W        W22357   2.717  12.411   3.143  0.2207 -0.0873  0.1046
 6174W        W22358  13.825  15.192   5.557  0.0008  0.1460 -0.3380
 6175W        W22359  11.364  17.382  12.162 -0.1812  0.1201 -0.3146
 6176W        W22360  19.226   6.236   2.220  0.2318  0.2237 -0.3596
 6177W        W22361  12.377   1.334   2.626 -0.1098 -0.0769 -0.1253
 6178W        W22362   7.708   0.165  11.441  0.0559  0.0373 -0.3214
 6179W        W22363   0.764  15.241  10.326  0.1139 -0.0376  0.0651
 6180W        W22364  14.243   0.221   3.003  0.0329 -0.2783 -0.0805
 6181W        W22365   2.594   9.847   2.976 -0.0304  0.1872 -0.3088
 6182W        W22366  14.312   7.284  13.658 -0.2480  0.1997  0.2732
 6183W        W22367   7.939  11.302  14.904 -0.2062 -0.2172  0.1039
 6184W        W22368   9.930   4.071  11.895  0.1351 -0.3410 -0.0853
 6185W        W22369  13.000   7.590  10.604  0.0045  0.0267  0.0256
 6186W        W22370   9.885  17.024  14.500 -0.3252  0.3528 -0.1047
 6187W        W22371   4.637   9.972  13.846 -0.0242 -0.4401 -0.0740
 6188W        W22372   6.226  11.615   4.131  0.1582  0.2711  0.0743
 6189W        W22373   4.668  15.701   0.913 -0.1937 -0.0893  0.4252
 6190W        W22374  12.631   2.698   0.563  0.0085 -0.5116  0.0465
 6191W        W22375   8.492  18.638   1.134 -0.1767 -0.0746  0.3714
 6192W        W22376   0.370   0.982   0.603 -0.1235  0.1699 -0.0039
 6193W        W22377  19.059  15.320  13.586 -0.2995  0.0205  0.2321
 6194W        W22378  15.628   3.165  13.453  0.3646  0.2145 -0.1595
 6195W        W22379  11.614   0.384  11.576 -0.1287 -0.2821  0.1202
 6196W        W22380   6.094   7.097  10.397 -0.1980 -0.5120 -0.0680
 6197W        W22381   4.557  18.131  12.453 -0.2387 -0.1859 -0.2331
 6198W        W22382   9.173   9.994   4.965 -0.1963 -0.1401 -0.2119
 6199W        W22383  17.709   6.890  11.242  0.1760  0.0933  0.1832
 6200W        W22384   1.076  18.104  14.286  0.1452  0.3371  0.0226
 6201W        W22385   4.073  10.705  13.609  0.1331 -0.1550 -0.0967
 6202W        W22386  10.823   3.977  13.524  0.3740 -0.1996 -0.4071
 6203W        W22387   8.438  10.643  11.669 -0.1072  0.0919 -0.1094
 6204W        W22388  13.164  14.560  11.214  0.3075 -0.1406  0.1226
 6205W        W22389  11.959   6.548  12.191  0.1915 -0.1507 -0.2419
 6206W        W22390   7.955  19.032   2.299  0.0072 -0.0187  0.0714
 6207W        W22391  13.828   6.471  13.125  0.1313  0.3676 -0.0997
 6208W        W22392  13.527  16.068  10.797 -0.1274  0.0486 -0.0030
 6209W        W22393   8.809   3.703  14.939 -0.0613 -0.0892  0.2965
 6210W        W22394  10.186  19.255   0.902  0.0901 -0.0318 -0.1499
 6211W        W22395   6.319   5.629   3.953 -0.1039  0.0059 -0.0212
 6212W        W22396   7.897  16.138  10.554 -0.2294  0.2742  0.0199
 6213W        W22397  15.784  10.592  10.338 -0.2695 -0.1702  0.1770
 6214W        W22398  10.243  18.223  10.603  0.2573  0.1342 -0.1938
 6215W        W22399  16.087  18.511  14.637 -0.2244  0.2820  0.4798
 6216W        W22400   0.175   9.157   1.076  0.1593 -0.5330 -0.2368
 6217W        W22401  13.222   9.014   0.271 -0.0786  0.1876  0.0800
 6218W        W22402  17.168  16.374   1.441 -0.1551 -0.0054  0.0027
 6219W        W22403  13.413   3.033  10.713  0.3715 -0.0000 -0.0953
 6220W        W22404  11.430   8.956   4.412 -0.0447  0.0468  0.1099
 6221W        W22405   6.162   8.989   3.246  0.2399  0.0675  0.0073
 6222W        W22406   3.588  13.942   0.987 -0.1807 -0.0490 -0.1167
 6223W        W22407   0.117   6.847   3.795  0.0065 -0.1151 -0.2457
 6224W        W22408   9.376   8.435  14.713  0.0032 -0.2650 -0.4441
 6225W        W22409  12.631  14.949  10.518 -0.3731  0.0255  0.5050
 6226W        W22410  12.003   5.482  11.859 -0.1395 -0.0967 -0.0426
 6227W        W22411   7.671  15.707  14.922  0.4117 -0.0615 -0.1643
 6228W        W22412  15.381  16.258   9.339 -0.1132  0.0036 -0.1867
 6229W        W22413   4.676   0.431   5.084  0.3409 -0.1197 -0.0915
 6230W        W22414  18.612   3.903   0.101  0.2770  0.1737 -0.0770
 6231W        W22415   7.735   2.233  12.355 -0.0798 -0.1933 -0.1126
 6232W        W22416  17.151  16.086   4.835 -0.0193 -0.0059 -0.3837
 6233W        W22417  12.941   8.358   2.651 -0.1341  0.2637  0.2650
 6234W        W22418  17.672   4.110  14.451  0.3737 -0.3943  0.2972
 6235W        W22419  15.011   1.507   4.671 -0.3251  0.4825  0.2728
 6236W        W22420  10.594  14.502  14.029 -0.1880 -0.0747 -0.2788
 6237W        W22421   9.936   2.143  13.869  0.1067  0.1923 -0.1406
 6238W        W22422  10.297   9.708  14.833 -0.1670 -0.0076  0.0045
 6239W        W22423   8.318   2.544  12.234  0.3372 -0.1994  0.0063
 6240W        W22424  15.248   5.468   3.125  0.0793  0.2356 -0.0617
 6241W        W22425  18.089   9.541   2.690  0.1216 -0.2104  0.0918
 6242W        W22426   5.666   6.346   0.328 -0.0431 -0.2905  0.0370
 6243W        W22427   4.225   2.904   5.509  0.0199 -0.1592 -0.0705
 6244W        W22428  14.426  13.124  11.624 -0.1318  0.0640  0.1438
 6245W        W22429  19.383   7.695   4.637 -0.0621 -0.1989 -0.0840
 6246W        W22430  10.810   5.773   0.357  0.1819  0.1500  0.0758
 6247W        W22431   9.460  10.923  13.552  0.2161 -0.1867 -0.4026
 6248W        W22432  18.625  10.787   4.469 -0.5175  0.0484 -0.3000
 6249W        W22433   7.932   3.468   3.487 -0.0796  0.0916  0.2311
 6250W        W22434   2.194   1.387  14.761 -0.2085 -0.2498  0.0407
 6251W        W22435  16.072  13.146  10.068 -0.1114  0.0159  0.0864
 6252W        W22436   8.391   4.643  13.404  0.0508 -0.0927  0.2708
 6253W        W22437  17.206  15.092   2.371 -0.0293  0.4725 -0.2108
 6254W        W22438   8.541  16.044  11.712  0.1065  0.3072  0.4039
 6255W        W22439  14.132   9.793  10.615 -0.1395  0.3451  0.0183
 6256W        W22440   5.756  17.761   0.580  0.0951 -0.3671  0.0378
 6257W        W22441  13.678   7.623   2.550 -0.1734 -0.2947  0.2556
 6258W        W22442  12.814  11.145   3.450  0.0006  0.1500 -0.2556
 6259W        W22443   6.324   8.265   1.013 -0.3570  0.0845 -0.0290
 6260W        W22444  14.052   7.809   3.479  0.4768 -0.1051 -0.3084
 6261W        W22445   2.377  10.652   5.715 -0.1245  0.1522  0.1523
 6262W        W22446  13.281  11.340  14.209  0.1408 -0.0743  0.0823
 6263W        W22447  16.221  18.251  11.924  0.0913 -0.6654  0.0347
 6264W        W22448  11.775  13.313  12.302 -0.0404 -0.0708  0.4357
 6265W        W22449  13.835   8.047  12.704 -0.2185  0.0206  0.0934
 6266W        W22450  15.127  15.786   0.563  0.0042 -0.0206  0.1361
 6267W        W22451   0.087  16.080   5.611 -0.1675  0.1072 -0.2833
 6268W        W22452   9.672   1.307  11.416 -0.0096 -0.0476 -0.1540
 6269W        W22453  17.107   4.513   3.304 -0.1697 -0.0808 -0.1868
 6270W        W22454   8.584   7.094   4.889 -0.1368  0.2548 -0.1058
 6271W        W22455  17.969   2.624  10.206  0.0168 -0.0516 -0.3588
 6272W        W22456   3.302   8.612   4.599  0.0416 -0.0772  0.1435
 6273W        W22457  16.529   4.245  10.708 -0.2917 -0.3605  0.3246
 6274W        W22458  19.082   3.934   2.836  0.2703  0.1100  0.2708
 6275W        W22459   8.641   1.395  14.583  0.3176 -0.0956 -0.1417
 6276W        W22460  16.848   4.938   1.301  0.1473  0.0138  0.1982
 6277W        W22461   0.770  18.027  13.835  0.0296 -0.2729 -0.1956
 6278W        W22462  17.517  16.269  12.706  0.2426 -0.3394  0.1236
 6279W        W22463   8.472  19.332  10.436  0.4027 -0.0025 -0.1434
 6280W        W22464  14.186   5.497   2.524  0.0695 -0.0716 -0.1630
 6281W        W22465   4.598   3.325  14.368  0.1134  0.1952 -0.3306
 6282W        W22466   4.615  16.465  11.565  0.0663  0.2353 -0.1910
 6283W        W22467   6.138  19.357  13.881 -0.0749 -0.1407  0.1429
 6284W        W22468   8.307  12.230   0.025 -0.4806 -0.2662 -0.0499
 6285W        W22469  18.620   0.810  10.451 -0.0760  0.3158 -0.0590
 6286W        W22470   8.408   2.679  13.917 -0.0163 -0.3555 -0.0218
 6287W        W22471  13.892  18.712   4.407  0.0430 -0.0490 -0.0776
 6288W        W22472   6.085  18.085  12.240  0.3635 -0.0149 -0.4533
 6289W        W22473   3.643   8.251  13.485 -0.1075 -0.3033 -0.0450
 6290W        W22474   9.583  16.064  10.784 -0.0121 -0.0040  0.0059
 6291W        W22475  12.389  18.192   3.609  0.0186 -0.3962  0.0640
 6292W        W22476   3.899  15.522   0.259  0.1093 -0.0961  0.1821
 6293W        W22477   0.814  10.868  13.213 -0.1013 -0.3243 -0.0639
 6294W        W22478  13.497  15.411   4.257 -0.1752  0.3258 -0.0904
 6295W        W22479  11.147   1.960  13.312 -0.1657 -0.2587  0.1134
 6296W        W22480  16.961  13.981  10.083 -0.2380 -0.3341 -0.1337
 6297W        W22481   0.471  17.205   2.313 -0.2612  0.1149 -0.2388
 6298W        W22482   2.142   1.883   5.162  0.1493 -0.0638  0.3117
 6299W        W22483  11.150   9.691  13.647  0.4984 -0.2325  0.1090
 6300W        W22484   5.035   4.532  12.451 -0.0579  0.0108 -0.0973
 6301W        W22485  17.908   2.761  11.196 -0.1101 -0.0433 -0.3033
 6302W        W22486  17.189  18.578  13.047 -0.0560  0.0600  0.0172
 6303W        W22487  10.394   3.808  14.655 -0.0642  0.0043 -0.2714
 6304W        W22488   8.005  16.232   0.792  0.0682  0.2051  0.0757
 6305W        W22489   6.543   3.255   5.278 -0.3371  0.0686 -0.1846
 6306W        W22490  11.903   1.619   2.522  0.1074  0.0783  0.1169
 6307W        W22491   2.055  18.206  12.611  0.1157 -0.0769  0.0364
 6308W        W22492   6.818   4.797   4.018  0.1266  0.2649 -0.0053
 6309W        W22493  17.340  13.935   1.745 -0.1238  0.3384 -0.1189
 6310W        W22494   4.484   6.024  14.179 -0.1332 -0.2214  0.0731
 6311W        W22495   5.857  17.019   9.011 -0.1146  0.0782  0.3850
 6312W        W22496   2.817  19.378   3.096  0.1037  0.1800 -0.2279
 6313W        W22497  10.787  16.474  11.537  0.4036 -0.1871  0.0544
 6314W        W22498  16.473  14.860  12.907  0.1029 -0.2119 -0.3101
 6315W        W22499   3.369  15.173  11.461  0.0181 -0.0343  0.0280
 6316W        W22500   1.132  17.571   0.698 -0.2281 -0.4219  0.0115
 6317W        W22501  15.545  16.220  11.370 -0.2272 -0.1295 -0.3167
 6318W        W22502  17.741  16.083   3.164 -0.0024  0.1847 -0.3189
 6319W        W22503   9.015   5.823  10.959  0.1478 -0.3370 -0.0428
 6320W        W22504  12.483   7.761  11.776  0.0573 -0.2726  0.0280
 6321W        W22505  10.260   9.432   1.708 -0.3621 -0.1942  0.2135
 6322W        W22506   7.626  13.303   3.040 -0.0476 -0.1618  0.2780
 6323W        W22507  18.153   8.874   0.900  0.3868 -0.1410 -0.2134
 6324W        W22508   7.852  17.323  13.120 -0.2045  0.0962  0.1613
 6325W        W22509  15.520   3.420  13.981  0.3010 -0.5110  0.1064
 6326W        W22510   5.127   5.474  14.327  0.0654 -0.0556 -0.1458
 6327W        W22511  17.381  15.340   4.935 -0.2726 -0.3399 -0.2651
 6328W        W22512  11.173   0.218  11.411  0.0484  0.1582  0.1127
 6329W        W22513  15.883  11.794   3.003  0.0747  0.3026  0.1932
 6330W        W22514  18.266   2.322   1.800  0.1257 -0.3546 -0.1212
 6331W        W22515   3.189  10.550   0.588  0.2222  0.4359  0.1635
 6332W        W22516  13.188   7.768   2.363 -0.0043 -0.0856 -0.1310
 6333W        W22517  12.981  17.392  12.758 -0.2135 -0.2703 -0.0390
 6334W        W22518   0.678   3.913   1.434 -0.1308  0.1014  0.0735
 6335W        W22519  15.298   2.275   0.318  0.1184 -0.1857 -0.1119
 6336W        W22520  13.545   5.985   2.044 -0.1811  0.0343 -0.1633
 6337W        W22521  14.532  15.970   2.233 -0.2801  0.1590  0.0740
 6338W        W22522  10.364  11.402  10.196  0.0883  0.3157 -0.2877
 6339W        W22523   8.512  13.602  12.796  0.0049  0.0085  0.0530
 6340W        W22524   5.176   8.963   4.953  0.4492 -0.0290  0.0621
 6341W        W22525  11.103  10.327  12.554  0.0369 -0.3082 -0.1950
 6342W        W22526  15.979   0.289   2.049  0.0414 -0.0041  0.1128
 6343W        W22527   2.996   3.367   3.699  0.0600 -0.0159 -0.2572
 6344W        W22528  17.862  19.231   4.942 -0.1241 -0.1322  0.1435
 6345W        W22529  15.586  12.374  14.261 -0.0792 -0.2239 -0.2876
 6346W        W22530   8.506  15.122  14.264  0.1868 -0.0607 -0.0439
 6347W        W22531  15.391   2.870   2.701  0.0152  0.1354 -0.0629
 6348W        W22532  15.239   9.974  12.663  0.1353  0.0406 -0.1402
 6349W        W22533  15.197  14.478   1.467  0.2841  0.1087 -0.0187
 6350W        W22534   6.378  19.283  11.223  0.0293 -0.0427 -0.1748
 6351W        W22535  17.089  11.733   5.317 -0.0837  0.0947 -0.2114
 6352W        W22536  14.496   9.950  11.024 -0.1172 -0.4243  0.1258
 6353W        W22537  19.105  15.506   4.278  0.3655 -0.0604 -0.3755
 6354W        W22538  13.344  18.108   3.183 -0.0320  0.0558 -0.0310
 6355W        W22539   8.723  18.618   3.518  0.2608 -0.0119 -0.1714
 6356W        W22540  17.447   2.990  12.967 -0.0509 -0.2295  0.2100
 6357W        W22541  11.763   5.039  10.634  0.1072  0.2517 -0.0866
 6358W        W22542   5.284   1.599  14.877  0.0841 -0.1328 -0.0267
 6359W        W22543  17.315  12.648   0.445 -0.0413  0.5345  0.0290
 6360W        W22544   6.028   0.405  11.826 -0.0458  0.1012 -0.1917
 6361W        W22545  19.188  12.762   5.573 -0.1479  0.1704 -0.1334
 6362W        W22546   5.843   3.527   1.237  0.0736 -0.3236 -0.2752
 6363W        W22547  11.206   9.705  13.153 -0.0317  0.1162 -0.2472
 6364W        W22548  13.044  18.467   2.903  0.2034  0.2339  0.1399
 6365W        W22549   9.701   5.552   3.906  0.1825 -0.4174  0.2635
 6366W        W22550   8.593   2.390   2.006 -0.1661 -0.1882 -0.3699
 6367W        W22551  10.815  12.294   0.122  0.0295  0.0015  0.1425
 6368W        W22552   0.395  12.084   4.503 -0.0816 -0.1005 -0.0485
 6369W        W22553  13.817  16.416   1.247  0.3046  0.0843  0.1905
 6370W        W22554  17.124   6.847   1.529  0.1844 -0.2231  0.5142
 6371W        W22555  17.703   6.105   3.775 -0.1260  0.4572 -0.0353
 6372W        W22556   5.351   8.350  14.875 -0.0076 -0.0631  0.1789
 6373W        W22557  17.878   1.687  11.973  0.0256  0.1393 -0.0154
 6374W        W22558  14.966  15.997  10.009 -0.1749 -0.0816 -0.0117
 6375W        W22559   4.646   2.049   5.279  0.1029 -0.1032 -0.1355
 6376W        W22560  15.588   7.312   3.192  0.2727 -0.2207  0.2486
 6377W        W22561  18.641  11.090   1.530  0.3092  0.1489 -0.2641
 6378W        W22562  10.476  18.934   3.708 -0.1423  0.2908  0.0564
 6379W        W22563   5.595  12.449   4.548  0.3339  0.2164  0.2227
 6380W        W22564  15.430   3.333  10.378 -0.0042  0.0291 -0.1281
 6381W        W22565   8.924   0.926   1.060 -0.0229 -0.0406  0.0872
 6382W        W22566  14.159   8.105  11.769  0.0692  0.1381  0.0088
 6383W        W22567  12.942   1.821   1.372  0.1334  0.1306  0.0073
 6384W        W22568   9.211   0.435  10.519 -0.2272 -0.4503  0.3135
 6385W        W22569  12.904   4.984  11.692  0.1495  0.0562 -0.1288
 6386W        W22570   5.730  11.006   2.045  0.0362  0.1439  0.0275
 6387W        W22571   9.601   7.708  11.897 -0.0946 -0.0040  0.2630
 6388W        W22572  12.445   2.672  12.614 -0.1352 -0.1279 -0.1491
 6389W        W22573   1.570   9.295   1.477 -0.1668  0.2816  0.0155
 6390W        W22574   1.525   1.773  13.201 -0.3455  0.0880  0.2036
 6391W        W22575  16.433  11.606  14.305  0.3242 -0.1219  0.2572
 6392W        W22576  14.506  15.282   0.554 -0.2781 -0.0411 -0.2577
 6393W        W22577   4.981   2.875  14.733  0.1997 -0.2131 -0.2757
 6394W        W22578   1.052  13.827   1.923  0.0085 -0.2032  0.0109
 6395W        W22579   2.047  17.149   2.817  0.0094  0.2617  0.1136
 6396W        W22580   2.606  10.746  12.128  0.1553 -0.3425  0.1327
 6397W        W22581  12.065  18.003   1.913  0.2221 -0.0768  0.0783
 6398W        W22582  16.007  16.062   3.408 -0.2444 -0.3621  0.1186
 6399W        W22583  11.241  15.434   9.252  0.0924  0.1064 -0.2664
 6400W        W22584   2.728   6.023   3.674 -0.0526  0.1172 -0.1047
 6401W        W22585   6.894  17.702  11.818 -0.1800  0.1141  0.0458
 6402W        W22586  14.267   7.041   0.893 -0.3795 -0.1081  0.0102
 6403W        W22587   9.205  17.192   0.886 -0.1237  0.0179  0.1119
 6404W        W22588  16.485  15.811  11.195 -0.1166 -0.0826 -0.0378
 6405W        W22589   6.864  16.181   3.606  0.1065 -0.0837 -0.1174
 6406W        W22590   3.813   5.757  10.216  0.0671  0.0050 -0.3361
 6407W        W22591  11.696   7.063  14.573  0.3382 -0.0235  0.1939
 6408W        W22592   1.147  15.713   4.578 -0.0082 -0.1168 -0.0575
 6409W        W22593  13.784  18.820  14.351 -0.0669 -0.0906 -0.0987
 6410W        W22594   5.084  13.637   1.326  0.0385 -0.0451  0.2819
 6411W        W22595  15.916   0.175  11.007  0.0116  0.0214  0.3411
 6412W        W22596   1.612   3.621  13.164 -0.3662  0.2706 -0.1798
 6413W        W22597  17.466  17.544  10.901  0.1112 -0.1163  0.0706
 6414W        W22598   9.142   7.488  11.775 -0.3794 -0.0336  0.1349
 6415W        W22599   8.921   3.121   2.410  0.1451 -0.0541  0.2612
 6416W        W22600  15.963   8.291   4.364  0.0358 -0.0653  0.3578
 6417W        W22601   5.817   7.158   5.120 -0.0716 -0.4753  0.0465
 6418W        W22602  10.806   7.818  12.173 -0.1524  0.0587 -0.2203
 6419W        W22603  12.480   3.967   4.503  0.0831 -0.0649  0.1829
 6420W        W22604   2.746  18.848   0.845  0.0648  0.0307  0.0949
 6421W        W22605  16.597   2.808  12.620  0.2606  0.4329 -0.0274
 6422W        W22606  16.343  12.179   0.283 -0.1325  0.1265 -0.0158
 6423W        W22607  15.350   7.039  10.369  0.1343  0.1227 -0.1449
 6424W        W22608  15.608   1.478   3.400  0.0323 -0.1754  0.0823
 6425W        W22609   2.351   1.531   4.247 -0.2803  0.0303 -0.1844
 6426W        W22610   4.489  14.474   5.352 -0.1456 -0.0930  0.0072
 6427W        W22611  16.437   1.334   4.477  0.1272  0.0551 -0.0333
 6428W        W22612   7.922  18.176  11.924 -0.2038 -0.0034  0.2160
 6429W        W22613  12.556  12.790   1.927 -0.0846  0.0631 -0.0759
 6430W        W22614  16.117  17.082   0.971 -0.0048 -0.3933  0.1916
 6431W        W22615  10.822  11.345  12.169  0.3022 -0.2580 -0.0360
 6432W        W22616   4.803  11.724  11.435  0.0802 -0.1262  0.1608
 6433W        W22617  18.480  16.376   0.983  0.0874 -0.2474 -0.2970
 6434W        W22618   2.851  12.477  10.888  0.3504 -0.1083 -0.2827
 6435W        W22619  14.689   0.389   2.608 -0.1348 -0.1524  0.1404
 6436W        W22620  13.702  16.001   3.624 -0.2620  0.0305  0.2065
 6437W        W22621   4.866   4.171  11.594 -0.3229  0.1565 -0.0488
 6438W        W22622   9.902  18.394   1.782  0.1825 -0.4112  0.1330
 6439W        W22623   5.230  11.093   0.442  0.2407 -0.0526 -0.0559
 6440W        W22624   0.461   4.347  14.605  0.0505  0.3581 -0.3541
 6441W        W22625   5.201  13.482   4.418  0.1938  0.3107  0.2696
 6442W        W22626   2.947  15.456   5.372  0.1127  0.3643 -0.2756
 6443W        W22627  15.887   4.169  12.436  0.0218 -0.2684 -0.2346
 6444W        W22628  15.372  14.415  14.783 -0.1311  0.3446 -0.0932
 6445W        W22629  15.409   4.914   0.987  0.0240 -0.3033  0.1830
 6446W        W22630  18.524   3.765   0.610 -0.0944 -0.1146 -0.1318
 6447W        W22631   2.787  13.820  11.561  0.0504 -0.0760 -0.5295
 6448W        W22632   1.035   1.352   2.887  0.2328  0.2071  0.2886
 6449W        W22633  14.915  14.532  12.488 -0.2675 -0.1616 -0.1685
 6450W        W22634  15.161   5.466  11.095  0.1486  0.3570  0.1936
 6451W        W22635   9.025  18.446   0.518  0.1322  0.4121  0.0941
 6452W        W22636   8.154  17.259   9.385  0.0033 -0.1735 -0.2307
 6453W        W22637   4.021   4.928   0.298  0.2039 -0.1928 -0.1361
 6454W        W22638  16.463  13.111   9.600 -0.0766 -0.1246  0.0324
 6455W        W22639  17.819  17.123   1.095  0.1358  0.2151 -0.2540
 6456W        W22640  10.767   0.012  10.781 -0.0630  0.0587 -0.0647
 6457W        W22641   3.215  15.267   1.845 -0.0321 -0.0529  0.0022
 6458W        W22642  13.123   1.485  14.129 -0.2975  0.3460  0.0510
 6459W        W22643  13.558   3.026  13.033  0.3438  0.0791  0.0726
 6460W        W22644  19.215  13.993   3.438 -0.0831  0.2878 -0.4873
 6461W        W22645   8.730   1.429   1.914 -0.0214  0.2797  0.0287
 6462W        W22646   7.150  10.286  13.518  0.7032 -0.1524 -0.1438
 6463W        W22647   6.670  13.087  10.737  0.0304 -0.2686 -0.0350
 6464W        W22648  16.640   6.931  10.246 -0.0955 -0.1237  0.1198
 6465W        W22649   3.905  10.949   4.379  0.0061  0.1191  0.0481
 6466W        W22650  13.920  17.750  13.739 -0.1447 -0.2036  0.1774
 6467W        W22651  10.570  18.161  12.095 -0.0985  0.2631  0.0638
 6468W        W22652   2.619   7.884   0.695  0.2033  0.1426  0.0039
 6469W        W22653  19.176  13.696  10.769 -0.2225 -0.2033 -0.0111
 6470W        W22654  17.710  11.746   1.558  0.2527 -0.2014  0.1606
 6471W        W22655   9.432   4.086  13.348 -0.0071 -0.2984 -0.1150
 6472W        W22656   3.217  14.804   4.063 -0.2432  0.2329  0.0928
 6473W        W22657  18.455  13.640   0.722 -0.1829  0.3982 -0.0878
 6474W        W22658  17.614  19.214  13.581  0.2832 -0.0317 -0.1287
 6475W        W22659   2.165   2.369   5.326 -0.0842  0.1269 -0.1892
 6476W        W22660  14.252   9.529  14.290  0.3457  0.0785  0.0424
 6477W        W22661   8.314  12.750   9.786  0.1352 -0.0436 -0.0729
 6478W        W22662  16.849   0.566  11.849 -0.0951  0.2430  0.2499
 6479W        W22663  10.240   4.806  10.178 -0.0612  0.3477  0.0711
 6480W        W22664  10.573  19.220  13.003  0.2516  0.0575 -0.0449
 6481W        W22665  12.231  18.156   4.198 -0.1545  0.3728 -0.0294
 6482W        W22666  18.310   1.979  11.297 -0.0264 -0.0475  0.0720
 6483W        W22667   1.899   3.999  13.239 -0.0391 -0.2259  0.1063
 6484W        W22668   3.979  11.465   6.078  0.0350  0.6689  0.1816
 6485W        W22669  17.636   6.196   1.913  0.0289 -0.0873  0.3489
 6486W        W22670  14.070  18.803   1.080 -0.0548 -0.1506  0.0468
 6487W        W22671   6.043   9.978  14.567  0.1397 -0.1295  0.1222
 6488W        W22672  17.965   6.332   2.600  0.0662 -0.0240 -0.0421
 6489W        W22673  10.045  11.042   0.927 -0.1072 -0.1510  0.2554
 6490W        W22674   3.889  12.543   0.953  0.2067  0.3537 -0.0965
 6491W        W22675  18.680   0.846   3.197 -0.0170  0.1786 -0.0402
 6492W        W22676   1.285  17.532  13.453 -0.0496  0.0700 -0.0326
 6493W        W22677   3.724   1.302   3.847 -0.0667 -0.0653  0.2247
 6494W        W22678   0.777  11.227   5.442 -0.0642  0.2010 -0.0269
 6495W        W22679   9.677  19.110   2.066  0.1978 -0.0855  0.4720
 6496W        W22680  14.807  11.871  13.251 -0.0519 -0.0427  0.0297
 6497W        W22681  14.850   5.002  10.970  0.0321  0.2276  0.2751
 6498W        W22682  14.562  15.347  10.860 -0.1004 -0.0123 -0.0093
 6499W        W22683  12.530  14.947   2.476 -0.0219  0.0789  0.0080
 6500W        W22684   2.534  15.192  14.718  0.0983  0.0272 -0.3571
 6501W        W22685   3.979   7.468   1.765  0.3220 -0.1976 -0.1475
 6502W        W22686   5.206   3.569  12.399 -0.0641 -0.0389 -0.2132
 6503W        W22687  16.976   4.869   2.946 -0.0575  0.1005 -0.1331
 6504W        W22688   9.667  12.952  14.856 -0.1983 -0.0050 -0.1201
 6505W        W22689   4.972  11.339  13.724  0.0462  0.2223  0.0887
 6506W        W22690  11.358   4.369  12.914  0.1913 -0.3292 -0.0693
 6507W        W22691   2.830   2.132   1.333  0.0689 -0.0081  0.0302
 6508W        W22692  12.571  13.162  11.122  0.3899 -0.0273 -0.1451
 6509W        W22693  19.003  14.121  13.986  0.1729  0.0791 -0.1071
 6510W        W22694  14.897   5.826  12.746  0.2345 -0.1434  0.3102
 6511W        W22695   4.935  12.595   6.146 -0.1037  0.1081  0.1302
 6512W        W22696  17.094   6.968   0.365 -0.1130 -0.1352 -0.0364
 6513W        W22697   0.009   6.291   2.732 -0.1230 -0.3788  0.0406
 6514W        W22698  10.621  18.762   1.284  0.0269 -0.2191  0.2994
 6515W        W22699  13.481   4.244  10.606  0.0276 -0.0923 -0.2274
 6516W        W22700   0.649   7.515   2.505  0.1314 -0.0896  0.0113
 6517W        W22701   4.465  17.822  14.326  0.0250 -0.2220  0.0028
 6518W        W22702   3.760  14.756   3.279 -0.1253  0.0494 -0.1195
 6519W        W22703   6.085   4.295   3.004  0.4255 -0.3349 -0.1710
 6520W        W22704  15.247  14.778   4.966 -0.1449  0.2436 -0.0594
 6521W        W22705   3.927   6.214  11.224 -0.0881  0.0540 -0.0934
 6522W        W22706   7.137   1.382   2.247 -0.1717  0.1771  0.1356
 6523W        W22707   7.025   0.912  11.721 -0.0310  0.0750  0.2611
 6524W        W22708   6.675  18.183  14.399 -0.0997 -0.0541 -0.0205
 6525W        W22709  11.543  15.046  14.869  0.1089  0.1300  0.0959
 6526W        W22710   4.305  15.589   4.608  0.4796 -0.1472 -0.2866
 6527W        W22711   8.393  16.678   5.212 -0.2553 -0.0977 -0.1546
 6528W        W22712   5.383   1.522   3.172  0.2460 -0.0789 -0.0068
 6529W        W22713   1.328   6.131   1.397 -0.1546 -0.4446 -0.2730
 6530W        W22714  15.221   8.352  12.747  0.0098 -0.1621  0.1051
 6531W        W22715   7.676   0.518   1.025 -0.2242  0.0843 -0.3084
 6532W        W22716   6.722   8.424   4.861  0.2519  0.1620 -0.3165
 6533W        W22717   5.735  19.013  12.435 -0.0974 -0.1625  0.0275
 6534W        W22718  12.774  18.067  13.927 -0.1793 -0.0256  0.1091
 6535W        W22719  16.863   3.803   2.086  0.1799  0.1275 -0.0084
 6536W        W22720   2.639   7.748   3.330 -0.1976  0.1202  0.2388
 6537W        W22721   5.655   4.486  10.557  0.1379 -0.1891  0.1103
 6538W        W22722  10.262  10.499  11.747  0.1892  0.2952 -0.0922
 6539W        W22723   0.402  11.960   3.606  0.1799 -0.2394 -0.0062
 6540W        W22724  10.472  19.117   4.185  0.2541  0.0195 -0.2643
 6541W        W22725   1.654   5.212  14.747 -0.1176 -0.1022 -0.0292
 6542W        W22726   3.375  13.419  12.179 -0.0166  0.3201 -0.0211
 6543W        W22727  10.951   7.424  11.877 -0.1323 -0.2188 -0.4022
 6544W        W22728   1.074   7.646   4.216 -0.3478  0.0077  0.1184
 6545W        W22729  10.932   4.441  13.651 -0.1960 -0.1324 -0.0087
 6546W        W22730   5.833   8.800  14.391 -0.0172 -0.0843 -0.1987
 6547W        W22731  13.423  11.755   2.036 -0.1593 -0.1259  0.0623
 6548W        W22732   8.025  17.191  13.679  0.0923  0.2023 -0.2433
 6549W        W22733   2.663  11.211   4.320  0.2202 -0.0330  0.3478
 6550W        W22734  16.432  10.562   2.873 -0.2772 -0.0033 -0.2204
 6551W        W22735   7.463   2.046   2.880 -0.3172 -0.0091  0.0980
 6552W        W22736  12.820   6.854   4.109 -0.0761 -0.1208 -0.0863
 6553W        W22737   5.985   8.378  10.560  0.3388  0.0615  0.0840
 6554W        W22738  18.988   1.887  11.040  0.0596 -0.0195  0.2005
 6555W        W22739   5.361   0.590  14.391  0.4547  0.3366 -0.0841
 6556W        W22740   2.224   0.542  14.390 -0.2407 -0.1044 -0.0024
 6557W        W22741  14.678   5.373   4.024  0.1164 -0.0084  0.0972
 6558W        W22742   3.739   5.002  11.305 -0.1501  0.0143  0.0718
 6559W        W22743  10.483  16.274  10.671  0.2071  0.0727  0.3106
 6560W        W22744   1.153  15.785  14.362  0.0652 -0.0541 -0.1696
 6561W        W22745   2.628  12.495   4.603 -0.0031  0.0801 -0.2147
 6562W        W22746  17.681  13.265   0.666 -0.3474 -0.3239  0.2955
 6563W        W22747  13.969  14.776  10.633 -0.1774 -0.1365  0.1382
 6564W        W22748  13.161   5.518  14.390  0.0591 -0.1559 -0.0591
 6565W        W22749   9.051   1.689   1.042  0.3997 -0.2723 -0.0454
 6566W        W22750   5.745   7.967  11.490 -0.0890  0.1540 -0.4519
 6567W        W22751  10.383  12.670   5.384  0.1627 -0.0424 -0.0074
 6568W        W22752  14.736   7.169   2.051  0.1085 -0.2873  0.0050
 6569W        W22753   1.528   3.866   1.697 -0.0821 -0.1777 -0.4994
 6570W        W22754  17.193   2.248  10.722  0.0727  0.1983  0.0499
 6571W        W22755   8.014  12.709   5.417 -0.0036 -0.1302  0.1327
 6572W        W22756   9.951   8.023   0.445  0.1565  0.1452  0.1063
 6573W        W22757   0.566  17.996   3.280  0.2593  0.3426 -0.0590
 6574W        W22758   7.569   7.516  12.194  0.0366 -0.4306  0.1687
 6575W        W22759  18.699  16.454  13.499  0.0206  0.0387  0.1394
 6576W        W22760   8.543  17.592  13.220 -0.0108 -0.0858 -0.0378
 6577W        W22761  10.612   5.175  14.195 -0.0838  0.1808 -0.0008
 6578W        W22762   7.878   1.019  14.923 -0.1408  0.2198  0.1885
 6579W        W22763  15.329   3.111   3.182  0.0009 -0.0261 -0.2444
 6580W        W22764  19.119   7.541   2.551  0.3063  0.4454 -0.3707
 6581W        W22765   3.069   9.059   5.669  0.0199 -0.2388  0.0267
 6582W        W22766   4.111   1.819  13.234  0.1643  0.0973  0.3053
 6583W        W22767  15.010  13.705  14.227  0.1210  0.1096 -0.1248
 6584W        W22768  12.264  10.921  13.881 -0.0366  0.1702  0.2842
 6585W        W22769  14.134  16.507  11.782 -0.1621  0.0672  0.2203
 6586W        W22770  12.747   0.765  12.952 -0.2869  0.0798  0.0452
 6587W        W22771   1.014   2.821   1.145 -0.1242 -0.1107  0.2423
 6588W        W22772   6.098   2.378  11.936 -0.0515 -0.2124  0.2338
 6589W        W22773  15.843  13.416   3.064  0.2661  0.0147  0.2055
 6590W        W22774   4.917  12.861   5.325 -0.0669 -0.0725 -0.2471
 6591W        W22775  15.731  11.368  13.285  0.1972  0.4419 -0.4071
 6592W        W22776   5.592   4.584  11.528  0.1005  0.4136 -0.0729
 6593W        W22777   3.360   4.886   2.255  0.0225  0.3450 -0.0595
 6594W        W22778  17.675  12.244  12.411  0.2068  0.3249  0.3100
 6595W        W22779   1.479  12.125  14.693  0.2017  0.1999  0.0207
 6596W        W22780   0.293   6.515   1.979  0.1467  0.5799 -0.3283
 6597W        W22781   4.115  10.644   4.081 -0.0362 -0.2680  0.3314
 6598W        W22782   9.929  10.878  10.942 -0.2097 -0.1999  0.3790
 6599W        W22783   9.627  18.248  14.753  0.0453  0.0613  0.0620
 6600W        W22784  16.314  10.647  11.537 -0.2239  0.0349  0.2194
 6601W        W22785  13.151   5.251  14.808 -0.2039 -0.1521  0.2093
 6602W        W22786  11.847   9.574   1.141 -0.1851 -0.0652  0.1270
 6603W        W22787  10.894   0.456  11.070  0.1761  0.2208  0.4930
 6604W        W22788   1.914  18.676  14.111  0.1315 -0.5079  0.2631
 6605W        W22789  11.118  13.358  11.120  0.1237 -0.0311 -0.0061
 6606W        W22790  14.870  10.055  14.768  0.1330  0.0290  0.2207
 6607W        W22791   9.475   7.123  13.661  0.0588  0.1500  0.0126
 6608W        W22792  12.230  17.830  11.796 -0.0853 -0.0507 -0.1638
 6609W        W22793   4.718  12.667   1.295  0.0480  0.2322  0.2408
 6610W        W22794   6.282   9.803   3.618 -0.1678 -0.1822 -0.1452
 6611W        W22795  15.701  17.904  11.914 -0.1110  0.4586 -0.0238
 6612W        W22796   1.327  10.909  13.321  0.1352 -0.4561 -0.0457
 6613W        W22797   0.946  17.342  14.350 -0.2094  0.2971 -0.0917
 6614W        W22798  17.427  17.010  11.889  0.0743  0.1284  0.2962
 6615W        W22799  10.654  16.222   3.259  0.2132  0.1991  0.1123
 6616W        W22800   6.213  14.199  12.294 -0.1232 -0.3088 -0.0605
 6617W        W22801   4.777  16.886  14.678  0.0560 -0.2899  0.0360
 6618W        W22802   4.926  14.873   4.045 -0.0057  0.1082  0.1046
 6619W        W22803   6.278   9.250   0.807  0.1684 -0.1236  0.3469
 6620W        W22804  10.659  11.422  11.330 -0.3151  0.3436 -0.0362
 6621W        W22805  13.314  10.081  11.203  0.0901  0.0078 -0.0985
 6622W        W22806  13.272   1.536   1.589  0.5817 -0.1365  0.2222
 6623W        W22807   3.334   5.260  13.044 -0.2856 -0.0052  0.0834
 6624W        W22808   3.211   9.948  12.430 -0.2545 -0.2503  0.0775
 6625W        W22809  17.924   0.412  14.378  0.1639  0.1326  0.2100
 6626W        W22810   3.094  18.960  14.114  0.0896 -0.0889 -0.4820
 6627W        W22811   8.056   2.788  10.944  0.1485  0.1271 -0.0310
 6628W        W22812   6.217   6.939   2.561 -0.1791  0.1732 -0.2212
 6629W        W22813   9.967  14.441   0.463  0.0704  0.0048  0.4118
 6630W        W22814   9.819   3.556  12.038 -0.2928  0.1925 -0.2065
 6631W        W22815  18.469   5.317   2.832 -0.0968 -0.2331 -0.1118
 6632W        W22816   9.469  10.601   0.301 -0.4383  0.2412  0.1736
 6633W        W22817  10.681   7.014  14.637  0.0170 -0.0034 -0.3619
 6634W        W22818  15.581  10.961  12.575  0.0809  0.1151 -0.0222
 6635W        W22819  10.895  12.806   0.254 -0.1868  0.0688  0.0547
 6636W        W22820   8.836   4.122   1.868  0.3439  0.1416 -0.0270
 6637W        W22821   6.226   6.454  11.888  0.0763 -0.0839  0.1459
 6638W        W22822   8.829   0.224  10.258 -0.0123  0.1745 -0.2904
 6639W        W22823  17.133   3.582   3.816  0.0543  0.1355  0.0732
 6640W        W22824   8.028   1.392  13.886 -0.2105 -0.1173  0.0699
 6641W        W22825   1.875   2.011   1.187 -0.1453  0.0436 -0.0406
 6642W        W22826   0.867  12.502   4.320  0.0204  0.2870 -0.0379
 6643W        W22827   3.924  15.155  10.626 -0.0027 -0.0638 -0.3344
 6644W        W22828   8.041  14.402   1.594  0.1519 -0.0494 -0.2053
 6645W        W22829   7.785  10.918  12.404  0.2543 -0.2369  0.1198
 6646W        W22830   6.183  13.506   0.565 -0.0745  0.0581 -0.3966
 6647W        W22831  17.818  13.390  10.067 -0.1687  0.0564  0.3042
 6648W        W22832   6.653   6.793  13.610  0.2073 -0.0021 -0.1370
 6649W        W22833   8.320   5.650   3.723  0.3723 -0.0057 -0.1560
 6650W        W22834   2.640  16.263  13.461 -0.0115  0.1536 -0.1746
 6651W        W22835   3.418   8.418   3.574  0.1413 -0.0780  0.1624
 6652W        W22836  14.840  18.875  12.146 -0.0001  0.0740 -0.1552
 6653W        W22837   9.103  14.202  11.584  0.0441  0.1328 -0.2052
 6654W        W22838   2.634  15.604   2.290 -0.0084 -0.1664  0.0416
 6655W        W22839   4.411   6.215  11.384  0.0996 -0.2222  0.1245
 6656W        W22840  17.156  17.106  10.937 -0.0702 -0.0642  0.0889
 6657W        W22841   2.318  14.619  14.675  0.2947 -0.4330  0.0820
 6658W        W22842  14.312  17.404  13.518 -0.2241  0.0913  0.1775
 6659W        W22843  14.218   2.120  10.167  0.1619  0.4628 -0.1363
 6660W        W22844  14.919   2.013  12.083 -0.0946 -0.0071 -0.0391
 6661W        W22845   0.976   2.174  12.294  0.2330  0.0325  0.4133
 6662W        W22846  14.456   2.754  10.780 -0.3251  0.4785  0.8227
 6663W        W22847  14.075   6.819  14.927  0.2717 -0.0192  0.0053
 6664W        W22848  17.583   5.437   3.044 -0.3661  0.1397 -0.1280
 6665W        W22849  19.280  13.215  13.394  0.1616 -0.1656  0.2108
 6666W        W22850   7.936  10.342   2.253  0.0249  0.1923 -0.0425
 6667W        W22851   8.947   3.908   4.412 -0.2890 -0.4095  0.0285
 6668W        W22852   9.905  15.365   0.392  0.2415  0.0692  0.2207
 6669W        W22853  17.655  10.168  12.006  0.1283 -0.2906 -0.1998
 6670W        W22854  18.455   9.606  12.211 -0.1705 -0.3022  0.2219
 6671W        W22855   2.330   8.472  11.924 -0.2970  0.0229  0.0790
 6672W        W22856   7.261   4.989  13.123 -0.1403 -0.1031  0.2711
 6673W        W22857  15.116   6.137  13.481  0.1751  0.0055  0.0085
 6674W        W22858   2.302   9.947   2.079  0.1806  0.2104 -0.1276
 6675W        W22859  12.922   7.751  13.325  0.0715 -0.0393  0.0299
 6676W        W22860  18.128   0.564   4.522 -0.1990 -0.0605 -0.0348
 6677W        W22861   8.232  15.371   2.041 -0.3949 -0.2339 -0.1512
 6678W        W22862   1.251   6.815   2.065 -0.1565 -0.0638  0.0090
 6679W        W22863   6.229  18.513  12.444  0.0590  0.0674 -0.3381
 6680W        W22864  17.047  17.445   4.282 -0.1053 -0.1900 -0.2208
 6681W        W22865  16.573  19.210   0.477 -0.0052  0.3336  0.1058
 6682W        W22866  16.944  11.828  14.391  0.2171  0.0624  0.2254
 6683W        W22867  11.939  16.123   1.849  0.1512 -0.2000 -0.0586
 6684W        W22868   4.050   6.102   2.088  0.0390  0.4411 -0.1170
 6685W        W22869  13.637  18.022  12.872 -0.2209  0.1620  0.2230
 6686W        W22870   1.986   7.975   4.170  0.0597 -0.0058  0.1390
 6687W        W22871   3.722  12.341  14.463 -0.0011 -0.0210  0.1963
 6688W        W22872   3.213  18.783   1.103  0.2410 -0.0065  0.1751
 6689W        W22873  11.877   5.290   2.419 -0.0892 -0.2135 -0.0957
 6690W        W22874  12.994  10.517  11.342  0.0075  0.2201 -0.1599
 6691W        W22875  14.770   3.012   9.053  0.1475  0.0957  0.0286
 6692W        W22876  15.127   1.256   1.725  0.0324  0.0548 -0.2710
 6693W        W22877  18.414   0.117   1.437 -0.2944 -0.0253 -0.1305
 6694W        W22878  18.388   7.029  13.161 -0.0170 -0.0512  0.0281
 6695W        W22879   6.273   5.534   0.540  0.1947 -0.0453  0.1057
 6696W        W22880  16.646   4.728   2.130  0.2538 -0.1266 -0.1057
 6697W        W22881  14.566  15.468  10.158 -0.2014 -0.1945 -0.4675
 6698W        W22882   8.881   5.291   3.304  0.3864  0.0788  0.3497
 6699W        W22883   0.609   6.449  13.238  0.1779  0.0315 -0.1132
 6700W        W22884   3.008   5.063   3.749  0.0573 -0.1031  0.2489
 6701W        W22885   7.153  16.039  11.402 -0.0545 -0.0037  0.0394
 6702W        W22886   7.001   0.421  12.720  0.0061  0.1212  0.0368
 6703W        W22887  13.558  11.934   1.072 -0.2351 -0.3800  0.0615
 6704W        W22888   0.558   8.551   3.357 -0.4420 -0.1786 -0.1563
 6705W        W22889  17.067  10.426  14.886 -0.2160 -0.0205  0.3175
 6706W        W22890   7.262   1.661   2.707 -0.0251  0.1295 -0.1617
 6707W        W22891  18.177  15.525   0.045  0.2209  0.0860 -0.0373
 6708W        W22892  10.279   3.137   3.941 -0.0903  0.2491 -0.0124
 6709W        W22893   8.441  13.249   1.708  0.3053 -0.2401 -0.3104
 6710W        W22894   0.547  11.936   4.949 -0.0891  0.1845  0.1879
 6711W        W22895   6.425   7.709  13.555 -0.2003 -0.0430 -0.0746
 6712W        W22896   7.682   2.667   1.054  0.0703 -0.1092 -0.0395
 6713W        W22897  12.897   8.410   2.106 -0.2244 -0.3728 -0.0786
 6714W        W22898  13.702   7.035  13.142  0.2693  0.2283 -0.2860
 6715W        W22899   7.039  18.086   3.936  0.0280 -0.5403 -0.1561
 6716W        W22900   0.852  16.838  11.055 -0.2675  0.3409  0.0459
 6717W        W22901  13.229  10.791  14.172  0.0869  0.0626 -0.0100
 6718W        W22902   9.006  16.413   3.516  0.0172 -0.1954  0.0487
 6719W        W22903  16.563  13.677   1.014 -0.0206  0.3553  0.0655
 6720W        W22904  14.344  17.351  11.606 -0.1508 -0.0775 -0.1130
 6721W        W22905   1.369  14.492   2.571 -0.2268 -0.1892  0.0798
 6722W        W22906   0.095   7.823   3.485 -0.5116  0.1845 -0.0737
 6723W        W22907   3.265   2.021  11.769 -0.2794 -0.0208 -0.0053
 6724W        W22908  14.455  14.735   2.128  0.0670  0.1706 -0.0444
 6725W        W22909  15.002   4.389   2.294  0.4901 -0.0132  0.3148
 6726W        W22910   0.983   3.973  12.572  0.2538  0.0277  0.4078
 6727W        W22911   6.624   8.990  11.949 -0.2228  0.0022  0.0320
 6728W        W22912   9.538   3.324   1.104  0.1239 -0.0407  0.0359
 6729W        W22913   2.645  15.528   0.577  0.0550 -0.2133 -0.1573
 6730W        W22914  16.152   2.553  12.817 -0.2330  0.2741 -0.0729
 6731W        W22915  18.057   1.640   5.413 -0.1819 -0.1726 -0.1494
 6732W        W22916  12.433   0.604  11.321 -0.0925 -0.2212  0.5288
 6733W        W22917  17.305   5.239   1.853 -0.1173  0.0305 -0.0216
 6734W        W22918   4.476   9.603   3.956 -0.1048 -0.0224  0.1221
 6735W        W22919  16.245  11.734   3.637 -0.0864 -0.2640  0.1519
 6736W        W22920  17.805  13.103   3.336 -0.3054  0.0203 -0.2514
 6737W        W22921   5.125  16.197  11.083 -0.0632 -0.5513  0.1430
 6738W        W22922  18.449  10.466   5.338  0.0302 -0.2208 -0.0191
 6739W        W22923   3.170  14.291  11.547  0.0407  0.1283  0.4345
 6740W        W22924  11.934  12.805   5.129  0.0253  0.0219 -0.2792
 6741W        W22925   0.076   5.072   3.772 -0.0301  0.1773  0.4238
 6742W        W22926  14.744   9.029   1.205  0.0031 -0.1875  0.2357
 6743W        W22927   8.120  10.653  11.242 -0.0323 -0.1388  0.0993
 6744W        W22928   8.065   2.088  14.485 -0.1680  0.0480 -0.0929
 6745W        W22929   7.893  15.002  13.710  0.0911  0.3025  0.0119
 6746W        W22930  14.357  19.380  14.904  0.2057  0.0452  0.0790
 6747W        W22931  10.217   0.105  14.664  0.4961  0.1462 -0.1443
 6748W        W22932   1.373  12.574  13.517  0.2519  0.0466  0.1146
 6749W        W22933   5.613   6.285   2.397 -0.2483  0.0673 -0.1023
 6750W        W22934  13.586  18.308  14.496 -0.0709 -0.2015  0.0480
 6751W        W22935  10.364  18.738   3.215  0.1507  0.3700 -0.1024
 6752W        W22936   1.199  15.865  11.987 -0.2924 -0.0266  0.0608
 6753W        W22937  12.411  19.340   0.914 -0.0341  0.0120 -0.1011
 6754W        W22938   2.624   5.307   4.475 -0.3693  0.3577  0.1770
 6755W        W22939  15.956  18.377   0.128 -0.1381  0.2701  0.3218
 6756W        W22940   4.358   4.232   1.978  0.1674 -0.0783 -0.3636
 6757W        W22941   6.240  14.285   0.174 -0.0990  0.1800 -0.0950
 6758W        W22942  18.184  10.475   4.875  0.2043  0.0620  0.0180
 6759W        W22943   7.548   9.148  13.864  0.0695  0.1766 -0.1088
 6760W        W22944   2.875  16.744   2.255 -0.2659 -0.2395 -0.0837
 6761W        W22945   0.567  13.715   3.895  0.0131  0.2604  0.0111
 6762W        W22946  18.004   6.847   0.027 -0.5914  0.0575  0.2063
 6763W        W22947   2.671   2.592  14.846 -0.2735 -0.0523 -0.1220
 6764W        W22948  14.479  19.355  12.096  0.0741 -0.1694 -0.1697
 6765W        W22949   4.520  16.203   3.867 -0.2444  0.3816  0.0313
 6766W        W22950   1.522   3.506  14.814  0.1199 -0.0406  0.2285
 6767W        W22951  19.012  14.757   1.529 -0.1835 -0.0577  0.1712
 6768W        W22952   5.654  18.672   3.074 -0.2222  0.2130  0.2434
 6769W        W22953   6.927   9.036  13.255 -0.2813  0.1133  0.3404
 6770W        W22954   3.002   8.939   2.446 -0.1745  0.0409  0.2894
 6771W        W22955   4.617   6.565   4.682  0.2869  0.1518  0.1784
 6772W        W22956   9.816   1.605   4.234  0.0318 -0.2368  0.0338
 6773W        W22957   6.513  12.627   9.830 -0.2191  0.2388  0.0196
 6774W        W22958   2.935   6.852  13.917  0.0441 -0.2625  0.0482
 6775W        W22959  17.718  15.382   1.375 -0.1047 -0.0896  0.1887
 6776W        W22960  12.188  14.206  11.535  0.2056 -0.2481  0.2259
 6777W        W22961  13.672  16.184  14.224 -0.0157 -0.2675  0.2031
 6778W        W22962   6.473  17.366   0.216 -0.0631 -0.1860 -0.1087
 6779W        W22963  15.686   5.962   2.205 -0.0363  0.0696 -0.1310
 6780W        W22964   7.363   0.918   9.948 -0.1590 -0.2879 -0.2425
 6781W        W22965   5.781   9.020  13.957 -0.0721  0.4195 -0.0368
 6782W        W22966   2.308  18.566  14.453 -0.0550  0.0225  0.2781
 6783W        W22967  16.486  14.467  12.604 -0.1715 -0.1932  0.4274
 6784W        W22968   9.567   8.462   1.296 -0.4385  0.4404  0.1733
 6785W        W22969  10.609  11.052  13.143  0.2257 -0.0768  0.3105
 6786W        W22970   9.056  19.241  13.842  0.0968  0.2325 -0.0724
 6787W        W22971  15.044   8.044   0.513  0.1983  0.1705 -0.2571
 6788W        W22972   6.781  18.227  11.638  0.0573 -0.1736 -0.1691
 6789W        W22973   6.957  16.296   3.106 -0.2390 -0.1719 -0.1873
 6790W        W22974  16.618   1.301   3.099  0.3528  0.0017  0.1417
 6791W        W22975   7.951   8.755  11.187 -0.2978  0.0178  0.0475
 6792W        W22976   0.744  13.067  13.862  0.2057  0.2191  0.1751
 6793W        W22977  18.739   2.976   4.477  0.1122 -0.0839 -0.2300
 6794W        W22978   8.716   4.789  12.563 -0.3741  0.0608 -0.0300
 6795W        W22979   3.695   5.857   6.018 -0.1127  0.0565 -0.1830
 6796W        W22980   5.335  18.319  14.689  0.0415 -0.0048 -0.2778
 6797W        W22981  12.399   2.016  14.628  0.1600 -0.0149  0.0325
 6798W        W22982   2.208   3.197  11.655 -0.1750 -0.0784 -0.2043
 6799W        W22983  18.223   6.037  13.409  0.0352 -0.1530  0.1151
 6800W        W22984   9.005   9.946   1.409 -0.1553 -0.0348  0.0416
 6801W        W22985   2.197  11.839   3.992  0.1448 -0.3018  0.0224
 6802W        W22986   8.733   3.826   2.299 -0.0957 -0.0958 -0.2880
 6803W        W22987  12.031   8.313  13.584 -0.2588 -0.0103  0.2334
 6804W        W22988   2.392  11.151  13.030  0.0033 -0.2868 -0.0975
 6805W        W22989  18.135   7.823  12.713 -0.0601  0.2482  0.4656
 6806W        W22990   7.676  12.493   5.127  0.2123  0.0115  0.4419
 6807W        W22991   9.053   2.082   3.343  0.0525  0.2139 -0.0202
 6808W        W22992   6.879  11.405   2.801  0.3333 -0.1447 -0.1431
 6809W        W22993   6.246  10.672   0.691  0.1606 -0.2940  0.0515
 6810W        W22994   4.609  11.102  14.048  0.1875  0.1058 -0.1949
 6811W        W22995   6.877  11.728  13.862  0.0619 -0.0656 -0.0388
 6812W        W22996  18.180  17.062  14.641 -0.0003  0.1349 -0.0209
 6813W        W22997  12.265   9.148  12.123 -0.1123  0.2221 -0.4170
 6814W        W22998   4.105   0.723   3.675 -0.4515  0.2607  0.0338
 6815W        W22999  15.124   6.984   1.772 -0.0725 -0.0899  0.0389
 6816W        W23000  11.092   5.629  12.757 -0.0291 -0.0624 -0.1375
 6817W        W23001  18.262  13.425  13.136  0.2551  0.0712 -0.1561
 6818W        W23002   9.179   6.654   2.296  0.0697 -0.0400 -0.0506
 6819W        W23003   5.503   7.314   1.788  0.0664  0.0799  0.2466
 6820W        W23004   6.514   0.763   2.805  0.0010  0.2575  0.1530
 6821W        W23005  12.404   3.162   4.101 -0.1124  0.0618  0.3343
 6822W        W23006  16.625  11.244  10.485  0.3041  0.1399 -0.3533
 6823W        W23007   9.160   7.738   3.628  0.0419  0.2377 -0.1258
 6824W        W23008   4.798   5.865  13.119  0.2466  0.1179  0.1900
 6825W        W23009  11.326   3.723  13.586 -0.0810 -0.0083  0.1386
 6826W        W23010   9.103  15.323  11.512  0.1266 -0.0420 -0.1657
 6827W        W23011   9.716  11.425  13.085  0.2844 -0.0683  0.2526
 6828W        W23012   4.295  14.831   4.118  0.3347 -0.2669 -0.1800
 6829W        W23013   9.811  13.593  12.628  0.5800  0.1176  0.0110
 6830W        W23014  12.885  16.846  11.940  0.1420  0.2530  0.2270
 6831W        W23015  13.451   6.555   0.786 -0.0736  0.2748  0.0324
 6832W        W23016   8.928   7.549   0.707  0.1970 -0.1939 -0.2715
 6833W        W23017   4.567   6.385   4.034  0.2120  0.3201  0.1711
 6834W        W23018   8.310   8.515   1.140 -0.0528 -0.1558  0.1446
 6835W        W23019  15.254  10.133   3.464  0.1930  0.0486 -0.0309
 6836W        W23020  14.417  13.560  12.295 -0.1473 -0.0111 -0.2271
 6837W        W23021  17.191   9.345  10.747  0.1682  0.2605  0.0623
 6838W        W23022   6.659   1.398   1.646  0.0381 -0.2467  0.0084
 6839W        W23023   8.927   7.209  14.559 -0.4405 -0.0861 -0.0243
 6840W        W23024  16.967  10.843   1.339 -0.0263  0.0999  0.0449
 6841W        W23025  16.177   5.165   4.270  0.3991  0.1951 -0.1793
 6842W        W23026  10.788  12.264  11.727  0.0276 -0.0218 -0.1549
 6843W        W23027  11.149   2.539  13.630  0.1421 -0.0647  0.4096
 6844W        W23028   2.258   5.346  14.514  0.0271 -0.0097 -0.1104
 6845W        W23029  16.922  12.192  12.354 -0.2404 -0.1637  0.3271
 6846W        W23030   8.672   3.490   3.775 -0.0060  0.1447  0.0962
 6847W        W23031   7.237  12.424  10.780 -0.0558 -0.1498 -0.1903
 6848W        W23032   4.704  17.172   4.195 -0.0987 -0.0021 -0.1683
 6849W        W23033   3.792   5.187  12.680 -0.2519  0.0113  0.2614
 6850W        W23034  13.783   5.528  13.728  0.0682 -0.2254 -0.4967
 6851W        W23035  16.831   1.654  11.777 -0.1385  0.4729  0.0521
 6852W        W23036   8.731   3.304  13.262 -0.0751  0.1221 -0.0382
 6853W        W23037   2.221   2.094  12.574  0.1578 -0.0475 -0.2677
 6854W        W23038   1.084  17.409  10.076  0.1624 -0.0591  0.2283
 6855W        W23039  18.242   2.068  14.767 -0.0792 -0.1308 -0.0914
 6856W        W23040  10.545  18.999  11.067  0.0209 -0.1333  0.3445
 6857W        W23041   6.333   9.949  12.124  0.1393 -0.1089 -0.0435
 6858W        W23042   3.794  10.055  13.997  0.0855 -0.2343 -0.1718
 6859W        W23043  11.594   8.003  13.786 -0.3452 -0.1252 -0.1005
 6860W        W23044  16.534  19.204   3.294 -0.0643  0.1771 -0.1044
 6861W        W23045   3.832  11.809   4.777 -0.0810  0.1810 -0.1337
 6862W        W23046   7.193   9.543   3.435  0.0834  0.0799  0.2802
 6863W        W23047  10.480  16.707   0.883  0.0918 -0.2972  0.5751
 6864W        W23048   8.841  18.707  13.651 -0.6731  0.1720  0.1689
 6865W        W23049  16.458   8.078   4.719 -0.1640 -0.0038  0.0988
 6866W        W23050  15.106   4.312  10.136 -0.0433 -0.0881  0.1942
 6867W        W23051  14.549  18.651   2.829  0.2151 -0.3913 -0.2914
 6868W        W23052   2.185   6.963   4.348  0.0507  0.0538 -0.1982
 6869W        W23053   3.400  18.352  11.295  0.5626 -0.0671  0.1438
 6870W        W23054   7.885   0.474  14.915  0.0749 -0.2635  0.0686
 6871W        W23055   0.441   5.970   1.218 -0.2127 -0.0939  0.1582
 6872W        W23056   0.236   7.065  14.125 -0.1825 -0.2078  0.0650
 6873W        W23057   2.699   9.640  11.044  0.1139  0.0253  0.0485
 6874W        W23058   0.594   9.003  14.707  0.1512 -0.2158  0.3594
 6875W        W23059  13.618   3.283   2.132 -0.0757  0.0934 -0.2184
 6876W        W23060   6.762  16.072   4.167  0.2973 -0.1075  0.1764
 6877W        W23061  12.975   4.423  11.653 -0.0053  0.2927 -0.0075
 6878W        W23062  18.994   1.141   1.232  0.3511 -0.0044  0.0637
 6879W        W23063   5.073   3.089  12.418 -0.0081 -0.3366  0.1295
 6880W        W23064   9.591   6.893   4.975  0.2079  0.3998  0.0235
 6881W        W23065  18.594   1.527  11.386 -0.0233 -0.2097  0.0135
 6882W        W23066   5.737   7.170   0.567 -0.0215  0.2788  0.2811
 6883W        W23067  17.133   0.018  14.702  0.2748  0.1282  0.0314
 6884W        W23068  10.039  11.685   3.278 -0.1038  0.0354 -0.2170
 6885W        W23069   4.765   2.132  14.886 -0.0203  0.0199  0.0865
 6886W        W23070   5.818   5.776   0.387  0.0365 -0.1416  0.1588
 6887W        W23071  16.743   8.698   2.653 -0.1674 -0.0159 -0.0290
 6888W        W23072  18.163  12.772  10.794 -0.2359  0.0171  0.1184
 6889W        W23073   6.906  10.572   9.892  0.0768  0.0144  0.2269
 6890W        W23074   6.005  19.065   0.339 -0.1103  0.1262  0.2217
 6891W        W23075   9.791  12.733   2.886 -0.0425 -0.4171  0.1530
 6892W        W23076  10.195  15.316  10.849 -0.0862  0.0522  0.2723
 6893W        W23077   3.615  14.529  14.148  0.0788  0.1732  0.1410
 6894W        W23078   6.086   1.299   2.490  0.0423  0.1308  0.2646
 6895W        W23079   7.634   1.034  12.527 -0.3030 -0.1095 -0.1837
 6896W        W23080  16.302  10.048   2.984  0.3469 -0.3379 -0.0103
 6897W        W23081   0.443   1.930  10.539  0.2132 -0.0247 -0.1024
 6898W        W23082   5.048  13.973   0.158  0.2672  0.1253  0.2477
 6899W        W23083   0.035  15.813   5.190  0.0244  0.1146 -0.0542
 6900W        W23084   1.052  18.498   4.279  0.2108  0.1248  0.0490
 6901W        W23085   0.356  12.857  14.727  0.1197  0.4130  0.2864
 6902W        W23086  12.628   5.130  12.589  0.1450 -0.1775  0.0564
 6903W        W23087  18.347   3.907   3.856  0.2839 -0.0227  0.0001
 6904W        W23088   1.120  12.290  12.653  0.0340 -0.0600  0.2846
 6905W        W23089   3.157   7.289  13.779 -0.0434  0.0017  0.1649
 6906W        W23090   0.121  17.163   3.762  0.1312 -0.0696 -0.2605
 6907W        W23091   4.479   5.124   1.160 -0.1531  0.0432 -0.0821
 6908W        W23092   7.371  12.628   0.090  0.0057 -0.1621 -0.0118
 6909W        W23093   2.339   2.432  12.973 -0.0968  0.2572  0.0101
 6910W        W23094   7.836  15.498   0.438 -0.0995 -0.0219  0.2822
 6911W        W23095  16.951  12.767   1.312 -0.1865 -0.4238  0.3819
 6912W        W23096   6.434  17.089   2.368  0.3024 -0.2547 -0.3080
 6913W        W23097  13.148   2.550  13.621 -0.3048 -0.1490  0.2970
 6914W        W23098  10.866  18.897  10.642  0.3862  0.0968  0.1233
 6915W        W23099   5.260   0.913  11.676  0.0435  0.0795 -0.2749
 6916W        W23100  13.650  18.149   1.648  0.2640 -0.4253  0.0471
 6917W        W23101  12.568   7.625  10.817  0.1976 -0.1342 -0.1081
 6918W        W23102   5.534  16.908  10.487 -0.2306 -0.1277  0.1145
 6919W        W23103  19.258   1.317   5.571  0.2696  0.4030  0.3329
 6920W        W23104   6.642   5.713   1.813 -0.1436 -0.1011 -0.2267
 6921W        W23105  10.488  13.525  11.151  0.3087  0.0476 -0.2523
 6922W        W23106   7.924   7.141   3.407 -0.4778  0.0323  0.0471
 6923W        W23107   0.405  11.955   1.679 -0.0646  0.0633  0.0668
 6924W        W23108  11.470   3.747   2.108  0.0621  0.0136  0.0709
 6925W        W23109  14.418   6.275  10.129 -0.0111 -0.3849  0.3099
 6926W        W23110  15.347  11.650   2.171 -0.0971 -0.0508  0.1913
 6927W        W23111  10.387  10.060  14.197 -0.0175  0.0975 -0.1734
 6928W        W23112   2.697   6.422   0.787 -0.4050 -0.2579  0.2111
 6929W        W23113  11.121   2.513  14.101  0.1282 -0.1792 -0.0470
 6930W        W23114   0.297   1.932  13.099  0.0078  0.1876 -0.1006
 6931W        W23115   4.828  13.892  14.623 -0.2787 -0.5193  0.1399
 6932W        W23116  10.349  11.261  14.267  0.1671  0.2776  0.0138
 6933W        W23117   8.617   2.224   2.585 -0.1615  0.4191 -0.1275
 6934W        W23118  14.532   6.553   2.095 -0.2360  0.1699 -0.0598
 6935W        W23119   6.865   8.411   2.969 -0.1386  0.1578  0.2372
 6936W        W23120   9.303  18.056   0.200 -0.0114  0.3642  0.1918
 6937W        W23121   1.094  13.425  14.421  0.2388 -0.0530  0.0996
 6938W        W23122  17.326   4.245   4.167  0.2264  0.2362 -0.1315
 6939W        W23123  14.803   2.761   3.632  0.3487 -0.2221 -0.2114
 6940W        W23124   7.505  14.248   0.520  0.1657 -0.1517  0.0366
 6941W        W23125   6.581   8.145   3.478  0.0887  0.0311  0.0983
 6942W        W23126   9.681  17.778  12.005  0.1503  0.4566  0.1226
 6943W        W23127   2.265   6.316   6.304  0.0472  0.3971  0.0310
 6944W        W23128  14.541  12.691  11.967  0.1330  0.1903  0.0423
 6945W        W23129   7.426  14.492  14.453  0.1662  0.1621 -0.0211
 6946W        W23130   2.765  14.723   2.226 -0.0863 -0.3237  0.0551
 6947W        W23131  15.776  13.480   4.066  0.4895  0.1260 -0.0349
 6948W        W23132   3.790  14.666   4.111 -0.2810  0.1283  0.1525
 6949W        W23133  13.382   5.544   4.112 -0.0663 -0.1116  0.1994
 6950W        W23134   1.750   7.564  14.150  0.0459  0.3066 -0.0290
 6951W        W23135   9.148   7.114  13.021  0.2746 -0.2279 -0.3304
 6952W        W23136   5.840   9.838  11.139 -0.1067  0.1786 -0.2540
 6953W        W23137   1.452   9.146  11.176 -0.3322  0.3299  0.2621
 6954W        W23138  19.014   3.914  11.111 -0.0289  0.1075 -0.0352
 6955W        W23139  18.975   6.313  12.388 -0.0538 -0.0726  0.1127
 6956W        W23140   4.400  15.524   2.469  0.1261 -0.0072 -0.3026
 6957W        W23141  12.219   1.953  12.866 -0.0420 -0.2419  0.0377
 6958W        W23142   9.575   6.913   0.861  0.2742  0.0491  0.1404
 6959W        W23143  13.962  12.296   2.814  0.1706  0.3158 -0.0067
 6960W        W23144  10.119   2.033   5.032 -0.1626  0.0420  0.3052
 6961W        W23145   8.165  15.438   1.376 -0.0826  0.3433 -0.0501
 6962W        W23146  10.799   8.386  14.829 -0.4095 -0.1273 -0.1448
 6963W        W23147   6.778  15.858  13.836 -0.0743 -0.2245  0.1410
 6964W        W23148  19.203  16.526  13.361 -0.1793  0.1652 -0.2871
 6965W        W23149   5.056  18.013   4.767 -0.2511  0.0754  0.1304
 6966W        W23150   6.729   1.860   1.463  0.2223 -0.2640  0.3025
 6967W        W23151  14.045   6.012   3.879 -0.0651  0.3126 -0.2497
 6968W        W23152   3.228   9.555  14.107 -0.0576 -0.1310 -0.0516
 6969W        W23153  16.588   5.153  10.912  0.0174 -0.0011 -0.2962
 6970W        W23154  16.693   4.681  14.310 -0.0059  0.1159 -0.1602
 6971W        W23155   8.977  15.668  12.002  0.2458 -0.0003 -0.0083
 6972W        W23156  13.796  10.763  14.670  0.1136 -0.1964 -0.1490
 6973W        W23157   6.132  10.897  11.898  0.3283  0.2597  0.2150
 6974W        W23158  10.855   3.138   2.159 -0.3830  0.0052 -0.0167
 6975W        W23159   6.377  13.746   2.080 -0.1993  0.0207 -0.1622
 6976W        W23160  16.293  14.904   3.793  0.0290 -0.0763  0.1433
 6977W        W23161  14.841   2.773   2.356  0.2258 -0.2534  0.1651
 6978W        W23162  16.101  17.393   2.229 -0.1286  0.2264  0.3203
 6979W        W23163   6.410  15.019   5.500 -0.4781  0.0945  0.0144
 6980W        W23164  12.488  18.127  10.229  0.3013  0.0213  0.2255
 6981W        W23165  10.679   4.855  13.191  0.1332 -0.0545  0.0934
 6982W        W23166  14.051   6.752   2.183  0.0256 -0.0136 -0.1435
 6983W        W23167  11.397   2.736   3.618  0.3851 -0.0075 -0.1849
 6984W        W23168  11.644  14.167  10.844 -0.0921 -0.0533  0.0946
 6985W        W23169  16.872   9.325   4.192 -0.1652  0.0059 -0.3191
 6986W        W23170  10.183  13.312  11.542  0.0793  0.2172  0.4562
 6987W        W23171   9.356   3.954   4.940  0.4714  0.1522 -0.3410
 6988W        W23172  16.393   0.830  12.400  0.0633  0.2580 -0.2596
 6989W        W23173  18.904  15.972   3.891  0.0321  0.0497  0.1664
 6990W        W23174   7.653  12.993   5.139 -0.4583  0.0549  0.5286
 6991W        W23175  12.765   0.643  12.466  0.1636  0.3123  0.1709
 6992W        W23176  10.205   6.638   9.789  0.0432 -0.0392  0.2688
 6993W        W23177   5.804  17.720  10.239  0.0209  0.3319  0.4275
 6994W        W23178  15.190   3.343  12.942 -0.1170 -0.2110  0.1268
 6995W        W23179  13.771   8.421   0.821  0.1017  0.1352 -0.0119
 6996W        W23180   8.782  16.516   4.354 -0.4367 -0.2210 -0.2979
 6997W        W23181   9.469   2.032   1.722 -0.3353 -0.2091 -0.1646
 6998W        W23182  12.782   9.041  12.342 -0.1684 -0.0219  0.2330
 6999W        W23183   0.840  13.382  14.913 -0.2321  0.2164 -0.0460
 7000W        W23184   5.762   6.583   5.196 -0.0426  0.1880  0.0739
 7001W        W23185   4.175   2.486   3.249 -0.1630  0.3291  0.1982
 7002W        W23186   5.618   4.499   1.165 -0.2819  0.1835  0.1534
 7003W        W23187   4.057   3.504   1.211  0.2153  0.0682  0.0206
 7004W        W23188   1.411  16.333   5.100  0.1112 -0.3913 -0.2842
 7005W        W23189  10.819   4.257  14.053  0.0906  0.1927  0.0930
 7006W        W23190   4.063   7.591  13.739  0.0971  0.3818 -0.1861
 7007W        W23191  15.469   6.842   0.366  0.1528  0.1671  0.1883
 7008W        W23192   9.499  14.713   2.976  0.1381 -0.0230  0.0629
 7009W        W23193  18.599   0.554  12.591 -0.0113  0.1297 -0.1361
 7010W        W23194  14.196   0.506   3.394  0.0989  0.3386 -0.0031
 7011W        W23195   5.992   2.086   4.346 -0.0008  0.1661 -0.0698
 7012W        W23196   6.572   9.379   2.274 -0.1717  0.3127 -0.2793
 7013W        W23197   7.024   1.392   1.204 -0.1249  0.2278  0.1614
 7014W        W23198   0.637   3.640   3.539 -0.1256  0.0336 -0.2119
 7015W        W23199  11.577   2.029   2.166  0.3635  0.0207  0.0814
 7016W        W23200  11.379   0.209   9.649 -0.0270  0.1012 -0.1784
 7017W        W23201   9.804   2.787   3.319 -0.0692 -0.1806 -0.1903
 7018W        W23202  11.333   2.818  12.461  0.0151 -0.0639 -0.0649
 7019W        W23203  12.675   5.407   0.107 -0.0712  0.0723  0.0614
 7020W        W23204  17.803  10.470  14.669 -0.0251 -0.3480 -0.0887
 7021W        W23205  10.358   6.064  10.892 -0.2556  0.0479 -0.1290
 7022W        W23206   2.247   9.635   4.897 -0.0433  0.1419  0.2926
 7023W        W23207   1.317   2.489   2.312 -0.0496 -0.1318  0.0601
 7024W        W23208   4.774  18.788   1.304  0.2391  0.1860 -0.1590
 7025W        W23209  16.947   0.066   4.758  0.1021  0.1810 -0.1730
 7026W        W23210   7.007  13.935   2.783 -0.0688 -0.4511  0.0825
 7027W        W23211   8.530  14.013  11.167  0.1592 -0.1710 -0.4810
 7028W        W23212   4.143   9.902  12.485 -0.1835 -0.1612 -0.2025
 7029W        W23213   3.874   1.080  14.519  0.1624  0.2355  0.2970
 7030W        W23214   9.760  11.324   0.144  0.0751 -0.1559  0.2706
 7031W        W23215   5.012  12.354   5.181  0.0119 -0.0031  0.3059
 7032W        W23216   3.200  16.303   1.911  0.3646 -0.1506 -0.0747
 7033W        W23217  16.173  10.144  14.520  0.0106 -0.3462 -0.1600
 7034W        W23218  11.376   2.144  10.765  0.0811  0.0525 -0.0222
 7035W        W23219   0.869  16.544  13.288 -0.0525 -0.0724 -0.3344
 7036W        W23220  10.868  18.846  11.565 -0.0098  0.1428 -0.3285
 7037W        W23221  17.198   2.540  12.669 -0.1390 -0.2360 -0.1199
 7038W        W23222   5.449  15.489   9.427 -0.3053  0.1956  0.0620
 7039W        W23223  17.831  10.315  12.476 -0.1767  0.2029  0.0954
 7040W        W23224  11.457   9.511  13.985  0.2061 -0.0350 -0.1665
 7041W        W23225  13.700   9.904  10.857  0.0904 -0.2492  0.1489
 7042W        W23226  15.904   4.666  11.658 -0.0031 -0.0813 -0.1162
 7043W        W23227  17.340   3.465  11.690  0.0911 -0.3242  0.0939
 7044W        W23228  10.916  13.352   1.154 -0.0733  0.0668  0.0352
 7045W        W23229  16.128   9.488  14.488  0.0201 -0.1887  0.2678
 7046W        W23230  15.509  11.018  13.037  0.0050  0.4286 -0.3393
 7047W        W23231   8.200   4.176   2.970  0.1327 -0.2400 -0.1803
 7048W        W23232  13.519   3.862  12.178  0.1951 -0.2364  0.1602
 7049W        W23233   4.247   4.588   5.174  0.0454  0.4431  0.1191
 7050W        W23234   8.138   1.870   1.501 -0.3325 -0.0392 -0.1315
 7051W        W23235   5.687   8.553  11.472  0.2671  0.1048 -0.4690
 7052W        W23236   9.966  13.168  13.005  0.1626 -0.0556 -0.2693
 7053W        W23237   3.186   2.893  12.793 -0.1916 -0.3389  0.0413
 7054W        W23238  13.859   0.051   0.138 -0.0591  0.0968 -0.1106
 7055W        W23239  14.006   5.223  10.219 -0.1042 -0.0295 -0.1188
 7056W        W23240  12.820  18.892   3.705 -0.3151  0.2430 -0.0819
 7057W        W23241   8.370   5.498  14.270 -0.0440  0.2245 -0.3224
 7058W        W23242  10.737   4.112   3.437 -0.0333 -0.1359 -0.1783
 7059W        W23243   8.991   8.376  12.806 -0.1620  0.1452  0.1275
 7060W        W23244  11.919  17.895  13.642  0.0976  0.1850 -0.1308
 7061W        W23245   5.397  11.470  10.126  0.5464  0.2817 -0.1501
 7062W        W23246  14.399  14.285   3.691 -0.0643  0.2883  0.2509
 7063W        W23247   7.074   2.792  11.735  0.1512 -0.2150  0.0342
 7064W        W23248  15.309  16.278   2.335  0.2761 -0.0512  0.3282
 7065W        W23249   6.921  15.206   3.980 -0.3887  0.0559 -0.2350
 7066W        W23250  16.606  18.006  12.078 -0.0297  0.1743  0.1184
 7067W        W23251  14.061  14.821  12.489  0.1794 -0.5619  0.0197
 7068W        W23252   7.472  17.160   1.609  0.2758 -0.0375 -0.3471
 7069W        W23253   4.573  16.601  13.277  0.2182  0.2198  0.3346
 7070W        W23254   9.917  13.121   4.137  0.3009 -0.1549  0.1279
 7071W        W23255   7.973   6.758  11.417  0.1154  0.1225 -0.3246
 7072W        W23256   2.366  10.102   5.127  0.0529  0.1490 -0.0145
 7073W        W23257   4.129   6.895  10.642  0.0661 -0.1132  0.1134
 7074W        W23258   0.723  11.648  14.427  0.1418 -0.0373 -0.0050
 7075W        W23259  12.630   9.101   2.502  0.3615 -0.1370 -0.3226
 7076W        W23260  14.120  19.199  11.578 -0.3660  0.0433 -0.0866
 7077W        W23261  19.117  13.439  14.722  0.2693 -0.3807 -0.2347
 7078W        W23262  14.014   9.419   9.035  0.1656  0.2341 -0.2184
 7079W        W23263   4.319  13.824  12.122  0.0754  0.1235  0.3838
 7080W        W23264  10.369   8.552   1.899 -0.1220 -0.1359  0.2262
 7081W        W23265  14.433   8.882  12.794  0.1346  0.3220 -0.0588
 7082W        W23266  12.085  13.699  12.201  0.2541 -0.2035 -0.4818
 7083W        W23267  15.576   1.691   2.481  0.2721  0.0931 -0.1219
 7084W        W23268  14.213   8.182   0.816 -0.1902  0.0677  0.1379
 7085W        W23269   6.251  10.370   1.559 -0.0358 -0.3773  0.2348
 7086W        W23270  11.438  19.160  13.832  0.0895 -0.1807 -0.2767
 7087W        W23271   4.473   1.169  13.477 -0.2075 -0.1221 -0.0760
 7088W        W23272   4.966  11.993   0.005  0.0783 -0.2709  0.2952
 7089W        W23273   6.085   0.317  14.380 -0.3935  0.1024  0.1552
 7090W        W23274  17.048  12.631   9.017  0.2391 -0.0716  0.0327
 7091W        W23275   2.777  12.327   1.238  0.2285 -0.3375  0.1023
 7092W        W23276   9.196  13.114  13.826 -0.0300 -0.3097 -0.0642
 7093W        W23277  14.529  16.286  11.437 -0.3480  0.0200  0.0185
 7094W        W23278  11.898   6.387   0.693 -0.1492  0.0816 -0.0004
 7095W        W23279   9.940  14.568   3.912  0.1105 -0.2837  0.0011
 7096W        W23280  16.554  15.233   2.610  0.1149 -0.5486 -0.1910
 7097W        W23281   8.088  11.781   2.232  0.3742 -0.0152  0.3516
 7098W        W23282   8.408  18.041   0.297  0.0845 -0.2714  0.0541
 7099W        W23283   7.846  18.650  13.062 -0.3371  0.0895  0.4603
 7100W        W23284  12.871   4.489  12.611 -0.1657  0.3101 -0.0879
 7101W        W23285  15.909  10.361  11.324  0.1646 -0.1834 -0.1757
 7102W        W23286   8.645  14.659  14.057 -0.0855 -0.0015  0.5945
 7103W        W23287  13.325  19.212   2.199  0.2493  0.2579 -0.1889
 7104W        W23288   4.811  12.525   3.433  0.1787 -0.0210 -0.4116
 7105W        W23289   1.740  14.459  13.317 -0.0983  0.2166  0.4867
 7106W        W23290   9.225  14.248   5.005  0.0064 -0.1612  0.0552
 7107W        W23291   3.890   4.556  11.590  0.0428 -0.1259  0.1370
 7108W        W23292  10.475   1.958   0.621  0.2890  0.2694  0.1098
 7109W        W23293  17.377  15.129  12.891 -0.0346  0.0812  0.0948
 7110W        W23294  11.963  12.034   4.716  0.0569 -0.1561  0.0411
 7111W        W23295  18.796   7.906   2.590  0.1440 -0.2545  0.0615
 7112W        W23296   6.696   2.549   1.609 -0.0683 -0.3233  0.2234
 7113W        W23297  12.250  16.218   2.252 -0.3478  0.0859  0.0435
 7114W        W23298  11.335   0.994  10.311  0.0652  0.2070  0.0499
 7115W        W23299  10.679   4.756  10.491 -0.2021  0.0332 -0.1810
 7116W        W23300   7.715   6.817   1.486  0.0385 -0.0866  0.2979
 7117W        W23301  11.810  10.536   0.297 -0.1265 -0.2796  0.0093
 7118W        W23302   3.125  13.473   3.295 -0.1297  0.2338 -0.2893
 7119W        W23303   4.067  16.734  13.388 -0.2564 -0.0939  0.1006
 7120W        W23304  12.469  12.371   2.317  0.0725  0.0269 -0.2351
 7121W        W23305  11.942   3.196  12.977 -0.2117 -0.0162  0.2959
 7122W        W23306   7.895  13.341   0.043 -0.0905 -0.0488  0.0277
 7123W        W23307  15.451  12.501  10.260  0.0117 -0.0971 -0.2046
 7124W        W23308   2.006  18.941   1.795 -0.1039 -0.2119  0.1644
 7125W        W23309  16.060   0.920  10.092  0.0733  0.1158  0.1016
 7126W        W23310   6.974  16.408   1.857 -0.2712 -0.0165 -0.0580
 7127W        W23311   6.490  10.358  12.329 -0.0286 -0.0928  0.0831
 7128W        W23312  15.396  13.974  14.416  0.0080 -0.0330 -0.4067
 7129W        W23313  17.745  10.023   4.184  0.0246 -0.1396 -0.0486
 7130W        W23314  11.315  11.722   4.084  0.0866  0.1542 -0.2232
 7131W        W23315   9.850   7.218   1.343  0.1677  0.0466 -0.1484
 7132W        W23316  16.620  18.966   2.868 -0.2677  0.1846 -0.2723
 7133W        W23317  10.338  10.704  13.403 -0.2280  0.0556  0.1503
 7134W        W23318   8.119  10.714   4.243 -0.0785  0.0146  0.0999
 7135W        W23319  19.024  12.716  12.143  0.0578 -0.0944 -0.2746
 7136W        W23320  10.488   8.866   4.772 -0.0611  0.2309  0.1422
 7137W        W23321   0.765  17.043  11.472  0.1220 -0.1707 -0.0918
 7138W        W23322   1.931   8.066  11.951 -0.2145  0.1652  0.1402
 7139W        W23323   2.260   9.111  12.165 -0.0119  0.0244  0.0292
 7140W        W23324   2.648  11.620   1.329 -0.2732 -0.0453 -0.1851
 7141W        W23325   5.757   9.942  12.068  0.3147 -0.0032  0.0544
 7142W        W23326  10.139   2.614   0.051 -0.2410  0.0430  0.1039
 7143W        W23327  17.782  10.633   4.152  0.1621 -0.1332 -0.1868
 7144W        W23328   8.225   9.676   4.436  0.1667 -0.4282  0.2123
 7145W        W23329  15.276  14.826   0.250 -0.3388 -0.1365 -0.4258
 7146W        W23330   0.134  15.854   9.786  0.1961  0.0761 -0.2281
 7147W        W23331   0.554   7.187   0.698 -0.0154  0.3033 -0.3868
 7148W        W23332  16.817  15.232   9.890 -0.1614 -0.1489  0.2037
 7149W        W23333  10.634   4.405   3.882 -0.2393  0.0073  0.0467
 7150W        W23334  17.855   2.256   0.080  0.2130 -0.1251  0.1892
 7151W        W23335   3.314  18.758   2.136 -0.1154 -0.1379 -0.1325
 7152W        W23336  12.437   8.662  10.417 -0.0193 -0.3660  0.0128
 7153W        W23337  17.320   1.349  12.759  0.0718  0.1590  0.0943
 7154W        W23338  18.152   3.885   2.330  0.0043 -0.2154 -0.0952
 7155W        W23339   7.993   7.740   2.375 -0.1293  0.0275 -0.1644
 7156W        W23340  14.213   7.730   4.655 -0.3452  0.1716 -0.0065
 7157W        W23341  14.472   0.947  12.187  0.0768 -0.1729 -0.0800
 7158W        W23342  10.219   8.436   2.996  0.1673  0.2450 -0.0842
 7159W        W23343  10.958   3.648   4.166  0.1692  0.2955  0.1477
 7160W        W23344  16.181   3.415   3.233 -0.2677  0.0940 -0.0780
 7161W        W23345  12.622   6.057  10.829 -0.2524  0.2411 -0.1929
 7162W        W23346  11.299  13.927  14.058 -0.1879  0.1461 -0.2037
 7163W        W23347  10.392  18.982   9.625 -0.0135 -0.0182 -0.1177
 7164W        W23348   6.500   0.698   0.424  0.1864 -0.0082 -0.3279
 7165W        W23349  13.489   7.205   1.888 -0.2427 -0.1320 -0.1884
 7166W        W23350  15.951   9.045  13.648  0.1472 -0.1522 -0.3007
 7167W        W23351  13.530   9.344  10.773 -0.2825  0.3342  0.1032
 7168W        W23352  16.756   0.414   9.759  0.2939  0.2447  0.3228
 7169W        W23353  15.565  14.690  12.205  0.2150  0.0708 -0.2988
 7170W        W23354  13.333   5.203   1.284  0.0934  0.1201 -0.2913
 7171W        W23355  15.729   3.255  12.418 -0.2499  0.3418  0.1511
 7172W        W23356   1.236   1.911  11.563 -0.1560 -0.2819  0.1546
 7173W        W23357  12.629  15.607  11.332 -0.1130  0.0391  0.0515
 7174W        W23358  17.116  13.278   1.413 -0.1273  0.1039 -0.2232
 7175W        W23359  11.677  12.574   3.559 -0.0083 -0.2700  0.1334
 7176W        W23360  13.101  15.960   9.558 -0.0204 -0.2500  0.2838
 7177W        W23361   5.120   7.033  12.218 -0.3354 -0.2721  0.1222
 7178W        W23362   3.993  14.340  11.614  0.1483 -0.3553  0.0908
 7179W        W23363   8.629   0.314  11.632 -0.0811 -0.0884 -0.1902
 7180W        W23364  13.025  18.914   2.744 -0.1016  0.0504  0.4022
 7181W        W23365   2.871   2.456   2.208  0.0236  0.1101  0.0657
 7182W        W23366   7.431  16.837  10.577 -0.0346  0.2086  0.1636
 7183W        W23367  16.860  13.004   4.306  0.2115 -0.4606  0.1103
 7184W        W23368   4.957  18.593   0.053  0.3252 -0.0853 -0.0649
 7185W        W23369   1.915   2.161   4.557  0.1063  0.1875 -0.0120
 7186W        W23370   8.928   0.225  12.015  0.0706  0.1634 -0.2619
 7187W        W23371   3.635   7.971   5.265  0.1313 -0.0892 -0.4431
 7188W        W23372  12.691   2.629  13.321  0.0642 -0.4001  0.0813
 7189W        W23373  13.847   4.896   0.650  0.1885 -0.1367  0.1985
 7190W        W23374   0.109  18.667  14.346  0.0856 -0.0700  0.1209
 7191W        W23375   6.207  12.409   1.573 -0.3623 -0.0430 -0.1065
 7192W        W23376  11.464   8.799   1.104  0.1082 -0.0696 -0.3122
 7193W        W23377  13.562   2.475   2.425  0.1195 -0.4045 -0.1475
 7194W        W23378  18.459   5.045  14.891  0.1335  0.5019  0.0450
 7195W        W23379   6.273   5.560  10.247 -0.3727 -0.3083 -0.2746
 7196W        W23380  18.785   4.115   4.667 -0.1911  0.0794  0.0762
 7197W        W23381   3.801   3.826   3.175  0.0290  0.3133 -0.4060
 7198W        W23382  17.461  15.897   2.849  0.2865  0.1716 -0.3196
 7199W        W23383   9.862   7.691   4.523 -0.3219  0.3463  0.2275
 7200W        W23384  17.922  10.163   1.647 -0.2069 -0.1417 -0.0670
 7201W        W23385   8.318  10.087   3.112 -0.0597 -0.1793 -0.0741
 7202W        W23386   5.546   9.575  14.212 -0.1230  0.0777 -0.0396
 7203W        W23387  18.906   3.054   4.939  0.0603 -0.1597 -0.1902
 7204W        W23388   7.691   5.918   1.711  0.2101  0.1019  0.2246
 7205W        W23389  10.577   9.178   1.361 -0.1632 -0.1574 -0.1623
 7206W        W23390   7.594   2.101   1.055  0.0538  0.1570 -0.0299
 7207W        W23391   4.338  18.574   5.476 -0.0251 -0.0460  0.0331
 7208W        W23392   0.126   7.560   2.931  0.0783  0.0941  0.1303
 7209W        W23393  14.504  13.821   2.780  0.2224  0.1862 -0.1276
 7210W        W23394   8.776  10.621  10.617  0.1971  0.1224  0.0656
 7211W        W23395   3.259   3.139  14.834  0.1036 -0.0721  0.1402
 7212W        W23396   6.304   4.648  14.336 -0.1199  0.0494  0.1012
 7213W        W23397  10.751  15.465   3.728 -0.2464 -0.0175  0.1558
 7214W        W23398   1.002  14.737   0.297  0.1925 -0.0242 -0.0226
 7215W        W23399  11.995  16.328  11.142  0.2447 -0.1657 -0.1242
 7216W        W23400   0.063  16.625  13.817 -0.2568  0.0675  0.4592
 7217W        W23401   5.119  15.714   1.213  0.0662  0.0846  0.2843
 7218W        W23402  11.504   8.754  11.350 -0.3402 -0.0947 -0.1470
 7219W        W23403   7.590  17.625  12.813  0.0414 -0.2455 -0.4008
 7220W        W23404   9.538   8.110  12.723  0.1546 -0.0960 -0.3405
 7221W        W23405  14.018   4.132   0.969  0.2819  0.1115  0.1899
 7222W        W23406  17.289  11.228  13.237  0.0020 -0.2638 -0.0610
 7223W        W23407  11.800   5.698  14.898  0.0323 -0.2534  0.1469
 7224W        W23408   8.740  16.796   3.645 -0.2230 -0.0134  0.0034
 7225W        W23409   7.104   6.042  10.783  0.2704  0.0642  0.5301
 7226W        W23410  17.242   9.498  11.670 -0.0739 -0.3972 -0.1805
 7227W        W23411  16.004   0.288   8.920  0.1739 -0.1099 -0.0890
 7228W        W23412  19.285   9.622  11.588  0.0860 -0.0702  0.1567
 7229W        W23413   0.964  14.306  14.521 -0.1747 -0.2290  0.1927
 7230W        W23414   3.693   8.706   1.071  0.1444 -0.0321 -0.1217
 7231W        W23415   0.674   9.440   3.293 -0.0236 -0.0211 -0.1917
 7232W        W23416   7.009   3.651   1.688 -0.1385 -0.3371  0.1493
 7233W        W23417   9.420   4.961   4.551  0.0588 -0.0002 -0.0487
 7234W        W23418   7.676   6.896   2.517 -0.0717  0.4026  0.1293
 7235W        W23419   7.670  17.458   3.601  0.3552 -0.1568  0.1691
 7236W        W23420   9.630  17.504   1.641 -0.0182 -0.2936 -0.3460
 7237W        W23421   7.238  12.774   0.602  0.1071  0.0676  0.1580
 7238W        W23422  12.157   0.469  10.429 -0.1915 -0.0451  0.1815
 7239W        W23423   1.673  14.972   3.219 -0.1398 -0.1042  0.0253
 7240W        W23424   3.335  17.435  10.897  0.1052  0.2530  0.1361
 7241W        W23425  10.287   8.562  12.190 -0.1534 -0.0146  0.1116
 7242W        W23426  17.593   7.116   1.538 -0.1813 -0.0549  0.0610
 7243W        W23427   3.967   3.667  12.587  0.5388  0.0547 -0.0177
 7244W        W23428   5.037   8.462  12.538 -0.1360  0.0294  0.0158
 7245W        W23429  17.325  13.728   3.675 -0.2147 -0.0303  0.0473
 7246W        W23430   8.167  14.515  13.655 -0.1080 -0.0995  0.1555
 7247W        W23431  10.656   8.391   4.508 -0.2931 -0.1640 -0.1987
 7248W        W23432   7.778   3.453   1.032 -0.3547  0.0093 -0.3509
 7249W        W23433  12.222  12.835   1.566 -0.2269 -0.4463  0.0412
 7250W        W23434  15.844   9.260   4.249 -0.2472  0.2939  0.1963
 7251W        W23435  18.299   2.433   4.102 -0.0205  0.0106  0.4051
 7252W        W23436   0.199   8.482   2.032  0.1854 -0.0101  0.0374
 7253W        W23437   8.612   1.598   0.270 -0.1532  0.5657  0.0571
 7254W        W23438  14.148  13.084  11.195  0.1298 -0.0702 -0.0683
 7255W        W23439  15.104  11.457  11.805 -0.0688 -0.1173  0.0239
 7256W        W23440   2.060   3.196   1.359 -0.0176  0.2278  0.0020
 7257W        W23441   4.836  14.079  12.188  0.0689  0.3084  0.1668
 7258W        W23442   2.258  17.134   3.326 -0.3258 -0.2400 -0.0753
 7259W        W23443  10.280  14.198   3.419 -0.2686  0.1531  0.0606
 7260W        W23444   2.244   2.960   3.469  0.1679  0.1209 -0.1020
 7261W        W23445  16.955   3.696   3.028 -0.3206 -0.0537 -0.0414
 7262W        W23446  10.006   6.101  10.082 -0.1319 -0.0820 -0.0900
 7263W        W23447  10.294  15.900  12.289 -0.0036 -0.0187  0.0503
 7264W        W23448   3.329  10.299   5.790 -0.3473 -0.1471 -0.1458
 7265W        W23449  14.851  12.667   1.706 -0.7002 -0.0020  0.0288
 7266W        W23450   3.047   3.593   5.089  0.1128 -0.2168 -0.0694
 7267W        W23451  19.221  15.539   1.113 -0.0666 -0.2026  0.0182
 7268W        W23452  11.164  11.097  10.710  0.2011  0.1652 -0.1506
 7269W        W23453   5.685   5.590  14.766  0.0784 -0.1229  0.1318
 7270W        W23454  19.101   0.957   3.451  0.3322  0.1472  0.0399
 7271W        W23455   7.783   5.166  12.121 -0.1587 -0.1829  0.0688
 7272W        W23456  16.206  17.231   2.720  0.0704  0.0382 -0.1578
 7273W        W23457   0.815   1.920   0.866  0.0138  0.0568 -0.3172
 7274W        W23458  14.979   5.885  13.922 -0.1538 -0.0860  0.0743
 7275W        W23459   6.715  19.247   3.199  0.0431 -0.0252 -0.1168
 7276W        W23460   0.668  10.760   5.504 -0.0705 -0.0325 -0.0215
 7277W        W23461  13.652   6.991  10.118 -0.0947 -0.2293 -0.1500
 7278W        W23462   7.575   1.411  14.826  0.0357  0.0296  0.0374
 7279W        W23463  12.847  15.026  12.876 -0.0276  0.1767 -0.2548
 7280W        W23464  13.357  17.732   3.606 -0.1840 -0.0123  0.2243
 7281W        W23465  12.446  16.638  14.280  0.4086 -0.0496 -0.2574
 7282W        W23466   4.339   3.643  13.107 -0.0930  0.1302  0.0083
 7283W        W23467   8.062  18.492   1.500  0.1463  0.0070  0.1037
 7284W        W23468  15.485   9.351   3.810 -0.2019  0.5892  0.0226
 7285W        W23469  13.866  10.111   0.237 -0.1252  0.3293  0.0768
 7286W        W23470  14.910  12.540  10.329 -0.1488  0.1526  0.0185
 7287W        W23471   9.453   1.488   0.795 -0.1038 -0.1049  0.2304
 7288W        W23472   7.540  10.578   2.048  0.2629 -0.2946  0.1412
 7289W        W23473   2.011  15.617   4.290 -0.1447  0.0887  0.2712
 7290W        W23474  18.555   5.396   4.275  0.0579  0.2116 -0.0925
 7291W        W23475   7.432   7.275   1.453  0.1520  0.3284  0.2331
 7292W        W23476  17.986   4.667   2.983  0.0995  0.1478 -0.3162
 7293W        W23477   8.461   0.363  14.447 -0.1086 -0.0209  0.1027
 7294W        W23478   8.096   0.334   0.713  0.0743  0.2212 -0.1556
 7295W        W23479   7.488  13.656  12.481 -0.2246 -0.2464 -0.1836
 7296W        W23480  15.292   3.294   4.144 -0.1681 -0.0328  0.0920
 7297W        W23481  16.564   7.505   2.028  0.0032  0.1764  0.0441
 7298W        W23482  12.274   2.198  11.201 -0.2232 -0.0461 -0.1981
 7299W        W23483  11.107  18.781  14.855 -0.0435 -0.0321  0.1169
 7300W        W23484  14.191   8.875   4.314 -0.0875  0.0803 -0.0075
 7301W        W23485   8.084  14.298   3.042 -0.2261  0.3441 -0.2794
 7302W        W23486   6.475  12.233   1.186 -0.1916 -0.0011  0.0009
 7303W        W23487   6.426   9.328   4.712  0.5402  0.0803 -0.0722
 7304W        W23488  15.408   8.024   4.055 -0.4466  0.1759 -0.1594
 7305W        W23489  14.956   5.430  14.600  0.2153  0.0793 -0.2483
 7306W        W23490   4.163   5.318   0.609  0.0994 -0.3658 -0.1623
 7307W        W23491  15.941  18.464  10.290 -0.4070  0.2281 -0.3526
 7308W        W23492  15.780   4.061   9.489 -0.2318  0.0732 -0.1706
 7309W        W23493   3.286   0.738   1.428 -0.2654 -0.0574 -0.0025
 7310W        W23494  12.603  12.468  13.660 -0.0352 -0.1554 -0.1785
 7311W        W23495   8.488   4.121   0.903 -0.2265  0.3658  0.0700
 7312W        W23496  14.732   6.028   2.065 -0.1820  0.3159  0.0103
 7313W        W23497   7.478   2.222   2.031  0.2413  0.2546 -0.1291
 7314W        W23498   9.284  11.326  11.269 -0.0929  0.2639  0.0756
 7315W        W23499   2.737   3.917  11.158  0.3035 -0.1160  0.1806
 7316W        W23500  12.190   0.982  10.450 -0.0559 -0.2506 -0.1819
 7317W        W23501   1.619  17.136  13.556  0.0887 -0.3539 -0.0132
 7318W        W23502   0.928  11.695   2.300  0.1096  0.1284 -0.0474
 7319W        W23503  10.922   9.880   1.200  0.1505 -0.0710  0.0564
 7320W        W23504   7.323  12.181  14.074 -0.1421 -0.0124  0.2417
 7321W        W23505   7.902   5.297   1.539 -0.1408  0.3299  0.2131
 7322W        W23506   2.254  11.626   0.668 -0.0673 -0.0691  0.1437
 7323W        W23507  11.312   5.851   2.503  0.2368 -0.2083  0.0295
 7324W        W23508  10.783  12.406   3.639  0.0161  0.0162  0.1926
 7325W        W23509   1.891   3.108   5.912  0.0078  0.1956  0.2281
 7326W        W23510  15.779  11.456   1.385  0.1650  0.2373  0.0992
 7327W        W23511  17.298  14.670   2.650 -0.0457 -0.0953 -0.0421
 7328W        W23512  13.502  13.110   1.827 -0.0915 -0.1503  0.0255
 7329W        W23513   2.652  18.234  10.961  0.0279 -0.1322 -0.2147
 7330W        W23514   6.624   8.806   3.115 -0.4875 -0.0510 -0.0375
 7331W        W23515   8.598   0.556   1.480  0.0912 -0.0491  0.0211
 7332W        W23516  14.565   4.605   5.181  0.3723  0.4302  0.0184
 7333W        W23517   4.922   8.710   6.217 -0.3684 -0.3362 -0.0571
 7334W        W23518  14.251  16.577  12.302  0.0090  0.1625  0.2831
 7335W        W23519   2.268  19.013  13.420 -0.2566 -0.1986  0.2412
 7336W        W23520  12.059  14.382  11.049 -0.1170  0.0702  0.1518
 7337W        W23521  14.219   6.055   2.094 -0.4209  0.0471  0.4708
 7338W        W23522   4.150  15.125   2.241  0.0136 -0.0212  0.2118
 7339W        W23523  11.551   3.486   3.065  0.0611  0.1005  0.1950
 7340W        W23524   0.233   7.426  13.415 -0.0394 -0.1491 -0.1723
 7341W        W23525  18.680   6.668  14.395  0.2475  0.2963  0.1968
 7342W        W23526   2.078   1.541  13.072  0.0945  0.1840  0.0498
 7343W        W23527  10.239   5.263  12.943 -0.1663 -0.1436 -0.2943
 7344W        W23528  11.399   5.244  10.371  0.0943  0.1817  0.3074
 7345W        W23529   5.487  11.280  12.622  0.0212  0.0744 -0.1393
 7346W        W23530  15.939  17.238  14.004  0.0195 -0.2307  0.1642
 7347W        W23531   5.944  18.082  11.682 -0.0742 -0.0756 -0.0687
 7348W        W23532   9.883   1.906  14.355 -0.0958 -0.2961 -0.1304
 7349W        W23533   8.460   2.180  13.634 -0.5050  0.1423  0.0064
 7350W        W23534  15.877  17.341   1.308  0.1529 -0.0609 -0.0498
 7351W        W23535   5.327   2.920  11.959 -0.0115 -0.2902 -0.0272
 7352W        W23536  14.997  19.031   4.022 -0.0088  0.2918 -0.2439
 7353W        W23537  18.635   8.433  10.939  0.2177 -0.1251 -0.2760
 7354W        W23538   1.454  17.553  11.552 -0.1235  0.0918  0.2223
 7355W        W23539   9.222  11.993   2.723  0.3633 -0.0436  0.0229
 7356W        W23540  11.670  17.841   3.390 -0.1907  0.0871 -0.2129
 7357W        W23541   5.973  17.334   3.109  0.2425  0.0532  0.0715
 7358W        W23542  14.121  15.442  14.072 -0.0489  0.0055 -0.3058
 7359W        W23543  11.784  10.125  13.600 -0.1628 -0.1333 -0.0192
 7360W        W23544   1.785   6.065   1.854  0.0037  0.1198 -0.2977
 7361W        W23545  17.634   2.784   0.694 -0.2750  0.1566  0.0285
 7362W        W23546   4.626  10.940   3.446  0.1233  0.1138  0.1143
 7363W        W23547  11.990  11.047   2.813 -0.2018 -0.2705 -0.1357
 7364W        W23548   9.083  12.279   0.756  0.0101 -0.0652  0.1390
 7365W        W23549  16.678   9.308   1.472  0.0227 -0.2954  0.1980
 7366W        W23550   0.664   6.936   1.822  0.3918 -0.3351  0.1918
 7367W        W23551   3.301   7.706   4.733  0.1197 -0.3856 -0.2965
 7368W        W23552   1.864   9.980  14.469 -0.0746 -0.1364 -0.3371
 7369W        W23553  13.919   2.128  14.588 -0.0587  0.0062 -0.1321
 7370W        W23554   3.146  18.770   2.663 -0.3063  0.1876  0.2012
 7371W        W23555   6.657   9.746   2.594  0.1263  0.0526  0.0796
 7372W        W23556  13.305  14.537  14.190 -0.0113 -0.4121  0.1657
 7373W        W23557  11.047  12.487   1.951  0.0313 -0.1700  0.1046
 7374W        W23558   5.894  16.729  12.806  0.2900 -0.1529 -0.0495
 7375W        W23559  13.170  10.339  14.018  0.0828 -0.1198 -0.1253
 7376W        W23560  11.988  12.926  12.540 -0.4098 -0.5099  0.0411
 7377W        W23561   6.637  12.021   3.414  0.1078  0.2533  0.3663
 7378W        W23562  17.939  11.115  12.631 -0.1966  0.3458 -0.3859
 7379W        W23563  18.477   3.340   4.246 -0.0511 -0.0662 -0.4433
 7380W        W23564   0.613  15.609   2.937  0.2611  0.0044  0.1976
 7381W        W23565   6.632  10.805  12.029  0.1331  0.1438 -0.5166
 7382W        W23566  13.166  15.482   9.793  0.2552 -0.1359  0.3597
 7383W        W23567  13.891   6.791   4.536  0.3551  0.0575 -0.2122
 7384W        W23568   3.484  17.755   4.706 -0.1246  0.1563 -0.0492
 7385W        W23569   0.212   8.550  14.768  0.2316 -0.1010  0.0098
 7386W        W23570   8.272   2.656   3.704 -0.1309 -0.1164  0.2941
 7387W        W23571  16.232  15.771  14.077 -0.2674 -0.0513  0.0227
 7388W        W23572  15.936   7.707   0.407  0.2100 -0.1210 -0.1592
 7389W        W23573  16.308  13.241  13.079  0.0147  0.2254 -0.0171
 7390W        W23574  16.924  13.011  10.969 -0.3217  0.1875  0.1192
 7391W        W23575  15.902  13.771   3.453  0.1301  0.2344  0.0227
 7392W        W23576  17.146   9.973  13.137  0.1248  0.1532  0.0379
 7393W        W23577  12.366  11.671   3.010 -0.1096  0.0933  0.2253
 7394W        W23578  12.127   5.299  10.554 -0.1249  0.2233  0.0312
 7395W        W23579   1.239  18.674  14.907  0.3075 -0.3381 -0.0998
 7396W        W23580   9.237  18.676  12.336  0.2116  0.0215 -0.0589
 7397W        W23581  12.092   7.325  11.202 -0.0717  0.0690  0.1185
 7398W        W23582  19.179   4.944   2.485  0.1147  0.1420 -0.0776
 7399W        W23583   7.684   9.747   5.288  0.2957 -0.0577  0.1971
 7400W        W23584  18.335  12.791  11.362  0.1137 -0.0211  0.1863
 7401W        W23585   4.277   1.160   1.430  0.1571 -0.1220  0.0371
 7402W        W23586   7.891   6.299   3.621 -0.0496  0.0368  0.0680
 7403W        W23587   2.524  13.990  12.009  0.2407  0.2360 -0.3689
 7404W        W23588   0.977  16.571  14.579  0.3340 -0.0581 -0.1997
 7405W        W23589  12.082  16.430   0.517 -0.0421  0.0046  0.4147
 7406W        W23590   3.761   3.410  12.153 -0.1513 -0.0925 -0.3464
 7407W        W23591  15.563   1.538  13.724 -0.2224  0.1104  0.0358
 7408W        W23592   4.510   7.512   2.754  0.0722  0.3034 -0.1188
 7409W        W23593   3.582  11.291  11.180 -0.1332 -0.0648  0.0959
 7410W        W23594   3.960  13.188   3.076  0.1826 -0.1414 -0.1937
 7411W        W23595  11.578   7.892   2.953  0.2415 -0.1063 -0.1795
 7412W        W23596   7.281  14.227  10.316 -0.0793 -0.4754 -0.3370
 7413W        W23597   2.334  12.713  12.819 -0.0631  0.0688  0.1866
 7414W        W23598  10.573   8.658   1.355  0.3448 -0.0769  0.0469
 7415W        W23599   9.957  12.693  12.951 -0.0095 -0.2301 -0.2106
 7416W        W23600  19.013   2.040   1.791  0.2528  0.1439 -0.5076
 7417W        W23601   8.142  15.460  13.805  0.0018 -0.0961 -0.2319
 7418W        W23602   0.630   2.943  13.689  0.1054 -0.2259  0.2843
 7419W        W23603   9.034  13.989   3.460 -0.1956  0.0014 -0.2393
 7420W        W23604   5.536   0.104  13.202 -0.0048 -0.0562 -0.1120
 7421W        W23605   8.778  17.530   1.008  0.1572 -0.2256 -0.0339
 7422W        W23606   5.473   5.663   4.013  0.0915  0.0957 -0.0545
 7423W        W23607  10.675   2.587  10.286  0.0623 -0.2790  0.1116
 7424W        W23608  17.463   5.814  10.675 -0.2076  0.0282  0.0215
 7425W        W23609   4.639  19.168   1.000 -0.1468 -0.3786  0.1726
 7426W        W23610   3.102   4.955   0.367  0.2236  0.0832 -0.0250
 7427W        W23611   1.535  19.174   3.543  0.1160  0.1639 -0.2274
 7428W        W23612   3.571   2.519   2.521  0.0001 -0.3298 -0.0882
 7429W        W23613   4.382   5.412  13.406  0.1288 -0.1482  0.4816
 7430W        W23614   1.086  17.252   5.184  0.0675  0.1418 -0.3695
 7431W        W23615   9.453   5.466  11.580 -0.2254  0.1396  0.1342
 7432W        W23616  11.424   1.477   0.985 -0.3020  0.0503 -0.2031
 7433W        W23617   4.925  15.791   5.320 -0.0215 -0.2524  0.0366
 7434W        W23618  17.038  12.620  13.401  0.2204  0.2494  0.0744
 7435W        W23619  14.465  16.578  10.217  0.6143 -0.0229  0.0498
 7436W        W23620   7.801   2.625   2.149 -0.0753 -0.3712 -0.3099
 7437W        W23621   1.075   8.372   1.940  0.1406  0.2475 -0.2596
 7438W        W23622  11.229   2.991  13.424  0.3462 -0.2391 -0.0143
 7439W        W23623   4.194  10.239   1.280  0.4224 -0.0033 -0.0975
 7440W        W23624  15.537   0.787   1.562 -0.1495 -0.1568  0.1148
 7441W        W23625   8.926   1.547   5.102 -0.0808 -0.4006  0.1083
 7442W        W23626   8.483   5.679  12.699 -0.0336 -0.0778  0.0759
 7443W        W23627   4.905   0.803  11.330  0.1470 -0.2238  0.0780
 7444W        W23628   6.747  17.870  13.990  0.1143  0.2232  0.0846
 7445W        W23629  10.970   5.491  11.129  0.2575 -0.4274 -0.0733
 7446W        W23630   6.545  13.825  11.364 -0.3145 -0.1728 -0.0192
 7447W        W23631   0.950  14.660   2.774 -0.3071 -0.0947  0.2837
 7448W        W23632   5.013   6.953   0.101  0.2241 -0.1089  0.0237
 7449W        W23633  11.830   1.945  14.471  0.1152  0.0025  0.4322
 7450W        W23634   1.385  15.983  10.014  0.0095 -0.0891 -0.2075
 7451W        W23635   7.045  14.225   3.458 -0.1699  0.0293  0.2084
 7452W        W23636   7.557  17.087  10.046  0.0530 -0.0217 -0.2072
 7453W        W23637   3.598  10.454   0.834  0.0925  0.2207 -0.0850
 7454W        W23638  13.129   6.440   3.430  0.1457 -0.1908 -0.1213
 7455W        W23639   6.056   0.582  12.689  0.2516  0.0305  0.0231
 7456W        W23640   6.428  13.330  13.974  0.4955 -0.0970  0.0160
 7457W        W23641  19.384   4.979   2.022 -0.2031  0.4498  0.0485
 7458W        W23642  17.738   2.097   2.944 -0.0929 -0.0609 -0.2057
 7459W        W23643  16.781  18.977   3.748  0.2685 -0.0992 -0.1023
 7460W        W23644  18.812   7.171  10.975  0.1647 -0.0503 -0.4920
 7461W        W23645   0.730   9.031  10.824  0.0500 -0.1297  0.4818
 7462W        W23646   6.422   5.789  12.993 -0.0241 -0.0113 -0.2199
 7463W        W23647   4.241   1.606   2.162 -0.0935 -0.1631  0.1088
 7464W        W23648   7.136   9.359   1.355 -0.2543  0.1992 -0.0569
 7465W        W23649  17.157   7.975   9.994  0.1949  0.1215 -0.1218
 7466W        W23650  18.068   7.379   1.577  0.0020 -0.3635 -0.2767
 7467W        W23651  18.936   6.944  14.739  0.0880 -0.2954 -0.1326
 7468W        W23652  16.583  12.169  14.345  0.0988 -0.1371  0.1228
 7469W        W23653  12.739  15.957   4.365 -0.3059  0.2120  0.1945
 7470W        W23654   5.197   6.747  12.929 -0.0459  0.1804  0.0774
 7471W        W23655  17.012   1.412  14.432 -0.1986  0.0586  0.1881
 7472W        W23656   1.833  13.296  13.018 -0.1964 -0.1919 -0.0868
 7473W        W23657   5.714  15.259  10.619 -0.0078 -0.2711  0.0168
 7474W        W23658  16.432  13.564   1.882  0.5588  0.0739  0.2075
 7475W        W23659  11.587  19.296  11.161  0.2658  0.0037  0.2283
 7476W        W23660   7.318  11.593  13.085  0.1514 -0.3869 -0.0020
 7477W        W23661   8.418  13.278   0.180  0.0831 -0.0858 -0.0048
 7478W        W23662  12.179   5.833  11.494 -0.0785 -0.2900  0.2953
 7479W        W23663   0.919  18.191   2.765 -0.0780  0.3445  0.0477
 7480W        W23664   5.123   4.480   1.291 -0.0227  0.1420 -0.0362
 7481W        W23665  18.470  18.009   0.472  0.1572  0.2368 -0.1157
 7482W        W23666  18.154  17.504  14.864 -0.1127  0.2285  0.0686
 7483W        W23667   5.227  11.179   2.714  0.1286  0.1092  0.1627
 7484W        W23668   7.560   7.525   0.232  0.0296  0.1148 -0.0969
 7485W        W23669  18.289   2.454  10.921  0.0561 -0.0758  0.2738
 7486W        W23670  16.791   3.347  10.869  0.2047 -0.0159 -0.0944
 7487W        W23671  17.008  12.700   3.940  0.3874 -0.1286 -0.0651
 7488W        W23672  12.524   6.727   2.692  0.0905 -0.1280 -0.0546
 7489W        W23673   8.107  13.293  10.773  0.0697  0.0020  0.0302
 7490W        W23674   1.697  14.418  11.593 -0.1189 -0.0991  0.0192
 7491W        W23675  18.907   7.561  10.615  0.0424  0.0264  0.0346
 7492W        W23676   6.814  18.734  13.000  0.0276 -0.0822 -0.0502
 7493W        W23677   9.191   6.269  13.001 -0.0439 -0.0112  0.0330
 7494W        W23678  12.753  16.814  12.453  0.0802  0.0686  0.0602
 7495W        W23679  14.149  15.254   3.186 -0.2370  0.0949 -0.4697
 7496W        W23680  17.427  18.763  13.789 -0.0448  0.1057  0.0841
 7497W        W23681  16.423   6.697   3.469  0.0736  0.0177 -0.0089
 7498W        W23682   5.989   5.250   3.743  0.2471 -0.3695  0.1358
 7499W        W23683   0.555  12.189   3.066 -0.0004  0.0183 -0.0321
 7500W        W23684   2.934  18.451   4.830 -0.0165 -0.0697  0.2419
 7501W        W23685   9.995   9.732  14.178 -0.0082 -0.2384 -0.0315
 7502W        W23686   1.171  15.291  12.271  0.0037  0.3065  0.3922
 7503W        W23687  16.709  11.673   1.453 -0.0720  0.1629  0.0719
 7504W        W23688  15.037   9.648   3.447  0.0386 -0.1444  0.2125
 7505W        W23689   3.610  17.711   2.490 -0.0322  0.0683 -0.2083
 7506W        W23690  12.390  14.753  12.968 -0.0593  0.1858  0.0838
 7507W        W23691  11.157   7.987   1.612  0.2897  0.2915  0.1002
 7508W        W23692  15.152  18.728  14.041 -0.1444  0.0105 -0.1991
 7509W        W23693  18.367  18.821   0.180 -0.1668 -0.1913  0.1480
 7510W        W23694   3.466   1.650   2.650  0.0275  0.5849 -0.0582
 7511W        W23695   5.215   2.916   3.918  0.2971  0.1714  0.3035
 7512W        W23696   0.596   8.037  10.574  0.0111  0.3289 -0.0794
 7513W        W23697  14.328  14.905   2.924  0.0486  0.3927 -0.1114
 7514W        W23698   9.966  14.147  11.472  0.0439 -0.0601  0.2717
 7515W        W23699   4.059   1.205  14.041 -0.2306  0.0889 -0.3922
 7516W        W23700   6.451  16.224   3.332 -0.0788  0.0002 -0.2460
 7517W        W23701  12.551  14.284  13.214 -0.0474 -0.1563 -0.0931
 7518W        W23702  16.560   0.737   0.790  0.1196 -0.0243 -0.2762
 7519W        W23703  10.479  14.427   0.752  0.1324  0.1713 -0.2946
 7520W        W23704  13.056  19.306   1.209 -0.2276 -0.0050 -0.1165
 7521W        W23705  17.439  13.376  13.517  0.0759  0.3832 -0.2599
 7522W        W23706   1.850   5.545  12.207  0.1535  0.0387  0.3816
 7523W        W23707   9.307   1.036  11.636 -0.0976  0.0183 -0.3568
 7524W        W23708   9.684   2.187  11.868  0.2080  0.1982  0.0510
 7525W        W23709  19.270   4.247  13.635 -0.1419  0.0544  0.2388
 7526W        W23710  19.288  18.116  12.548  0.1272  0.0190  0.1900
 7527W        W23711  17.017   1.515   3.454 -0.0622 -0.1813  0.1237
 7528W        W23712  18.711  11.937   9.596  0.0661 -0.1144 -0.2675
 7529W        W23713   8.937   7.863   2.205  0.0135  0.0881 -0.2082
 7530W        W23714   6.889   7.991  13.005  0.0729  0.0702  0.0060
 7531W        W23715  12.566  13.231   1.650  0.0794  0.0352  0.3753
 7532W        W23716  19.048   5.871  14.712  0.2808  0.1498  0.1777
 7533W        W23717   7.959  12.542   0.208 -0.1484 -0.1630 -0.3159
 7534W        W23718   5.876  13.255   3.845 -0.1328  0.0482 -0.2087
 7535W        W23719  16.413   2.924  13.081  0.6018  0.1240 -0.2909
 7536W        W23720   6.585  13.125   0.838 -0.0551 -0.0754 -0.2770
 7537W        W23721   8.634   2.422  10.431  0.1105 -0.1420 -0.0962
 7538W        W23722  14.124   4.843   1.629  0.0091  0.1270  0.3899
 7539W        W23723   0.244   3.582  12.496  0.1228  0.0107 -0.0429
 7540W        W23724   3.329   1.503  11.670 -0.2003 -0.2620  0.0304
 7541W        W23725  14.910   1.032   4.715 -0.1205  0.2654  0.0871
 7542W        W23726  11.599  14.674   0.877 -0.2237  0.1482  0.0802
 7543W        W23727   1.761   0.871   2.574  0.0501 -0.1398  0.1842
 7544W        W23728   6.838   0.681   2.405  0.3537 -0.1677 -0.0475
 7545W        W23729  13.975   1.054  12.731  0.2549 -0.2457  0.0755
 7546W        W23730  12.086   0.283   0.726 -0.1503 -0.1246  0.1336
 7547W        W23731  15.096   6.319  12.855  0.1275 -0.0944  0.1653
 7548W        W23732   6.782   5.409  11.361  0.2991  0.1329 -0.2185
 7549W        W23733  18.100  14.849   1.209  0.0289  0.4666 -0.1392
 7550W        W23734  18.416   4.390   1.412  0.1106  0.3702  0.1595
 7551W        W23735  17.923   8.915  11.593  0.1416 -0.2356  0.0680
 7552W        W23736   8.459   9.513  13.118  0.1721 -0.0854 -0.2857
 7553W        W23737  15.724   8.523  10.744  0.2176 -0.1329 -0.3354
 7554W        W23738   8.332   8.910   1.710 -0.0685 -0.1039 -0.3435
 7555W        W23739   8.789   2.975   0.555  0.0529  0.0595  0.0455
 7556W        W23740   4.425   6.496   5.884  0.1930 -0.1393 -0.1907
 7557W        W23741   1.536   5.954   2.352 -0.0478  0.1489 -0.0479
 7558W        W23742   9.035  15.814   2.521 -0.1542 -0.1058  0.2343
 7559W        W23743  16.224   0.583   2.344  0.0974 -0.0184  0.2379
 7560W        W23744   6.892   3.620   5.905 -0.1484 -0.0530 -0.0791
 7561W        W23745   9.397   6.256  14.603 -0.0447  0.2730 -0.1929
 7562W        W23746   3.066   0.613  13.808 -0.2242 -0.0198 -0.0070
 7563W        W23747   7.547  10.209  11.022  0.0830 -0.0861 -0.0769
 7564W        W23748  12.669  10.947   1.628 -0.0900 -0.0636 -0.1360
 7565W        W23749   6.157   5.288  14.156  0.1451 -0.1683 -0.1137
 7566W        W23750   0.310   2.163  14.429 -0.0426 -0.5452 -0.0249
 7567W        W23751   4.265  13.565   3.924 -0.1350  0.3636  0.0158
 7568W        W23752   1.192   6.002   4.225 -0.2157  0.0767  0.1072
 7569W        W23753  14.869   7.822   4.090 -0.1083  0.0450  0.0233
 7570W        W23754  17.186  15.288   0.095  0.0203  0.0130 -0.1572
 7571W        W23755   5.895   5.932   2.611 -0.3133  0.0146  0.1543
 7572W        W23756  15.967  16.486  11.575  0.0975  0.1360  0.2317
 7573W        W23757  13.881  13.590  12.324  0.1132 -0.2683  0.0637
 7574W        W23758  10.948   4.921   1.471  0.0733 -0.1852  0.0788
 7575W        W23759   3.510  11.697   6.226  0.2829  0.3347  0.0060
 7576W        W23760  10.928  13.726  14.526 -0.1261  0.0486  0.0793
 7577W        W23761   2.734  12.578   2.716  0.0423 -0.0971 -0.0247
 7578W        W23762  12.139  12.987   0.593  0.0284 -0.3906 -0.1707
 7579W        W23763  10.003   4.267  10.923 -0.1621 -0.0809  0.0616
 7580W        W23764   5.209  12.971   3.506  0.2301  0.1840 -0.1679
 7581W        W23765  10.101   9.866  13.646  0.4336  0.2124  0.0940
 7582W        W23766  11.355   3.638   0.514  0.1556  0.2316 -0.2773
 7583W        W23767   7.116   5.542  14.565 -0.1287 -0.0244 -0.2352
 7584W        W23768  18.142  17.671   2.632 -0.0016 -0.0684 -0.2260
 7585W        W23769   4.066  14.035   4.897  0.3978  0.1251 -0.4666
 7586W        W23770  16.375   7.396  10.240  0.1252  0.0095  0.2073
 7587W        W23771  18.973  17.138   2.707 -0.0902  0.0946 -0.0842
 7588W        W23772   0.773   6.270  12.805 -0.1435 -0.0639 -0.0337
 7589W        W23773  19.264  15.886   0.634  0.1706 -0.2881 -0.0254
 7590W        W23774  11.702  11.520   0.161  0.0085  0.1301 -0.0192
 7591W        W23775   6.630   5.370   0.915 -0.1320  0.2972 -0.1509
 7592W        W23776   1.251  11.912  12.990 -0.3198 -0.1705 -0.2632
 7593W        W23777  13.782   9.247   0.138 -0.0652 -0.1541 -0.1051
 7594W        W23778  11.655  12.030   3.538  0.1126  0.0314 -0.1442
 7595W        W23779  11.265  17.363  13.803  0.0810 -0.2432 -0.0730
 7596W        W23780   6.219  19.146  10.173 -0.1264  0.1308 -0.0827
 7597W        W23781  13.659  10.580  13.884 -0.0039 -0.2020 -0.1487
 7598W        W23782   1.436  15.627  14.732 -0.2574 -0.0656 -0.2533
 7599W        W23783  13.198  10.490   2.931 -0.0523 -0.1307  0.1015
 7600W        W23784  16.770   5.864   3.548 -0.2135 -0.2357  0.2151
 7601W        W23785   8.189  17.036  12.461  0.3483 -0.1780  0.1992
 7602W        W23786   7.305  12.702   2.285  0.2189 -0.0065 -0.0743
 7603W        W23787  13.077   6.987   2.858 -0.3499 -0.1743  0.0065
 7604W        W23788   5.754   8.535  13.845  0.1791 -0.4439  0.2746
 7605W        W23789   1.352   8.619   4.770  0.2602  0.3631  0.2521
 7606W        W23790  17.941   0.384   2.614  0.1106  0.2375 -0.3225
 7607W        W23791  15.379   8.345  14.702  0.1180 -0.4364 -0.0690
 7608W        W23792   9.226   5.711  10.516  0.0133  0.4159 -0.1939
 7609W        W23793   5.134  14.968   2.298 -0.3392  0.1383 -0.3248
 7610W        W23794   7.023  16.638  10.262 -0.2289 -0.1658  0.3182
 7611W        W23795   4.056   9.036  12.579  0.0185  0.1339  0.0617
 7612W        W23796   2.811  17.237   9.750 -0.0563 -0.0936  0.0450
 7613W        W23797  10.022   2.611  11.035  0.0039  0.4126  0.0073
 7614W        W23798   2.405  18.654   4.574 -0.0126 -0.2295 -0.1159
 7615W        W23799  17.386  11.380   1.502 -0.1540 -0.0842  0.0404
 7616W        W23800  12.609  11.236  12.508 -0.0706  0.0016  0.1887
 7617W        W23801  12.111  13.597   4.160  0.2753 -0.1674  0.2609
 7618W        W23802   0.411   0.580   2.465 -0.2065  0.1689 -0.4228
 7619W        W23803   3.372  19.103   3.027 -0.1520 -0.3549  0.1897
 7620W        W23804  17.177  15.455   3.641 -0.1093 -0.0087  0.2896
 7621W        W23805  10.338  18.973   2.777  0.1188  0.0875 -0.2343
 7622W        W23806   0.865   5.284   2.368  0.1594 -0.0255 -0.2661
 7623W        W23807   6.387  18.477  13.126 -0.0709  0.0921 -0.0722
 7624W        W23808   9.671   2.933   2.830  0.1916  0.2536 -0.0835
 7625W        W23809   5.146   9.474  10.881  0.0875  0.2854 -0.1173
 7626W        W23810   7.765  17.925  12.383 -0.2859 -0.2945 -0.1153
 7627W        W23811  15.046  17.012   4.285 -0.1474  0.1648  0.3313
 7628W        W23812  11.248   2.915   1.918 -0.1578  0.0596 -0.1499
 7629W        W23813   5.533   6.950   4.826  0.1154 -0.0729 -0.1560
 7630W        W23814   9.759  17.906   0.906 -0.1324  0.2633 -0.1205
 7631W        W23815   3.184  10.791   5.846 -0.0370 -0.0187 -0.0188
 7632W        W23816   9.687  10.638  12.781 -0.1230  0.0616 -0.5318
 7633W        W23817  17.240  18.653   0.161 -0.1297 -0.3037  0.1006
 7634W        W23818   9.170   8.934  12.172 -0.3353  0.1495 -0.0191
 7635W        W23819   3.426   6.160  10.361  0.0450 -0.0123  0.0248
 7636W        W23820  14.930   0.539   0.590 -0.0819 -0.0410  0.1328
 7637W        W23821  17.040  17.139   0.726  0.1218  0.0772  0.2258
 7638W        W23822   3.040  12.001   3.204  0.0035 -0.0045  0.3332
 7639W        W23823   2.586   3.330  10.842  0.3873  0.1188  0.1471
 7640W        W23824   8.986   8.777  14.616 -0.4062 -0.4793  0.1300
 7641W        W23825   7.611   5.519  13.741  0.2749 -0.3172 -0.0167
 7642W        W23826   1.820  18.320  11.121 -0.0914 -0.0081 -0.0339
 7643W        W23827  18.269   8.551   5.689 -0.0613 -0.0945 -0.2462
 7644W        W23828   5.246   1.876  11.974 -0.2270 -0.0987 -0.0240
 7645W        W23829  12.155   1.200  11.354 -0.0463  0.1419 -0.0658
 7646W        W23830  18.516  10.734   1.019 -0.1730  0.0368 -0.2603
 7647W        W23831   6.310   6.707  10.826  0.2044  0.1145  0.0739
 7648W        W23832   2.833  15.929  10.328 -0.1978 -0.1984 -0.0847
 7649W        W23833  10.931  11.845  13.722  0.3475 -0.0860  0.1113
 7650W        W23834  13.647   2.757   9.899 -0.3775 -0.2868  0.0444
 7651W        W23835  17.749   1.839  14.759 -0.0727 -0.0409  0.0301
 7652W        W23836   8.562   2.086  14.451  0.1583  0.0869  0.0178
 7653W        W23837   7.439   2.010  13.383 -0.4075  0.0452  0.1640
 7654W        W23838   9.116   2.091   1.399 -0.4409 -0.0039 -0.0716
 7655W        W23839  17.677   6.841  14.435  0.0865 -0.2244 -0.3677
 7656W        W23840  12.774   8.790   2.856  0.1858 -0.2549 -0.0500
 7657W        W23841   1.928  14.744   1.508  0.2831  0.4155  0.3798
 7658W        W23842   2.294  13.513  11.651  0.0266  0.0487  0.0961
 7659W        W23843  16.149  13.498   9.707 -0.4259  0.5217 -0.0789
 7660W        W23844  17.375  10.341  12.893  0.0036 -0.0099  0.2008
 7661W        W23845   4.464   9.211   0.472  0.2744 -0.2365  0.0120
 7662W        W23846  16.787   1.295  13.923  0.0157 -0.1062  0.1439
 7663W        W23847  15.393  10.881  14.638  0.1739 -0.0746 -0.2340
 7664W        W23848   0.260   2.479  10.451  0.0449 -0.1248 -0.1261
 7665W        W23849   7.404  15.158  10.986  0.0604  0.1048 -0.0273
 7666W        W23850   3.432   4.700   0.036  0.1229 -0.1082 -0.0747
 7667W        W23851   9.856  10.295   3.707 -0.1644  0.0453 -0.1396
 7668W        W23852   5.285  10.215   0.444 -0.0757  0.1861 -0.2100
 7669W        W23853  14.409   9.819   0.846 -0.0452  0.0178 -0.1158
 7670W        W23854   9.171   4.650  11.274 -0.0060 -0.0483  0.1535
 7671W        W23855  10.895   7.291   3.204 -0.1023 -0.3226 -0.0673
 7672W        W23856  12.497  11.385  10.987 -0.1385  0.3094 -0.0090
 7673W        W23857   1.508   2.843   4.201  0.0528 -0.0290 -0.2113
 7674W        W23858  17.102   0.818   3.581  0.2092  0.0842  0.0435
 7675W        W23859  13.247   6.122   1.177 -0.0364 -0.1037  0.1027
 7676W        W23860  12.822   6.895  13.778  0.1201  0.0416 -0.1909
 7677W        W23861  11.964  11.919  14.813  0.2791 -0.1052  0.1329
 7678W        W23862   1.739   5.040   4.511  0.4139  0.1983 -0.1950
 7679W        W23863  10.352   1.318  10.617  0.2219  0.1185  0.2358
 7680W        W23864   4.946   9.162   0.416 -0.3869 -0.2166 -0.0271
 7681W        W23865   1.730  13.550   0.641 -0.0202 -0.0150  0.4069
 7682W        W23866   6.473   9.594  12.946  0.1431 -0.1756  0.0939
 7683W        W23867   4.235   6.334   4.430 -0.0703 -0.0233  0.2909
 7684W        W23868  18.361  18.942   2.605  0.1296  0.2276 -0.0120
 7685W        W23869  17.923  12.600  13.079  0.0831  0.3047 -0.0598
 7686W        W23870  16.731   5.918  11.381  0.1479 -0.2901  0.1217
 7687W        W23871   1.449   5.637   3.843  0.0348  0.0350  0.3003
 7688W        W23872   3.635  12.271   0.038 -0.0231 -0.0138 -0.0298
 7689W        W23873  17.555   2.852   1.973 -0.1661  0.1430 -0.0945
 7690W        W23874  11.662   3.236   0.593 -0.1236  0.1207 -0.0066
 7691W        W23875   4.328  19.076  13.634 -0.0739  0.0566  0.1636
 7692W        W23876  15.787   1.447  11.940  0.2453 -0.1712  0.0158
 7693W        W23877  13.774   3.448  10.586  0.1527 -0.1253  0.5194
 7694W        W23878  11.257   8.510   2.636 -0.0916 -0.0688  0.1439
 7695W        W23879  10.749   5.013   4.379 -0.3161  0.0214  0.2042
 7696W        W23880   9.213  12.190   4.602 -0.1748  0.2775 -0.4303
 7697W        W23881   9.762   0.452  14.868  0.0129 -0.1659 -0.1398
 7698W        W23882   9.434  10.007   2.896  0.2515  0.0554  0.3131
 7699W        W23883   4.003   2.138   3.964 -0.0907 -0.0010  0.1752
 7700W        W23884  14.879  16.536   2.258 -0.3600  0.2952  0.4116
 7701W        W23885   0.970   0.979   0.899 -0.0287  0.0894 -0.0526
 7702W        W23886  13.914  14.296   3.246  0.0812  0.0297  0.0232
 7703W        W23887  17.815  11.473   1.078 -0.2779 -0.4856  0.2506
 7704W        W23888   8.342   5.704   0.284  0.3059 -0.0527  0.0264
 7705W        W23889   6.304   1.578  12.915 -0.2590  0.2267  0.0831
 7706W        W23890  13.132  12.145  11.043 -0.1937  0.0050  0.1297
 7707W        W23891   5.715   6.617  13.820 -0.2824  0.0607 -0.0939
 7708W        W23892   7.588  15.423  13.960 -0.0572 -0.0127  0.2284
 7709W        W23893   0.786  14.199   2.664  0.0571  0.1111  0.2666
 7710W        W23894  15.809   0.246  13.124  0.0092 -0.2227  0.2248
 7711W        W23895   3.617   7.088  10.663 -0.0821  0.1279 -0.0326
 7712W        W23896   6.731   6.134   4.546  0.0802  0.1234  0.0672
 7713W        W23897   9.939  13.813   0.288 -0.0197  0.1094  0.3827
 7714W        W23898  13.735  15.181  12.317  0.0629 -0.3127  0.1162
 7715W        W23899   8.356   1.396  11.397  0.4055 -0.3799 -0.2238
 7716W        W23900   3.281  10.641  12.847  0.2233  0.0641  0.2550
 7717W        W23901   5.233  13.905  12.457  0.1941  0.2099  0.2400
 7718W        W23902  18.660   8.169   3.034  0.2846  0.1422  0.2370
 7719W        W23903   4.621  11.740  12.696 -0.0175  0.0628  0.4523
 7720W        W23904   9.292  14.543   3.817  0.0734  0.0188  0.0423
 7721W        W23905   9.238  14.825   2.477 -0.3299 -0.1115  0.1346
 7722W        W23906   8.601   3.293   1.447  0.0744 -0.2028  0.0049
 7723W        W23907   6.968   6.916   5.489 -0.0948  0.2310  0.2674
 7724W        W23908  16.690   4.024   2.739 -0.0016 -0.3621  0.2720
 7725W        W23909   6.837  17.775   3.484 -0.0711  0.1763  0.2930
 7726W        W23910   5.950  17.376   4.291  0.3151 -0.1337  0.2080
 7727W        W23911   7.289   5.838   0.426  0.3380 -0.0911 -0.2194
 7728W        W23912   3.471  15.239  10.453  0.1247 -0.0868 -0.2294
 7729W        W23913  11.905  13.567   3.691 -0.1562  0.2225 -0.0487
 7730W        W23914   9.877   9.316   3.440 -0.4358  0.1905 -0.1355
 7731W        W23915   8.827   6.756  12.390 -0.0812 -0.0050  0.2870
 7732W        W23916  16.958  10.717   0.831 -0.2554 -0.0356 -0.3914
 7733W        W23917   5.948   2.397  14.840 -0.1352 -0.1837  0.3481
 7734W        W23918  16.141  17.831   1.396 -0.3191  0.0790 -0.1790
 7735W        W23919  16.513   3.570  14.612 -0.0471 -0.3781  0.2559
 7736W        W23920  17.742  16.247  14.380 -0.2593 -0.2404  0.1603
 7737W        W23921   6.883   0.937  12.609 -0.0166  0.0023  0.2778
 7738W        W23922   4.827  16.342  12.038  0.0767  0.2573  0.1421
 7739W        W23923  12.608   6.348  13.543 -0.1991  0.1996  0.0484
 7740W        W23924   7.908   9.214   0.267  0.3141  0.6303 -0.0593
 7741W        W23925  16.327   6.508  13.303 -0.1612  0.2649 -0.3139
 7742W        W23926  12.678   2.837   2.059 -0.2596 -0.1709 -0.0856
 7743W        W23927  15.336   8.947  10.795  0.4305  0.0429 -0.4136
 7744W        W23928   5.526   9.417  12.886 -0.4660  0.0958 -0.0973
 7745W        W23929  15.301   7.344  11.842 -0.0721 -0.3301  0.0901
 7746W        W23930   6.104   6.819  11.328 -0.1526 -0.0060  0.0800
 7747W        W23931   4.733  17.356  13.644 -0.1472  0.2263 -0.1856
 7748W        W23932  11.453  11.121  14.936  0.0405 -0.1253 -0.1865
 7749W        W23933   6.135   8.568  14.758  0.1578  0.2195 -0.3752
 7750W        W23934   8.163   7.964  13.804 -0.1974  0.0238  0.1532
 7751W        W23935   9.577   1.680   0.343  0.0869  0.0843  0.1227
 7752W        W23936   6.691  11.796   0.143 -0.1644 -0.2207  0.1175
 7753W        W23937   5.296   0.690  10.997 -0.0591  0.2250  0.1384
 7754W        W23938   4.552   8.346   3.305  0.0651  0.0791  0.3011
 7755W        W23939  13.480   0.373  12.421 -0.1239  0.3818  0.1444
 7756W        W23940  17.353  16.023  10.202 -0.0289 -0.0242 -0.2258
 7757W        W23941   3.215  12.841   2.599  0.1867 -0.0096 -0.2325
 7758W        W23942   4.238   3.454   2.901 -0.2639  0.4988 -0.1997
 7759W        W23943   9.237  13.539   3.707  0.0364 -0.1373  0.0639
 7760W        W23944  15.252  15.224  11.428 -0.4585  0.2000  0.0228
 7761W        W23945   2.179  14.473  11.360  0.0315  0.1085 -0.0553
 7762W        W23946  16.312  12.395  12.185  0.1203 -0.1027  0.0121
 7763W        W23947  17.857  19.269   3.673 -0.1825 -0.0634  0.1090
 7764W        W23948  14.288  16.465   0.779 -0.2771  0.1683 -0.1455
 7765W        W23949   6.593  13.584   6.022 -0.1250  0.1246  0.0121
 7766W        W23950  19.158   4.644  11.804  0.0314 -0.1639 -0.2123
 7767W        W23951  12.113  12.052   2.080 -0.1531  0.0290 -0.1015
 7768W        W23952  12.860  12.410  10.019 -0.2066  0.1226 -0.3962
 7769W        W23953  18.999   9.584  14.503 -0.1107 -0.0799 -0.0665
 7770W        W23954   5.918   4.539   2.477 -0.1765 -0.1823 -0.0390
 7771W        W23955   5.185  14.649  11.021 -0.1917 -0.0608 -0.0662
 7772W        W23956   4.031  14.685   5.589 -0.0548 -0.1025  0.0166
 7773W        W23957  10.508   8.183   2.202 -0.1134 -0.2548 -0.2912
 7774W        W23958   1.376  12.788   2.982 -0.4125 -0.0347  0.0031
 7775W        W23959   2.495   8.829   4.451 -0.1003 -0.2677  0.1603
 7776W        W23960  12.996   2.583  12.603 -0.0826 -0.2525  0.2198
 7777W        W23961  13.690  13.033   4.174 -0.0717  0.1784 -0.4000
 7778W        W23962   0.766   8.627  11.236  0.3333 -0.3905 -0.0867
 7779W        W23963   4.158  14.024  13.956  0.1769 -0.0923  0.0385
 7780W        W23964  15.800   2.519  11.928  0.1025  0.0919 -0.1714
 7781W        W23965   4.180   3.979   6.084 -0.2100  0.4569 -0.1330
 7782W        W23966  16.108  11.105   3.758 -0.2831 -0.2052 -0.0348
 7783W        W23967   6.311   9.287  11.439 -0.2383 -0.2422  0.2892
 7784W        W23968  19.104  13.846   0.582  0.2487 -0.0898  0.3334
 7785W        W23969   7.914   9.774   4.803 -0.3232 -0.1561  0.0407
 7786W        W23970   4.546   8.187   1.241  0.2860  0.0456 -0.3857
 7787W        W23971   4.853   0.624  10.729  0.2368 -0.1971 -0.1818
 7788W        W23972   0.329  15.211  11.652  0.1237 -0.2985 -0.2706
 7789W        W23973   1.906   6.331  13.305  0.0895 -0.1855 -0.0277
 7790W        W23974   0.998  17.777   4.941  0.1541 -0.3108  0.1982
 7791W        W23975  12.133   6.435  11.559  0.0189 -0.0284  0.2010
 7792W        W23976  15.686   5.691  14.084  0.2335 -0.1059  0.1117
 7793W        W23977  17.819  18.965   1.196  0.0766 -0.2177  0.1006
 7794W        W23978   2.845   5.893   4.458 -0.3026 -0.1254 -0.0660
 7795W        W23979   7.351   3.962   1.592  0.0935 -0.1078 -0.1297
 7796W        W23980   2.505   7.346   3.584 -0.0902 -0.0607  0.1992
 7797W        W23981  14.327   1.902  13.171 -0.3703 -0.0199 -0.4282
 7798W        W23982   2.605   7.094  11.680 -0.2445 -0.0391 -0.3686
 7799W        W23983   4.409   0.194   4.718  0.0541 -0.0453  0.0524
 7800W        W23984   7.175   8.494   5.110 -0.3619  0.2560 -0.2166
 7801W        W23985   6.959   4.157   3.504 -0.2193 -0.2479  0.1453
 7802W        W23986  17.416   6.666  11.607 -0.2695  0.2111 -0.0601
 7803W        W23987   1.421   7.542   1.932 -0.3817 -0.0185  0.1303
 7804W        W23988   7.249   0.015  11.026  0.1185 -0.1988  0.1807
 7805W        W23989   8.203  14.311   0.769 -0.5045 -0.4152 -0.2757
 7806W        W23990   1.310   0.562   4.168  0.0345 -0.1033  0.1894
 7807W        W23991  17.250  17.301   1.151  0.0419  0.3102  0.1753
 7808W        W23992  10.611  19.043  13.497  0.0269  0.0486 -0.1181
 7809W        W23993   0.708   4.440   1.218 -0.1452  0.1434  0.2903
 7810W        W23994  10.469  15.250  14.425  0.1410 -0.2501  0.2557
 7811W        W23995  11.564  15.619  11.617  0.0430  0.0411 -0.0738
 7812W        W23996  14.891   8.034  10.234  0.0516 -0.0812 -0.3444
 7813W        W23997   3.506   7.692   5.653  0.1146 -0.1217 -0.0580
 7814W        W23998  18.142   5.762  14.241 -0.1055  0.2372 -0.0233
 7815W        W23999   6.073   8.267   1.443  0.2891  0.1987 -0.3150
 7816W        W24000   1.591   4.781   5.781 -0.0913  0.0625  0.0162
 7817W        W24001  16.654  18.558   2.460 -0.2218 -0.2336  0.0668
 7818W        W24002  17.721   8.541  14.494  0.1323  0.0492  0.1383
 7819W        W24003   5.916  10.762   3.958 -0.2642  0.0972 -0.2307
 7820W        W24004  10.666  10.089  11.631  0.0158  0.3769 -0.1577
 7821W        W24005   2.134   5.813   2.191 -0.0317 -0.0291 -0.0922
 7822W        W24006   5.746  13.386   4.349 -0.1836 -0.2029 -0.2936
 7823W        W24007  18.997  16.578   0.312 -0.5423  0.0273  0.0213
 7824W        W24008  16.014  11.721   4.619  0.0918 -0.0496 -0.0126
 7825W        W24009   8.701  15.819   0.144 -0.0731 -0.1787  0.1010
 7826W        W24010  16.879  18.038  13.595  0.1639 -0.0487  0.0028
 7827W        W24011   7.642   4.398  12.058  0.3892 -0.2982 -0.0863
 7828W        W24012  16.942  18.619   4.725  0.2171  0.2447  0.0146
 7829W        W24013   8.791  13.530   3.460  0.0010  0.1056  0.1273
 7830W        W24014   2.657   0.871   2.998 -0.1356  0.1511 -0.3096
 7831W        W24015   9.001  10.302  14.555 -0.1409 -0.2228 -0.1278
 7832W        W24016   9.186   2.529  12.855  0.3980  0.1797  0.0522
 7833W        W24017   5.126   5.255   5.601  0.1251 -0.5501 -0.4788
 7834W        W24018   8.260   6.464  11.151 -0.3577 -0.1183  0.0551
 7835W        W24019  16.011   6.163   2.988  0.0316  0.2783 -0.0789
 7836W        W24020  17.829   0.745  11.860 -0.1088 -0.0155  0.3612
 7837W        W24021  16.601  17.948  10.837 -0.1175  0.1426 -0.0362
 7838W        W24022  17.876  11.723   2.862  0.0847 -0.0397 -0.0165
 7839W        W24023   1.838   8.358  12.737  0.1277  0.4740  0.2107
 7840W        W24024   3.451   4.396   4.348  0.0553 -0.1424  0.1436
 7841W        W24025   7.840   3.985   1.912  0.2042 -0.4697  0.3871
 7842W        W24026  17.566  18.417  12.699  0.2563 -0.1857 -0.0233
 7843W        W24027  14.970  19.142   4.587  0.1286 -0.1475  0.3226
 7844W        W24028  13.038   2.117  12.653 -0.0751 -0.0770  0.2385
 7845W        W24029   7.353   2.544   2.372 -0.0164 -0.0827 -0.3061
 7846W        W24030   5.004   3.415   3.605  0.0001 -0.0521 -0.2066
 7847W        W24031  12.811  16.399  13.261 -0.2206  0.2820 -0.0185
 7848W        W24032   8.116   6.246   2.556 -0.0892 -0.2036  0.1007
 7849W        W24033   6.116   5.875  14.778 -0.1624 -0.2065  0.1738
 7850W        W24034   2.027  18.407   1.128  0.3069 -0.3132 -0.3770
 7851W        W24035  17.450  10.873   2.625 -0.1722 -0.0295 -0.2790
 7852W        W24036  13.175   2.539   4.707 -0.0200  0.0257  0.0307
 7853W        W24037  10.095  14.541  11.171 -0.0715 -0.2634 -0.0076
 7854W        W24038   9.036   1.646   4.562  0.0576 -0.1898 -0.1617
 7855W        W24039   1.598  16.501   4.424  0.1762  0.1614 -0.1061
 7856W        W24040   8.176   2.374  10.679  0.1386  0.0540 -0.1590
 7857W        W24041  11.206   9.229  12.948 -0.0297  0.1153  0.1085
 7858W        W24042  16.828   5.460  11.216 -0.2993 -0.0072 -0.1097
 7859W        W24043   9.683  11.388   0.745 -0.0152  0.2424  0.0681
 7860W        W24044  19.103  11.136   2.340 -0.1117  0.6294  0.5095
 7861W        W24045   2.340   0.737   4.908 -0.0082  0.4042  0.0402
 7862W        W24046  14.877   4.984   4.350  0.3213 -0.2303  0.0308
 7863W        W24047  10.053   3.202   0.182 -0.0971 -0.1960 -0.0410
 7864W        W24048  16.533  15.673   1.955  0.1077  0.3231 -0.2291
 7865W        W24049  17.783   5.722   3.392  0.0264 -0.1787 -0.2410
 7866W        W24050   9.436  10.710  12.030 -0.0373  0.1001  0.1076
 7867W        W24051  12.642  19.141  12.066 -0.1699  0.0227 -0.0541
 7868W        W24052   1.057   6.708   2.575  0.1101 -0.1376 -0.2651
 7869W        W24053   9.064   1.748  14.458  0.0545 -0.2595 -0.0466
 7870W        W24054  11.345   3.191   2.729 -0.2555 -0.2916 -0.4096
 7871W        W24055  16.579   8.258   5.780  0.0999 -0.1246  0.2602
 7872W        W24056   4.266   9.421  10.995 -0.2971 -0.0419  0.1654
 7873W        W24057   4.749  11.141  14.564 -0.1258  0.2350  0.1139
 7874W        W24058  12.391  15.918   2.624 -0.0015  0.1535 -0.3798
 7875W        W24059   9.235  15.291   3.017 -0.2260 -0.1492 -0.1447
 7876W        W24060  12.362   6.757   4.300 -0.5037 -0.0693 -0.2660
 7877W        W24061  10.398  10.202   2.425  0.1900 -0.0306 -0.0508
 7878W        W24062  14.182   7.769   5.184  0.0757  0.0670  0.0899
 7879W        W24063  13.671   9.195   1.916  0.0320  0.2359 -0.0233
 7880W        W24064   7.168   6.747  13.627 -0.2415  0.1932 -0.2035
 7881W        W24065  14.205   1.240  14.850  0.0515  0.0523 -0.0341
 7882W        W24066  15.099  18.362  12.331 -0.0315  0.1912 -0.0803
 7883W        W24067   1.374   9.201   0.537 -0.0686 -0.0950 -0.1413
 7884W        W24068  17.096   8.284   4.561  0.3029  0.0354 -0.0381
 7885W        W24069  15.773   9.026  10.993  0.1207 -0.1946  0.2118
 7886W        W24070   7.506  16.200   1.257 -0.1240 -0.3313 -0.2720
 7887W        W24071   4.323  10.786   4.531  0.0662  0.1749  0.2092
 7888W        W24072  14.946   7.966   3.025 -0.1492  0.1124 -0.1132
 7889W        W24073   4.056   2.215  14.158 -0.0554 -0.2404 -0.1057
 7890W        W24074   0.254  10.779   2.838 -0.1054  0.2993 -0.2652
 7891W        W24075  14.561   6.890  14.774  0.5583 -0.0004  0.1003
 7892W        W24076   9.296   4.612  14.765 -0.1036 -0.0269  0.1151
 7893W        W24077  18.742  11.350   3.962  0.0847  0.0011  0.3358
 7894W        W24078  17.590   4.609   3.689  0.0586 -0.0543 -0.0486
 7895W        W24079  17.623  12.569  14.022  0.1307 -0.1561  0.1033
 7896W        W24080   7.682   5.164   3.292 -0.1063  0.0122 -0.1361
 7897W        W24081  10.242  16.054   1.790  0.0422  0.2780  0.0970
 7898W        W24082  16.263   8.147   1.299  0.0523 -0.0516 -0.1127
 7899W        W24083  11.536   9.857   2.009 -0.0082  0.0402  0.0453
 7900W        W24084   8.267   6.630   0.419  0.0840  0.0622 -0.3649
 7901W        W24085   2.999   2.777  11.349 -0.0799  0.0846  0.0524
 7902W        W24086   3.479   0.906  14.123 -0.0632 -0.4347  0.0453
 7903W        W24087   2.171  16.881  14.671  0.0965 -0.0762  0.1993
 7904W        W24088   8.843   3.620  12.327 -0.3763  0.3814  0.2919
 7905W        W24089   8.535   6.816   5.325  0.1790 -0.0677 -0.0535
 7906W        W24090  16.142  15.589  11.829  0.2114  0.2875 -0.2087
 7907W        W24091   4.516  15.993   3.418 -0.2211 -0.1525  0.1312
 7908W        W24092  16.276  15.257   1.924  0.1115  0.1211  0.2118
 7909W        W24093   8.284  12.283   2.059  0.1364  0.4621  0.1856
 7910W        W24094  10.491  17.444   1.642 -0.0068  0.0725 -0.3284
 7911W        W24095  17.734  13.091   3.857 -0.0530  0.1750  0.5010
 7912W        W24096   8.883   4.941   1.955  0.4203  0.2758  0.2812
 7913W        W24097  13.763  10.887   9.927 -0.0215 -0.1129  0.4961
 7914W        W24098   5.753   7.394  12.990  0.0240 -0.2951  0.1900
 7915W        W24099   0.127   5.436   2.378  0.1043  0.2510 -0.0420
 7916W        W24100   2.423   6.023   0.193  0.2118 -0.1311 -0.2570
 7917W        W24101  13.689  13.215  11.989  0.1977  0.0336 -0.1496
 7918W        W24102   1.063   3.808  14.877  0.1994 -0.1895  0.0500
 7919W        W24103   5.355   7.038   3.938 -0.2643 -0.1819 -0.1257
 7920W        W24104   5.173   0.310  12.592  0.0836 -0.1840 -0.0853
 7921W        W24105  17.088   2.330   2.777  0.1545 -0.0955  0.0482
 7922W        W24106  14.896  13.425   0.574  0.0039  0.1512  0.0762
 7923W        W24107   6.470   3.837  13.801 -0.1869  0.0323  0.1290
 7924W        W24108  11.888   9.016   0.936  0.0757 -0.2390  0.2864
 7925W        W24109  18.615  15.561  13.583 -0.1537  0.1119 -0.0141
 7926W        W24110  18.685   7.591  12.625 -0.1450  0.1668 -0.1464
 7927W        W24111  13.433   8.755   2.034  0.3189  0.3865  0.1278
 7928W        W24112   7.844  12.455  10.795 -0.1020 -0.2296 -0.2200
 7929W        W24113  18.726   6.121   4.097 -0.0754  0.3261 -0.0300
 7930W        W24114  12.797   1.025   2.872 -0.0567 -0.1395  0.1547
 7931W        W24115  10.860  14.318  12.001 -0.0479  0.0125  0.1890
 7932W        W24116   5.828  17.658  11.909  0.3669  0.1206  0.1959
 7933W        W24117  17.497  13.487   1.702 -0.2056  0.1384  0.0138
 7934W        W24118  13.284  12.577  10.236  0.0449 -0.0859  0.2166
 7935W        W24119   5.979   0.304   1.622 -0.0917 -0.4614 -0.1945
 7936W        W24120   7.649  12.999   0.376 -0.0213  0.1543  0.1775
 7937W        W24121   8.409  16.527   0.852 -0.0235 -0.0636 -0.2478
 7938W        W24122   7.920  15.830  13.989  0.2332  0.1081  0.0019
 7939W        W24123   8.750  10.779   1.162 -0.0867 -0.1625  0.1412
 7940W        W24124   1.285  14.214  13.143  0.1296  0.0174  0.2314
 7941W        W24125  19.016  10.260   1.546  0.0273  0.1016 -0.1150
 7942W        W24126  12.619   9.137   4.834 -0.2967 -0.0218  0.1979
 7943W        W24127   9.392   9.118  13.714  0.1737 -0.1887 -0.0485
 7944W        W24128   7.301   7.893  13.298 -0.1486  0.0975  0.1250
 7945W        W24129  17.118   9.008  11.078 -0.2487  0.0208 -0.2894
 7946W        W24130   0.166   8.517   1.477 -0.2624 -0.0895 -0.2821
 7947W        W24131  14.044  15.177  11.892 -0.0407 -0.1288  0.0428
 7948W        W24132   9.584  11.818   3.544 -0.1405 -0.1746 -0.1149
 7949W        W24133   9.331  19.232   2.465  0.2833 -0.1817  0.0390
 7950W        W24134   7.569  10.481  13.332  0.0557 -0.0576 -0.0096
 7951W        W24135  12.143  11.706  13.827 -0.2385  0.1242 -0.4441
 7952W        W24136   7.449  17.638  10.075 -0.1301  0.0106 -0.0474
 7953W        W24137   3.412   8.514  14.291 -0.0854  0.0222 -0.0402
 7954W        W24138  14.602  12.883  14.735 -0.6175 -0.0881  0.3249
 7955W        W24139  11.343   7.306   0.848 -0.0245  0.0416 -0.5269
 7956W        W24140  10.748   5.704  11.632 -0.2924 -0.2761  0.1678
 7957W        W24141  11.289   2.640   1.041 -0.0778 -0.1195 -0.1378
 7958W        W24142   2.354   8.522   5.418  0.2128  0.2505  0.1846
 7959W        W24143   4.973   4.456   5.359 -0.0281 -0.4748 -0.2321
 7960W        W24144   9.121  12.759   3.942 -0.2285  0.2893  0.4147
 7961W        W24145   7.534   1.500  12.231 -0.1487  0.0742 -0.1345
 7962W        W24146  12.469   8.700  14.632  0.1237 -0.0203  0.0169
 7963W        W24147  16.614  16.798  12.457 -0.1114 -0.2066  0.1603
 7964W        W24148   9.163  17.395   4.054 -0.2368 -0.3097 -0.5119
 7965W        W24149   9.367   8.190  11.803  0.0128 -0.1417  0.2546
 7966W        W24150   2.958  17.370  11.832  0.0291  0.2994 -0.1350
 7967W        W24151  18.858  11.865  10.826 -0.1289  0.1855  0.0952
 7968W        W24152  10.301   4.763  11.470 -0.4179  0.1190 -0.2071
 7969W        W24153   0.169  17.731  12.718 -0.1023 -0.1569 -0.1719
 7970W        W24154   0.080  15.327   5.163 -0.3972  0.1599 -0.2070
 7971W        W24155  16.079  15.824   1.091  0.1756 -0.0515  0.0987
 7972W        W24156   9.294   0.348  12.362  0.1280  0.3001  0.1472
 7973W        W24157  13.698   8.030  14.746  0.0316  0.1742 -0.3006
 7974W        W24158   1.395   4.479   2.477 -0.0697 -0.1982 -0.0831
 7975W        W24159   5.682   3.140   5.118  0.0485  0.1585 -0.1748
 7976W        W24160  11.474   0.913  12.974  0.2269  0.2591 -0.0185
 7977W        W24161  12.972   6.491   1.529 -0.2173  0.3063 -0.1985
 7978W        W24162  15.111  13.495  14.904  0.2563  0.2420  0.3594
 7979W        W24163   5.015   1.536   3.584 -0.0994 -0.2848  0.0011
 7980W        W24164   2.947   4.663   2.395 -0.2000  0.1708  0.2681
 7981W        W24165  18.640  10.450   2.419  0.0261 -0.2336 -0.0045
 7982W        W24166   2.210   2.695   4.557 -0.2019 -0.1567 -0.2441
 7983W        W24167   6.700  10.623   1.486 -0.0501  0.0503  0.1591
 7984W        W24168   4.178  19.035  12.806 -0.3618 -0.1750  0.1758
 7985W        W24169   8.445  13.543  11.072  0.0398 -0.2702 -0.0607
 7986W        W24170   3.539   0.401  13.984 -0.1023 -0.1450  0.1605
 7987W        W24171   2.413  10.284  13.118  0.1867 -0.0173 -0.2661
 7988W        W24172   3.180  15.801   3.586 -0.1165  0.2365 -0.2655
 7989W        W24173   1.524   2.724  11.661 -0.2954 -0.0752  0.0312
 7990W        W24174   1.889  14.400   1.878  0.1860 -0.0135 -0.2862
 7991W        W24175   2.185   4.320   5.828 -0.4028 -0.0640  0.2261
 7992W        W24176   8.302   6.006  11.374 -0.2966  0.0033 -0.0346
 7993W        W24177  10.983   5.782   3.405  0.3511 -0.1803 -0.1471
 7994W        W24178   2.456  18.554  12.531 -0.1243  0.0678  0.4437
 7995W        W24179   6.320   4.255   2.136 -0.0592 -0.1368 -0.2470
 7996W        W24180   0.006   7.021   3.327  0.0253  0.1910 -0.0967
 7997W        W24181  14.977  17.926   1.012  0.0792 -0.1717  0.3677
 7998W        W24182   7.653  17.171  11.699  0.1044 -0.1436 -0.1118
 7999W        W24183   0.772  11.755  13.329  0.2985 -0.2579 -0.1128
 8000W        W24184   0.529  10.489  11.673 -0.3350  0.0026 -0.2347
 8001W        W24185   7.259   3.988  13.274  0.0276 -0.1260 -0.0189
 8002W        W24186  13.581  12.546   3.009 -0.0622  0.2045  0.0329
 8003W        W24187  18.579   2.997   2.241 -0.1816 -0.2555  0.0803
 8004W        W24188  15.186   4.872  13.595  0.0605  0.0838  0.3878
 8005W        W24189   3.774   1.287   2.719 -0.3368  0.5568  0.2961
 8006W        W24190   7.837  12.379  11.949  0.0239 -0.2519 -0.3288
 8007W        W24191   3.226   6.801  11.634 -0.4612  0.3670 -0.0628
 8008W        W24192   0.968   1.156   3.540  0.1751  0.2998  0.2869
 8009W        W24193  10.513   7.218   1.925 -0.2302  0.2935 -0.0100
 8010W        W24194  14.525  13.242   1.925 -0.2795  0.0276 -0.4009
 8011W        W24195   6.274   0.786  11.077  0.0591  0.0404 -0.0312
 8012W        W24196   0.531  19.088  13.830 -0.2071  0.0975 -0.2150
 8013W        W24197  12.241   2.633  13.138 -0.0793  0.0404 -0.0370
 8014W        W24198   6.641  17.920  10.629 -0.0418 -0.0837  0.1080
 8015W        W24199  10.131   0.633  13.680  0.1049  0.0755  0.1456
 8016W        W24200   6.039   1.563   1.453  0.0116  0.1843  0.2488
 8017W        W24201  15.030   7.506   3.030  0.4350 -0.0188  0.0225
 8018W        W24202  19.348  13.820   1.014 -0.0695 -0.3300  0.4067
 8019W        W24203   7.926  12.581  13.345  0.0271  0.2390 -0.2296
 8020W        W24204  12.098  10.940  13.088 -0.0124 -0.0193  0.1395
 8021W        W24205  10.548  12.496  11.364 -0.0303  0.1595 -0.1193
 8022W        W24206   1.084  15.909  10.788  0.0621 -0.2941  0.1955
 8023W        W24207  18.462   7.579  13.111 -0.0306  0.0108 -0.1461
 8024W        W24208   8.205   2.343   2.327  0.2974 -0.0828 -0.0710
 8025W        W24209  14.820  11.664   1.547 -0.1740  0.0724 -0.0836
 8026W        W24210  10.065  12.846  12.028 -0.1411  0.2378 -0.1370
 8027W        W24211  14.426   0.613   0.818 -0.0187 -0.1608  0.1519
 8028W        W24212  14.943  12.322  12.067  0.2270  0.0799  0.1160
 8029W        W24213   7.884  13.988   4.356 -0.1032 -0.3644 -0.1408
 8030W        W24214   9.511  15.304  11.238  0.0990  0.0493 -0.0870
 8031W        W24215  17.771  15.975  11.966 -0.1168 -0.0014  0.0787
 8032W        W24216  13.536   1.930  12.947  0.1466 -0.1014  0.0687
 8033W        W24217   0.679  14.995   4.236 -0.1314 -0.0560 -0.0943
 8034W        W24218  18.168   7.744  11.451 -0.1808 -0.2059  0.1932
 8035W        W24219   6.610   7.416   4.806  0.0529 -0.2091  0.0165
 8036W        W24220   5.749  10.146   1.887 -0.1069 -0.1596  0.0825
 8037W        W24221   9.164  11.728   3.736  0.1045  0.0806  0.2543
 8038W        W24222  14.924   4.951   1.263 -0.2735 -0.3682 -0.0393
 8039W        W24223   2.814  15.470  13.119  0.0385 -0.3998 -0.3914
 8040W        W24224  12.710   5.125   2.886 -0.1822 -0.1488 -0.0875
 8041W        W24225  10.224   6.155   1.751 -0.1194  0.2779 -0.1391
 8042W        W24226  17.617  19.234  14.501  0.0146 -0.0984 -0.0603
 8043W        W24227  15.203   9.273   4.949  0.2482 -0.2125 -0.4273
 8044W        W24228   1.582   0.255   3.342  0.1887 -0.0768 -0.2840
 8045W        W24229  16.473   9.560   9.891  0.0093 -0.1063 -0.2729
 8046W        W24230  18.951   5.425  11.322 -0.0215  0.3707 -0.1244
 8047W        W24231   8.650  16.177  13.550  0.1961 -0.2279 -0.2037
 8048W        W24232  13.825  18.433  13.155  0.0005  0.0426 -0.0866
 8049W        W24233   5.716   7.571   0.849  0.2020 -0.2196 -0.3680
 8050W        W24234  18.048  19.387   1.018 -0.1004  0.0347  0.0867
 8051W        W24235   8.562   8.878   4.031  0.1923 -0.1106  0.1000
 8052W        W24236  12.529  18.941   4.881 -0.0740  0.0140 -0.3719
 8053W        W24237  18.620  13.993  12.176  0.0622  0.0300 -0.1233
 8054W        W24238  17.961   9.639  10.806 -0.2627 -0.2222 -0.0346
 8055W        W24239   7.558   7.056   0.024  0.3815 -0.0545 -0.2457
 8056W        W24240  16.625  17.699   0.452 -0.0749 -0.4220 -0.3468
 8057W        W24241   9.057   8.158   0.012  0.2579 -0.3263  0.1067
 8058W        W24242  11.703  14.078  13.795 -0.2261 -0.2319  0.0981
 8059W        W24243  15.073   9.910  10.865 -0.0960 -0.3671  0.4242
 8060W        W24244   4.081  13.759   4.432  0.1617 -0.1405 -0.1348
 8061W        W24245   9.519  12.267   3.239 -0.0787 -0.3194  0.2230
 8062W        W24246   1.098   0.255   4.549  0.1762  0.1760  0.1897
 8063W        W24247   4.444   1.478  12.440 -0.1319 -0.1848  0.0431
 8064W        W24248  13.064   8.377   1.187  0.1705 -0.0836  0.2540
 8065W        W24249  18.278  14.734  13.750 -0.0614  0.0744 -0.3884
 8066W        W24250  12.470  18.157   0.600 -0.0963  0.3102 -0.2201
 8067W        W24251   1.358   7.697   5.078  0.3100 -0.3405 -0.4408
 8068W        W24252   5.568   1.505  12.224  0.2360 -0.2797 -0.2886
 8069W        W24253   7.351  16.472  14.582  0.2846 -0.0057  0.1789
 8070W        W24254   6.632   0.344   3.149  0.2607  0.3650  0.0907
 8071W        W24255   4.515  15.256   4.294  0.0462  0.0333  0.0020
 8072W        W24256   8.194  13.623   4.526 -0.2369  0.0306  0.2714
 8073W        W24257   4.877  14.830  14.503  0.1209  0.3462  0.6704
 8074W        W24258  13.766   5.149  10.777  0.1600  0.0695  0.3995
 8075W        W24259  15.621  12.654   4.419 -0.1608  0.0688 -0.2164
 8076W        W24260  11.802  12.480  11.135  0.2638  0.1867 -0.0295
 8077W        W24261   8.399  19.362   2.971 -0.4144  0.0838 -0.1345
 8078W        W24262  13.286  13.268   9.435  0.2444 -0.3757 -0.0044
 8079W        W24263   7.020  12.489  12.940  0.3189 -0.2851 -0.0095
 8080W        W24264  16.599  11.577  10.067 -0.0137 -0.3964 -0.2119
 8081W        W24265  10.077   6.212  12.188  0.1650  0.2382  0.1183
 8082W        W24266  10.625   6.485   3.397  0.0224  0.2129 -0.3283
 8083W        W24267   2.119   3.582   2.682 -0.1769 -0.2712  0.0858
 8084W        W24268   6.948  12.222   1.217 -0.2658  0.3309  0.0745
 8085W        W24269   6.845   6.098  12.961  0.0023  0.2948  0.4411
 8086W        W24270  16.662   9.512  10.812 -0.1304  0.2224  0.5315
 8087W        W24271   5.313  15.900  12.011  0.0777  0.0647  0.0155
 8088W        W24272  13.972   3.919  10.581 -0.2755  0.0479 -0.0839
 8089W        W24273   5.286  10.760  12.437 -0.0002 -0.2793 -0.0550
 8090W        W24274  15.962  11.225  12.816 -0.1203  0.2517  0.0388
 8091W        W24275   9.790  10.605   2.091  0.1069 -0.1355 -0.2086
 8092W        W24276  10.605   3.736  11.345 -0.2446 -0.0290  0.1504
 8093W        W24277  14.473  11.402   2.381  0.2390 -0.0725  0.0890
 8094W        W24278  11.123   2.171   1.439 -0.1034 -0.0890 -0.1473
 8095W        W24279   9.597   0.758  10.641  0.2367  0.3247 -0.0839
 8096W        W24280   6.299  12.878  13.385 -0.0368 -0.0796  0.0105
 8097W        W24281  14.296  18.249  11.662 -0.0204  0.3358  0.0367
 8098W        W24282   1.408   1.388  12.731  0.0270 -0.1106 -0.1058
 8099W        W24283   4.090  13.922   1.375  0.3436 -0.0873  0.3322
 8100W        W24284   8.245   7.959   1.359  0.0295  0.1549 -0.0040
 8101W        W24285   2.898  19.302  12.447  0.3394 -0.1155 -0.0769
 8102W        W24286   2.582   9.199  10.877 -0.3267 -0.1275  0.1018
 8103W        W24287   9.507  10.214  14.626 -0.3575 -0.1157 -0.2880
 8104W        W24288  18.600  18.257  13.494  0.2088 -0.0243  0.1684
 8105W        W24289   3.315   3.557   1.497 -0.0629 -0.1163  0.2179
 8106W        W24290  19.207  10.516  14.283 -0.0316  0.1646  0.1128
 8107W        W24291   3.547  13.590   0.220 -0.1707  0.1876 -0.1672
 8108W        W24292  14.800   8.415   1.279  0.0520 -0.0477  0.0105
 8109W        W24293  18.630  16.301  10.876 -0.0910  0.4615  0.1351
 8110W        W24294   2.502  10.006  11.471  0.3397 -0.1281 -0.1282
 8111W        W24295   4.490   7.500   0.080  0.2055  0.1290  0.2724
 8112W        W24296   6.092  14.052   2.369  0.4103  0.1146  0.0113
 8113W        W24297  17.732   1.846   0.745 -0.2961  0.1583  0.0987
 8114W        W24298  12.414   9.230   1.990  0.2268  0.0273 -0.2365
 8115W        W24299  13.210  12.446  12.720  0.0126  0.1047 -0.4335
 8116W        W24300   9.639  11.814  11.301 -0.2179 -0.0647 -0.1183
 8117W        W24301  14.119  14.461  14.599  0.0148 -0.0497  0.0185
 8118W        W24302  18.641   3.470   5.312  0.0552  0.1768  0.0920
 8119W        W24303   8.265  11.232   2.557  0.1742 -0.4367 -0.0968
 8120W        W24304   0.062   0.386   2.168  0.0124 -0.0894 -0.4787
 8121W        W24305  16.505  12.323   9.864 -0.1832  0.1106 -0.1540
 8122W        W24306   2.411   6.024   2.813 -0.3481  0.3149 -0.2877
 8123W        W24307   8.424   2.636   0.604  0.2634 -0.3750  0.2290
 8124W        W24308   5.642   9.564   1.134 -0.1233  0.2388 -0.0600
 8125W        W24309  14.250   6.288  12.215 -0.0685 -0.0945 -0.1708
 8126W        W24310  19.109   2.443  12.583  0.1237  0.2622 -0.1644
 8127W        W24311  11.159  17.771  12.388 -0.1268  0.4462  0.2473
 8128W        W24312  12.033  17.321   0.118 -0.1536 -0.0492 -0.1991
 8129W        W24313   2.083   4.751   4.704 -0.0667  0.0282  0.2459
 8130W        W24314   5.138  12.461  12.667 -0.0510  0.3012  0.1415
 8131W        W24315  11.465   8.712   3.894  0.0567  0.1267  0.1323
 8132W        W24316   1.122   1.964  12.792 -0.1603  0.0049 -0.1744
 8133W        W24317  17.295   9.774   2.223  0.0846  0.2850 -0.1949
 8134W        W24318   3.388   7.530   5.213  0.0180  0.2134 -0.2483
 8135W        W24319  16.525  16.842   9.660 -0.0528 -0.1463 -0.2477
 8136W        W24320  17.310   4.764   4.116 -0.1911  0.4039 -0.3404
 8137W        W24321   8.324  11.323   3.147 -0.0054 -0.0589 -0.1593
 8138W        W24322  17.402  17.354  11.431 -0.1515 -0.0141  0.0489
 8139W        W24323   5.038  10.719   3.320 -0.1628 -0.3980  0.1024
 8140W        W24324   2.377   6.752  14.043  0.2959 -0.2044 -0.1837
 8141W        W24325   1.963   0.773  12.974  0.0250  0.1856  0.1791
 8142W        W24326  13.483   7.160  11.199 -0.0365 -0.2042  0.3174
 8143W        W24327  16.196  16.561   9.976 -0.0385 -0.2605  0.0254
 8144W        W24328  16.131  18.963   3.016  0.1994 -0.0835 -0.1909
 8145W        W24329   2.299   8.375   2.036 -0.1882 -0.1101  0.1020
 8146W        W24330  10.005   2.525  12.546 -0.2120  0.0313 -0.1854
 8147W        W24331   2.527   2.934  12.258 -0.0202  0.0264 -0.1615
 8148W        W24332   6.039   5.034   5.258  0.3709  0.0546  0.2936
 8149W        W24333  12.392   1.616   4.186  0.0689 -0.0228  0.1402
 8150W        W24334   4.801  10.585  14.760  0.1069  0.3733  0.1461
 8151W        W24335   4.292   5.937   0.177  0.0244  0.1468 -0.2149
 8152W        W24336  15.010  11.964   1.985  0.2302  0.0176  0.2121
 8153W        W24337   2.102   6.559   5.885 -0.2367 -0.1521  0.0232
 8154W        W24338   2.872   2.105  10.041  0.1797  0.0795  0.2187
 8155W        W24339  15.981  10.177   4.634  0.0954  0.1164  0.1074
 8156W        W24340  13.766  13.632   4.826 -0.1894  0.0293  0.1267
 8157W        W24341  15.336   5.898  12.519  0.1234 -0.0337 -0.1557
 8158W        W24342  18.237   2.625  12.081  0.0619 -0.1002 -0.0686
 8159W        W24343  10.120   3.287  14.465  0.1431 -0.0639  0.3214
 8160W        W24344   2.175  14.983  11.860  0.2554 -0.4036  0.1176
 8161W        W24345   1.136   7.583  12.746  0.0864  0.1023 -0.0750
 8162W        W24346  14.295  12.090  11.238 -0.2030  0.0035  0.0282
 8163W        W24347  13.474  11.425  13.305 -0.0631  0.0295  0.1750
 8164W        W24348   5.987  10.129  12.463  0.1098 -0.0809  0.1108
 8165W        W24349  13.160  17.819  10.686 -0.0540 -0.4847  0.2324
 8166W        W24350  16.151   4.272  14.888 -0.0161  0.0016 -0.0984
 8167W        W24351  13.117  16.633  11.512  0.0356  0.0249  0.2654
 8168W        W24352  12.569  16.621  12.887 -0.1042  0.1102 -0.3504
 8169W        W24353   7.895   2.206   4.422  0.2903 -0.0913 -0.0238
 8170W        W24354  17.928   3.226  11.009  0.2848  0.4076  0.0417
 8171W        W24355  10.687   2.730   0.117  0.0908  0.0881 -0.2413
 8172W        W24356   5.688   6.906   4.355 -0.1256  0.1321 -0.1070
 8173W        W24357   3.284  14.794   2.061 -0.1287  0.2602 -0.1672
 8174W        W24358  18.717  12.861  11.006 -0.0691 -0.2359 -0.0891
 8175W        W24359   0.888  10.726  12.114 -0.1016  0.0442 -0.1678
 8176W        W24360  10.517   4.366  10.046 -0.2887 -0.0542 -0.3880
 8177W        W24361   0.787   1.776   2.630 -0.1151  0.0328  0.1145
 8178W        W24362   8.603   5.823   4.053 -0.1696 -0.1393 -0.0286
 8179W        W24363   7.250   3.706  12.727 -0.0499  0.1547  0.0249
 8180W        W24364   6.389   4.906  10.997  0.0447 -0.0837 -0.0368
 8181W        W24365  18.075   9.776  13.996 -0.1713  0.0852 -0.2285
 8182W        W24366  15.772  12.041   0.171 -0.5523 -0.0905 -0.1460
 8183W        W24367  13.758   4.778   4.388  0.1401  0.2219  0.1842
 8184W        W24368   9.473   5.054  11.234 -0.0585 -0.1081  0.0333
 8185W        W24369   0.356   0.851   4.650 -0.1071  0.0216 -0.0782
 8186W        W24370   4.058   3.999   0.460  0.1213  0.2523  0.0820
 8187W        W24371  18.730  17.433  11.350  0.1655  0.0410 -0.0775
 8188W        W24372   0.847  11.499   5.851  0.0056 -0.3328 -0.1114
 8189W        W24373   7.131  15.681  12.693  0.1543 -0.3142  0.1765
 8190W        W24374   9.098  18.151  13.037 -0.0303  0.0732 -0.2685
 8191W        W24375   3.045   0.276   4.428 -0.2630  0.0040 -0.2920
 8192W        W24376  13.008   9.488  11.410 -0.1034  0.0370  0.2567
 8193W        W24377  11.319  16.316  10.969 -0.1865 -0.0584  0.1458
 8194W        W24378  12.062  14.663   2.622  0.2449 -0.2551 -0.0100
 8195W        W24379  18.919   9.553   3.806 -0.0861  0.0960  0.0042
 8196W        W24380   7.742  17.812   3.131 -0.3256  0.2031  0.0371
 8197W        W24381   1.658   1.724   5.119  0.0668 -0.3381 -0.1290
 8198W        W24382   4.316   4.105  14.893  0.2549  0.3801  0.3630
 8199W        W24383  18.221  16.585  13.511 -0.0676  0.3108  0.2098
 8200W        W24384  11.876   1.995   0.846  0.1515  0.1546 -0.0721
 8201W        W24385  13.058  14.059   2.886  0.0977 -0.2652 -0.1050
 8202W        W24386  15.145  13.418   9.063  0.1742 -0.0164 -0.1130
 8203W        W24387   4.838  11.887   0.505 -0.0244 -0.1766 -0.0531
 8204W        W24388   5.235   3.097   1.728  0.0828  0.1252  0.0026
 8205W        W24389  12.223  14.146  14.122  0.0508  0.0358 -0.0726
 8206W        W24390   8.120  15.805  10.886 -0.3069 -0.1410 -0.0176
 8207W        W24391   3.389  17.824  11.496  0.0124  0.2043 -0.3245
 8208W        W24392   6.231   6.499   5.781  0.4332 -0.0329  0.2718
 8209W        W24393  11.901   8.651   5.494  0.0683  0.1231  0.0564
 8210W        W24394   3.321   4.368   2.246  0.1355 -0.0851  0.0441
 8211W        W24395  13.942  18.209  14.109  0.0965 -0.1058  0.3814
 8212W        W24396   3.880  17.166  14.347  0.1559 -0.3400  0.1716
 8213W        W24397  16.337  13.806  13.898 -0.0879 -0.0470  0.1267
 8214W        W24398   9.802  10.186   1.053 -0.0989  0.3395 -0.1087
 8215W        W24399   4.739  11.075   1.522 -0.0521  0.1096  0.0157
 8216W        W24400   6.235   1.459   4.217 -0.2965 -0.2287 -0.0516
 8217W        W24401   9.580   4.482   4.214  0.1378 -0.1474  0.2800
 8218W        W24402   6.675  14.924  14.065 -0.2682  0.2420  0.0525
 8219W        W24403   2.905  17.773  14.424  0.1907  0.3998  0.0211
 8220W        W24404   6.435   9.907  14.252  0.0983 -0.1137 -0.0118
 8221W        W24405  15.711  14.275  13.511  0.1984 -0.0840  0.0404
 8222W        W24406  11.308   9.246   4.985 -0.0186 -0.2312  0.3184
 8223W        W24407  14.507   6.998   2.535  0.1509  0.0072  0.1859
 8224W        W24408  14.447   8.081   1.334  0.2439  0.0448  0.1020
 8225W        W24409   8.653   8.235   1.885  0.1435 -0.3470  0.0862
 8226W        W24410  10.987  17.937  10.450  0.1811 -0.1843 -0.1835
 8227W        W24411   0.551  12.274   3.974 -0.2713  0.4076  0.0846
 8228W        W24412  13.839  10.202  10.463 -0.1026 -0.3859  0.0656
 8229W        W24413   4.626  17.173  12.148 -0.2725 -0.3372 -0.1942
 8230W        W24414   6.290   2.913   3.931  0.1957  0.2869 -0.3553
 8231W        W24415  10.161  17.153   1.387  0.1090  0.5282  0.2335
 8232W        W24416  14.711  14.227  13.909 -0.1536 -0.1352  0.0704
 8233W        W24417  12.161  18.324  14.443  0.0400  0.3527 -0.2870
 8234W        W24418   2.985   1.573  12.644 -0.0559  0.1758 -0.2654
 8235W        W24419   7.100  10.530  11.450 -0.1517 -0.2089  0.0935
 8236W        W24420  13.413   4.765  10.868 -0.5955 -0.0457 -0.2276
 8237W        W24421   2.232   1.768   5.924 -0.0834 -0.0798 -0.2480
 8238W        W24422   7.863   7.431   0.611  0.3582 -0.4414  0.3181
 8239W        W24423  16.064  10.816  12.456  0.1257  0.4938 -0.1700
 8240W        W24424   7.358  12.819   5.541  0.1265  0.0351  0.0429
 8241W        W24425   0.364  12.675   3.006 -0.2345 -0.0258  0.2078
 8242W        W24426   6.450  14.552  11.432 -0.2742 -0.4261  0.0392
 8243W        W24427  12.668   2.143   1.145 -0.0112 -0.1016  0.0521
 8244W        W24428   0.348   3.132   1.888  0.2076 -0.2277 -0.1323
 8245W        W24429   8.157  10.930   5.580  0.2258  0.0357 -0.1595
 8246W        W24430  17.074   5.949   5.470 -0.3274 -0.1597 -0.1198
 8247W        W24431  17.838  11.221   5.002 -0.1192 -0.0830 -0.2329
 8248W        W24432  17.618  12.910  12.815 -0.4109  0.1192  0.2911
 8249W        W24433   8.477   2.699   5.084  0.1509 -0.0322  0.3804
 8250W        W24434  17.124   1.446   2.808  0.4554 -0.0164 -0.0933
 8251W        W24435  11.977  18.374  14.867 -0.0062 -0.0873 -0.0796
 8252W        W24436   1.496  12.617   3.456 -0.1720  0.1075  0.1462
 8253W        W24437   7.352   8.949  11.925  0.1520 -0.0743 -0.0334
 8254W        W24438   2.585  12.843  13.496 -0.0139  0.0539  0.0752
 8255W        W24439   9.654   1.430  11.973  0.2142  0.1127  0.2953
 8256W        W24440  12.769  11.642  12.808  0.0938  0.0747  0.3919
 8257W        W24441   7.289  12.120   2.169  0.2482  0.1176  0.0465
 8258W        W24442  11.200   5.169  12.447 -0.0794  0.0964 -0.1378
 8259W        W24443  17.612   2.420  11.540  0.3044 -0.0901  0.0521
 8260W        W24444  10.389   0.931  11.705 -0.2352 -0.1846  0.0002
 8261W        W24445   0.213  18.310  12.162 -0.0152 -0.1746 -0.0982
 8262W        W24446  16.444   0.623  11.423  0.0994  0.0682 -0.0080
 8263W        W24447  10.215  13.254   3.674 -0.3431  0.2759  0.0149
 8264W        W24448  17.963   4.339  13.603  0.3672  0.0736  0.2040
 8265W        W24449   4.204   9.593  12.865 -0.0706  0.2085 -0.1679
 8266W        W24450   0.242   0.990  11.659 -0.0993  0.1197 -0.0859
 8267W        W24451   9.329   4.944  12.754 -0.1464 -0.0315 -0.0614
 8268W        W24452  14.945   4.672  10.534 -0.1057 -0.0123  0.3311
 8269W        W24453  10.733  10.258  12.127 -0.2386  0.2058 -0.1873
 8270W        W24454   1.219  13.918  11.949  0.1231  0.0703 -0.0127
 8271W        W24455   6.927   6.728  10.504  0.1313 -0.0045  0.2002
 8272W        W24456  12.096   3.270  12.436 -0.0676  0.3511 -0.0074
 8273W        W24457   0.400   5.002   2.280 -0.0521  0.0803 -0.1665
 8274W        W24458  12.613  11.983  13.633  0.1893  0.0924  0.1688
 8275W        W24459   5.856  19.075  13.087 -0.2883  0.0329 -0.5662
 8276W        W24460   7.641  17.789  11.801  0.0537  0.2208 -0.0137
 8277W        W24461  15.598   4.412  13.376 -0.1433  0.0695  0.0948
 8278W        W24462  19.388  19.264   2.028 -0.2518  0.4008  0.0983
 8279W        W24463   7.091  12.739  14.295  0.2403  0.0048  0.4598
 8280W        W24464   1.481   3.605   5.023  0.2842 -0.3153 -0.4146
 8281W        W24465  16.038  18.054  13.260 -0.2831 -0.1060  0.1049
 8282W        W24466  19.055   2.688   1.542  0.0357 -0.1977 -0.0850
 8283W        W24467  13.267  17.683   4.728  0.1317  0.0350  0.0038
 8284W        W24468  16.508   8.388   4.313  0.1181  0.0813  0.0946
 8285W        W24469   4.807   6.705  10.268  0.2206 -0.3048 -0.0538
 8286W        W24470  17.879  12.306   1.619  0.0929 -0.0376 -0.2646
 8287W        W24471   8.163  14.992   2.412  0.0917  0.3257 -0.1530
 8288W        W24472   1.688   6.012  12.995  0.1616 -0.1436 -0.0595
 8289W        W24473  15.289   9.717   1.114  0.0290 -0.0365  0.1617
 8290W        W24474   7.867  13.906  14.490 -0.2447  0.3177  0.1422
 8291W        W24475  10.498   5.882   2.737 -0.1182  0.3840  0.0127
 8292W        W24476   1.386  10.982   1.015 -0.0570  0.0133  0.0472
 8293W        W24477   1.762   1.142  14.921 -0.0117 -0.2464 -0.3101
 8294W        W24478   1.662   6.838   4.003  0.0537  0.2631 -0.0806
 8295W        W24479  18.057  14.355  14.758 -0.1339 -0.4958 -0.2031
 8296W        W24480   7.350   6.950   4.052  0.1899  0.1004 -0.1726
 8297W        W24481   3.181   2.572   3.058 -0.0676  0.1535  0.1392
 8298W        W24482   5.980   5.967  12.634  0.4527  0.0038  0.0443
 8299W        W24483  14.725   8.962   4.240  0.2971  0.1734  0.3006
 8300W        W24484   2.678   1.494  13.964  0.0072 -0.0474 -0.0208
 8301W        W24485  14.267   7.663  13.354  0.4596 -0.3262 -0.1230
 8302W        W24486   6.637   4.191   3.116  0.2408  0.1187 -0.1565
 8303W        W24487  11.242  15.119   4.308  0.1628  0.0850  0.2165
 8304W        W24488  13.491   5.928   0.736 -0.1913  0.0452  0.0884
 8305W        W24489   3.498   7.806   0.047  0.4687 -0.0683  0.0783
 8306W        W24490  14.003   5.074  13.043 -0.0612  0.3927 -0.0266
 8307W        W24491   7.941   4.797  14.169  0.0856  0.1346  0.3413
 8308W        W24492  10.055  11.008   4.843 -0.1297  0.0294 -0.3892
 8309W        W24493   4.867   4.905   3.716  0.0932 -0.2236  0.0259
 8310W        W24494  19.008   8.879   0.330 -0.0208  0.1358  0.1762
 8311W        W24495  17.139   8.223   5.915  0.6113  0.0647  0.1470
 8312W        W24496   4.555   4.097  13.123 -0.3265  0.1103  0.1200
 8313W        W24497  10.077   9.338  14.547 -0.2149 -0.2105 -0.3300
 8314W        W24498  17.216   1.836  13.562 -0.3276  0.0389 -0.0826
 8315W        W24499   7.950  10.852   2.287 -0.0290 -0.0921  0.2665
 8316W        W24500   2.385   1.874   3.387  0.2770  0.0301  0.0576
 8317W        W24501   5.802   9.556   1.944  0.1184 -0.0576  0.1274
 8318W        W24502  13.969  13.470   1.854  0.3860  0.0821  0.1140
 8319W        W24503   5.885   6.105   3.289 -0.1395  0.0276  0.0244
 8320W        W24504   4.202  15.894   1.075  0.1965 -0.0883  0.2331
 8321W        W24505  15.599  11.025   3.699 -0.1109  0.2244  0.0773
 8322W        W24506  12.909   2.276   0.072 -0.0133  0.3647 -0.2054
 8323W        W24507   8.244  16.975   0.015 -0.2819  0.3149 -0.1440
 8324W        W24508  18.439  10.043   4.998 -0.1130 -0.0697  0.1949
 8325W        W24509   4.904   8.863   4.082  0.0753 -0.0891 -0.2166
 8326W        W24510  11.850  15.146   1.713 -0.3225  0.1600 -0.2335
 8327W        W24511   1.964   3.065   2.972  0.0088  0.3794 -0.0341
 8328W        W24512  16.034  17.959  10.464 -0.1804 -0.3217 -0.0072
 8329W        W24513   0.130   0.979   3.145 -0.2378  0.1007  0.1725
 8330W        W24514  11.894   0.794  12.081 -0.0749  0.0558 -0.3098
 8331W        W24515   0.308   8.285   5.181  0.4456 -0.1232 -0.0611
 8332W        W24516   4.262  11.571   4.686 -0.3614 -0.0069 -0.0879
 8333W        W24517   9.205  13.390   3.176 -0.3722 -0.3083 -0.0517
 8334W        W24518  15.557   0.744  14.300 -0.1656 -0.0245  0.0224
 8335W        W24519  13.869   6.279   1.825  0.0645 -0.1961 -0.0799
 8336W        W24520  15.226   1.354  14.929 -0.1570 -0.4975  0.0321
 8337W        W24521   0.420  12.857   5.164 -0.0131  0.2399  0.1899
 8338W        W24522   5.095   2.913   3.376 -0.1739  0.0600  0.0186
 8339W        W24523  18.148  16.309   2.309 -0.1864  0.2234  0.0842
 8340W        W24524  17.431  14.171  10.976 -0.2485 -0.1195  0.2091
 8341W        W24525   1.892  17.133   0.654 -0.2437 -0.2194 -0.3733
 8342W        W24526   3.608  18.903   3.479  0.2215  0.3146  0.2235
 8343W        W24527  15.258   2.798  13.224  0.0012 -0.2021 -0.1804
 8344W        W24528   0.945   3.308   1.205  0.3708 -0.1375  0.0546
 8345W        W24529   1.371  10.596  13.797  0.0372 -0.4508  0.0695
 8346W        W24530  18.835   9.978   2.920  0.2274  0.3025 -0.1052
 8347W        W24531  14.664   2.488   3.105  0.0547  0.2568  0.3302
 8348W        W24532  14.739  13.646   4.374 -0.2185 -0.3186  0.0495
 8349W        W24533   3.587   2.687   1.090  0.0361 -0.0216  0.2404
 8350W        W24534   0.326  15.819  14.749 -0.1240  0.0780  0.0241
 8351W        W24535  11.860  17.727  10.939 -0.2071  0.2365  0.1479
 8352W        W24536  10.521   9.396   0.451  0.0130 -0.2021 -0.2574
 8353W        W24537   5.399   6.201  11.339 -0.0940  0.0697 -0.2348
 8354W        W24538   6.321   2.440   4.220 -0.0400  0.1181  0.1444
 8355W        W24539  17.309   9.573  11.185  0.0037  0.0237 -0.1060
 8356W        W24540   8.810   6.744  11.839  0.2407 -0.0530 -0.0591
 8357W        W24541   7.006  19.354  13.220 -0.0629 -0.2972  0.0276
 8358W        W24542   8.759   2.304   5.276  0.0230  0.2420 -0.1720
 8359W        W24543  10.865  13.017  12.029 -0.1380 -0.3870  0.0583
 8360W        W24544  13.782   1.662  14.861 -0.0259 -0.2726  0.2223
 8361W        W24545   9.210  14.856   0.780 -0.1833  0.0995  0.1672
 8362W        W24546   6.908  18.791   2.483 -0.2168  0.3294  0.1377
 8363W        W24547  12.736  11.662  12.293 -0.1190  0.2823  0.2100
 8364W        W24548   1.694  14.497   3.418 -0.0276  0.1091 -0.1300
 8365W        W24549  13.595  16.731   2.263 -0.0623  0.4267  0.0575
 8366W        W24550  11.635  12.780  10.672 -0.1697 -0.1692 -0.1723
 8367W        W24551   9.336  16.212  12.455 -0.1602 -0.2134 -0.2979
 8368W        W24552  10.233   2.078   3.917  0.0036  0.0805  0.0609
 8369W        W24553   4.216  13.027   5.986  0.0516 -0.1923  0.1563
 8370W        W24554   8.227   8.541   2.107 -0.0226 -0.0354  0.0317
 8371W        W24555   9.726   3.408  10.698  0.3592  0.1281 -0.4603
 8372W        W24556  12.374   8.948   1.531  0.1624 -0.0340  0.1997
 8373W        W24557   1.367  11.529   2.464 -0.3156  0.3987  0.1869
 8374W        W24558   6.960  17.853   0.460  0.1911 -0.2330 -0.1921
 8375W        W24559   3.768   1.849   2.032 -0.0436  0.0907 -0.1383
 8376W        W24560   7.918   0.034   3.697 -0.1551  0.0148 -0.0214
 8377W        W24561   3.406  10.160  14.859  0.0513 -0.2460 -0.3693
 8378W        W24562  17.359  10.117  12.420  0.1081  0.1318  0.2215
 8379W        W24563   7.161  18.509   2.072 -0.2186  0.2589  0.1689
 8380W        W24564   9.474  12.013   1.859  0.2435 -0.0128 -0.1649
 8381W        W24565   4.636   1.430   4.824  0.0071  0.0411  0.0774
 8382W        W24566   9.106  10.484  13.535 -0.2194  0.2953  0.0034
 8383W        W24567  17.364  14.993  12.301 -0.1256 -0.0151  0.0912
 8384W        W24568  19.165  18.165  13.108 -0.3577  0.1202  0.0609
 8385W        W24569   0.364   2.198  11.448  0.1416  0.1447 -0.1210
 8386W        W24570  11.453   6.465   1.827 -0.1119  0.3779 -0.1391
 8387W        W24571   1.170   6.340   2.180 -0.3146 -0.2759 -0.3652
 8388W        W24572   9.046   0.240   1.360 -0.2153  0.1161 -0.0837
 8389W        W24573  14.982   6.239  10.524  0.2395  0.3187 -0.3895
 8390W        W24574  18.531   7.892  10.289  0.0676 -0.1704 -0.0863
 8391W        W24575   1.955   8.329  14.788  0.0994 -0.2596 -0.2790
 8392W        W24576   5.552   8.463   1.427  0.3921  0.0967 -0.1696
 8393W        W24577  14.492  13.301  13.657 -0.1056  0.1870  0.1730
 8394W        W24578   1.768  14.446  12.314 -0.0258 -0.1415  0.0195
 8395W        W24579   5.366   6.181   4.374  0.1615 -0.2582 -0.1005
 8396W        W24580   8.110  18.896  12.525 -0.0434  0.0442  0.5623
 8397W        W24581  11.637  16.799  12.146  0.0498  0.1703  0.1817
 8398W        W24582   1.514  16.530   1.654 -0.0720  0.4377 -0.0394
 8399W        W24583  12.432  17.594  11.080  0.0121 -0.0404 -0.0714
 8400W        W24584  15.298  12.750   2.631 -0.1470  0.1386 -0.2322
 8401W        W24585  17.573  14.753   4.382  0.1043  0.0676  0.1432
 8402W        W24586   4.331  16.872   2.481  0.0452  0.0458  0.0050
 8403W        W24587  16.745   2.924   1.499  0.0605 -0.0792 -0.0094
 8404W        W24588   7.843  15.747   1.961 -0.0608  0.0974  0.3916
 8405W        W24589   0.788  17.126   1.897 -0.0337 -0.0765 -0.1031
 8406W        W24590  11.572   3.621   2.567 -0.0515 -0.0976 -0.2132
 8407W        W24591  14.190   3.272   2.144 -0.0630  0.0133 -0.2364
 8408W        W24592   5.227   3.235  13.516 -0.2099 -0.0964 -0.0920
 8409W        W24593   6.807  11.451  10.985  0.0922 -0.1926  0.0165
 8410W        W24594  14.834  10.164  11.423  0.2034  0.3190 -0.3183
 8411W        W24595   5.802  15.928  12.989  0.2519  0.0237  0.0136
 8412W        W24596   2.521   9.762   5.470  0.4554  0.0168  0.2272
 8413W        W24597   5.992  11.402   1.873 -0.0013  0.0334 -0.1339
 8414W        W24598   0.269   1.788   0.855  0.1764 -0.1364 -0.0810
 8415W        W24599  11.795   7.562   0.153 -0.3274  0.1493  0.1192
 8416W        W24600  17.435   8.350   2.507 -0.0702 -0.0910 -0.2064
 8417W        W24601  15.902  11.906   0.655 -0.1818 -0.0951  0.1455
 8418W        W24602  18.937   5.302  14.732 -0.0040  0.1370 -0.1746
 8419W        W24603  18.806   3.986   5.170  0.2711  0.1615  0.0031
 8420W        W24604   9.611   3.933   3.961 -0.0038  0.0390 -0.2056
 8421W        W24605  13.306   3.529  11.310 -0.3926 -0.0021 -0.1208
 8422W        W24606  12.297  11.834  10.966  0.1136 -0.2546 -0.0908
 8423W        W24607   3.713  11.227  11.753  0.0298 -0.0912 -0.1191
 8424W        W24608   9.022  13.828   1.747  0.3453  0.2046  0.0498
 8425W        W24609   1.415   3.098   0.335 -0.0493  0.5076  0.1955
 8426W        W24610   8.150  11.873  12.739 -0.1455 -0.1560  0.1200
 8427W        W24611  12.950  18.731  13.344  0.0046 -0.0488 -0.0862
 8428W        W24612   2.799   8.565  11.206  0.0094 -0.6653 -0.1072
 8429W        W24613  11.509  18.487   4.653  0.3635  0.0314 -0.2368
 8430W        W24614  15.006   0.731   3.097 -0.1108 -0.0994  0.1023
 8431W        W24615  15.289  15.737  12.455 -0.1277  0.1412 -0.0161
 8432W        W24616  14.982  10.416   0.736  0.0620 -0.1276  0.2638
 8433W        W24617   6.909  15.551   4.286 -0.0044 -0.1097  0.4236
 8434W        W24618  10.199   5.093  11.966  0.3922  0.1447  0.2033
 8435W        W24619  17.345   5.362  12.977  0.4679 -0.4490  0.0558
 8436W        W24620   0.247   1.363   4.606  0.0922 -0.1147 -0.0694
 8437W        W24621   1.054  11.313   5.047  0.2841  0.1323 -0.0035
 8438W        W24622   7.411   7.850   0.618  0.3667  0.1991 -0.0236
 8439W        W24623  12.788  15.097   9.688 -0.0089  0.2078 -0.3058
 8440W        W24624   7.114   7.200  13.889 -0.1167 -0.0690 -0.1378
 8441W        W24625  15.456  14.259   5.019 -0.2397 -0.4289 -0.2748
 8442W        W24626   9.659   2.406  14.709  0.2375  0.4642 -0.0294
 8443W        W24627  17.626  19.309  11.149 -0.1883 -0.0305 -0.0064
 8444W        W24628   4.676  12.702   4.876  0.1751 -0.2242 -0.2026
 8445W        W24629   8.607  11.128  12.798  0.4582 -0.0970 -0.2087
 8446W        W24630  15.039   9.574   2.567  0.3854  0.4175  0.0043
 8447W        W24631  12.912  18.646   1.414  0.2183 -0.0759 -0.0741
 8448W        W24632   3.164  10.395   4.495  0.4360 -0.3918  0.0550
 8449W        W24633  11.544   7.438  13.708 -0.1598  0.1422 -0.0782
 8450W        W24634   3.196   8.100   5.385  0.3776  0.0040 -0.3976
 8451W        W24635  14.246   7.564  10.780  0.0481  0.2290 -0.0221
 8452W        W24636  18.553  16.037  11.341 -0.3446  0.1806  0.1074
 8453W        W24637   3.052   5.009   4.261  0.0806  0.1039 -0.1003
 8454W        W24638  16.193   3.202  10.822 -0.2569  0.1016  0.4974
 8455W        W24639  14.179   6.029   2.601  0.1432  0.5071  0.1522
 8456W        W24640   0.239  16.084   3.152 -0.0972  0.0274 -0.1803
 8457W        W24641  18.415   4.452   4.635 -0.1860 -0.1917 -0.3685
 8458W        W24642  18.476   1.358  13.197  0.1501 -0.2494  0.0316
 8459W        W24643   1.358   6.860   2.955  0.0306 -0.3299  0.3632
 8460W        W24644  11.782  13.002  11.507 -0.0784  0.0176 -0.2893
 8461W        W24645  13.436  14.494   3.907  0.1650  0.3590  0.0276
 8462W        W24646  18.179  13.636   2.885  0.2076 -0.2446  0.0367
 8463W        W24647  13.818  11.871  11.894  0.0814 -0.0194  0.1225
 8464W        W24648  13.582  15.452  13.856  0.0893 -0.3123 -0.1551
 8465W        W24649  11.409  18.175  12.346 -0.1290 -0.2018  0.1756
 8466W        W24650   7.884   6.903  10.519 -0.0514 -0.1117  0.1535
 8467W        W24651   2.770  17.661  13.188 -0.1918 -0.0634  0.3306
 8468W        W24652  13.424  18.566   0.567  0.1435 -0.0758 -0.0058
 8469W        W24653  17.933   9.537  14.906 -0.1520 -0.1811 -0.3195
 8470W        W24654   5.246   9.035   4.441 -0.1641  0.0878 -0.1463
 8471W        W24655   5.902   0.878   1.534 -0.0099  0.1270  0.0229
 8472W        W24656  15.348   8.050  11.094 -0.1275 -0.2851  0.1963
 8473W        W24657  18.168  14.429  14.154 -0.0403  0.0580 -0.2384
 8474W        W24658   2.461   1.735   2.423 -0.2572 -0.0065 -0.1007
 8475W        W24659   5.774  13.412   0.091  0.0102 -0.0933  0.1899
 8476W        W24660   5.589   0.501   0.042 -0.3000  0.1648  0.0077
 8477W        W24661  11.491   2.867   0.331 -0.2762  0.0424 -0.0810
 8478W        W24662   6.977  11.378  11.890 -0.2552  0.0992 -0.0143
 8479W        W24663   7.468  14.873   1.573 -0.0189 -0.1871 -0.1040
 8480W        W24664   0.187   6.679   1.566  0.4012  0.0215  0.1446
 8481W        W24665  16.173  13.791   2.999 -0.1634  0.0223 -0.1844
 8482W        W24666   2.893  14.385   4.075  0.2325 -0.0875 -0.1305
 8483W        W24667  14.509  16.968   4.458 -0.0052 -0.0786 -0.4854
 8484W        W24668  12.840   5.604  10.829  0.0403 -0.0035 -0.3202
 8485W        W24669  16.388   9.663   1.145  0.3315  0.2031  0.1477
 8486W        W24670  13.587   2.086  11.840 -0.1329  0.0180 -0.0050
 8487W        W24671  14.051  19.018  12.194 -0.0229  0.1082 -0.1976
 8488W        W24672  15.800  14.267  14.505 -0.0756 -0.1270  0.1058
 8489W        W24673  12.820   9.078   9.455 -0.1656  0.1831  0.1456
 8490W        W24674  19.007  13.710   4.780  0.3150 -0.0494  0.0665
 8491W        W24675   1.200  18.558  14.387 -0.1982  0.0172 -0.1529
 8492W        W24676  10.467   8.994  12.403  0.1349  0.2645  0.0387
 8493W        W24677  13.177  11.217  12.928  0.5561 -0.1297 -0.1726
 8494W        W24678   8.898   7.179  13.904  0.2434 -0.3210  0.0344
 8495W        W24679   7.845   3.097   1.351  0.0171 -0.2213 -0.4500
 8496W        W24680  14.476  16.045  12.951 -0.6541 -0.4940 -0.0208
 8497W        W24681  14.144  18.452  12.219 -0.1309  0.2107  0.0856
 8498W        W24682   9.286  18.801  14.332 -0.2072  0.1528  0.0943
 8499W        W24683   0.076   7.457   0.719  0.5406  0.2232  0.1837
 8500W        W24684  17.585  17.481  13.662  0.3381 -0.2102  0.1001
 8501W        W24685   4.153  19.170   0.678  0.0123 -0.0603 -0.0285
 8502W        W24686   7.432   7.940  11.979  0.1781 -0.1069  0.2469
 8503W        W24687   8.282  14.243  10.670 -0.0364  0.0672  0.0695
 8504W        W24688  11.236   1.779   3.573  0.1588 -0.0768 -0.2186
 8505W        W24689  18.629   2.188   1.474  0.0085 -0.1678  0.2372
 8506W        W24690  17.526  15.467  10.313 -0.0507 -0.4493 -0.0940
 8507W        W24691   2.917  15.836  13.465  0.1293 -0.0139 -0.0311
 8508W        W24692  17.140  18.863   1.220  0.0347 -0.0113  0.1458
 8509W        W24693  11.361  18.860   1.584  0.0015 -0.2066  0.0639
 8510W        W24694  12.614  10.073   3.348 -0.1106  0.0351 -0.0578
 8511W        W24695  14.876  11.690   2.421 -0.0620  0.1287 -0.1684
 8512W        W24696  15.051   9.037   2.324  0.1271  0.3018 -0.2674
 8513W        W24697   5.502   5.112   3.926  0.0389 -0.3734 -0.0611
 8514W        W24698  13.334  14.558   0.254  0.0958  0.1884  0.0274
 8515W        W24699  15.973   2.351   9.848  0.0189 -0.0722 -0.1254
 8516W        W24700  14.706   1.623  12.836  0.2307 -0.1136 -0.0783
 8517W        W24701  15.282   6.627   2.680  0.3346  0.0208 -0.2556
 8518W        W24702   3.329  14.395   3.335  0.1234 -0.1488 -0.3063
 8519W        W24703  18.338   4.928   1.307  0.1735  0.3724 -0.0924
 8520W        W24704   3.784   5.923  12.164  0.0191 -0.0891 -0.0425
 8521W        W24705   8.131  18.580  10.519 -0.0312  0.0238  0.1340
 8522W        W24706   1.577  18.046  14.035 -0.0394 -0.0021 -0.0864
 8523W        W24707   8.608   6.068   9.974  0.0908  0.1215  0.0561
 8524W        W24708   8.642  18.843   0.668 -0.1040  0.0314 -0.0616
 8525W        W24709   2.257  14.354   2.237  0.0003 -0.0975  0.1042
 8526W        W24710  18.627   6.805   4.906  0.1809 -0.0545  0.3356
 8527W        W24711  11.270   0.156  12.445 -0.1720  0.1561  0.0771
 8528W        W24712   6.879  15.272  11.347 -0.1918  0.0590 -0.0416
 8529W        W24713  18.865  12.836   1.023 -0.0164 -0.1196 -0.0974
 8530W        W24714  17.475  11.469   4.424 -0.0607 -0.3392  0.1113
 8531W        W24715  12.112  17.696   2.817  0.3215  0.1860  0.2525
 8532W        W24716   1.209   4.983   3.356 -0.1731  0.1777 -0.5963
 8533W        W24717  13.261  16.684  12.281  0.0335  0.0689 -0.0662
 8534W        W24718  15.724  15.216  14.306  0.4242 -0.0121 -0.2551
 8535W        W24719   4.286   1.103  12.080  0.0187 -0.2840  0.0132
 8536W        W24720  17.724  14.530   3.862  0.3726 -0.2577  0.0076
 8537W        W24721   5.398   5.895   2.790  0.0434  0.0907 -0.0540
 8538W        W24722   2.889  13.306   4.711  0.1935  0.0997  0.3258
 8539W        W24723  12.503  18.610   2.688  0.2209 -0.0853  0.0777
 8540W        W24724   0.548  13.284   4.226  0.0636 -0.2636 -0.0714
 8541W        W24725   0.356   9.120   4.081 -0.2839  0.0801 -0.2098
 8542W        W24726   6.028  16.572   9.313 -0.0945  0.1794 -0.1113
 8543W        W24727   9.367   5.455  10.144 -0.3603 -0.2391 -0.1983
 8544W        W24728   9.268  14.677  13.522 -0.0823  0.1886 -0.0987
 8545W        W24729   9.273   5.413  13.892  0.0084 -0.0469 -0.0279
 8546W        W24730  11.323  18.494   3.363 -0.1007 -0.0237  0.1211
 8547W        W24731  10.843  12.101  12.862  0.0630 -0.0011 -0.4808
 8548W        W24732   7.207   8.250   0.222  0.0631  0.3107 -0.1952
 8549W        W24733   9.776  11.515  11.851 -0.1495 -0.1291 -0.0200
 8550W        W24734  17.144   2.902   4.635 -0.2269 -0.2212 -0.1261
 8551W        W24735  12.060  14.158   0.826 -0.1531 -0.0287  0.0740
 8552W        W24736  13.660   6.990  10.781 -0.2133  0.1091  0.3732
 8553W        W24737  10.061   0.550  14.428 -0.0294 -0.2856  0.1530
 8554W        W24738   7.807   2.732   3.470  0.0527  0.0947  0.1391
 8555W        W24739   6.695  13.917  13.102  0.3515  0.2269 -0.0002
 8556W        W24740  17.733  17.280  12.151  0.0883 -0.3128 -0.1461
 8557W        W24741  14.895   3.759  13.236 -0.0416 -0.2664  0.1833
 8558W        W24742  10.992   1.010  11.830 -0.0294 -0.0972  0.0644
 8559W        W24743   6.341   2.256  14.621 -0.2536 -0.1915 -0.3953
 8560W        W24744  10.764   2.883   4.852 -0.0586 -0.2549  0.1304
 8561W        W24745   2.825  13.164  13.045  0.1879 -0.0146 -0.1121
 8562W        W24746   0.476  14.924  12.323  0.0451 -0.0566 -0.2250
 8563W        W24747   8.734   4.776  14.280  0.2032  0.2675  0.2651
 8564W        W24748  13.001  13.046   0.731  0.1724  0.0818  0.2812
 8565W        W24749   6.132  17.424  13.731  0.0201  0.3582 -0.2375
 8566W        W24750  14.202   8.338   3.433  0.0592  0.1026  0.0610
 8567W        W24751   3.944  10.905  14.406 -0.1039 -0.0667  0.0610
 8568W        W24752  10.522  14.579   3.260  0.0619 -0.3116 -0.3907
 8569W        W24753   2.739   8.238   5.558  0.1152  0.3139 -0.0987
 8570W        W24754   3.101  14.053  14.030  0.3273  0.3466 -0.0097
 8571W        W24755  13.907   3.004   5.431 -0.1519 -0.2191 -0.1202
 8572W        W24756  11.232   7.848  13.514 -0.0407  0.1223  0.0840
 8573W        W24757   1.316  17.284   4.756 -0.2593 -0.2886 -0.1628
 8574W        W24758  11.964   6.709   1.493  0.2268  0.1092  0.3473
 8575W        W24759  18.279   5.172  13.783  0.4076 -0.2978  0.0620
 8576W        W24760  16.605  19.338  12.611 -0.2684 -0.2386 -0.0321
 8577W        W24761   3.860  13.032   0.956  0.2289  0.1654  0.2850
 8578W        W24762   2.490   0.028  11.659  0.0796  0.1634 -0.0603
 8579W        W24763  15.758  12.168  13.801 -0.1651  0.0325 -0.2939
 8580W        W24764   8.353   0.969  12.872 -0.1828 -0.5887 -0.0008
 8581W        W24765   9.316   2.721  11.134 -0.2288 -0.0113  0.3900
 8582W        W24766  11.756  12.131   1.401 -0.1208  0.2919  0.0940
 8583W        W24767   5.644   5.200  11.908  0.3099 -0.1796 -0.4478
 8584W        W24768   6.831   1.998  12.818 -0.2626  0.2278 -0.3634
 8585W        W24769  15.335  14.157  12.269 -0.0285 -0.0436 -0.1367
 8586W        W24770  11.112   6.133  14.421 -0.1087 -0.0588 -0.1377
 8587W        W24771   7.694  12.539   1.334  0.0029 -0.1809 -0.1599
 8588W        W24772  13.318   4.778  11.835 -0.0843 -0.0263 -0.1274
 8589W        W24773  16.808   2.140   3.552 -0.2745  0.1055  0.2329
 8590W        W24774   1.260  18.871  13.554 -0.1148  0.0586 -0.1039
 8591W        W24775  14.444  12.593   0.255 -0.0656 -0.1591  0.1327
 8592W        W24776  19.276   1.913  14.641  0.2397 -0.0931  0.1758
 8593W        W24777  13.648  11.136  10.372  0.0758  0.2168 -0.1139
 8594W        W24778  14.080   9.222   3.459  0.2888  0.1298 -0.0089
 8595W        W24779   6.024  11.273  14.765 -0.4566  0.0695 -0.0346
 8596W        W24780  10.886   3.026  10.147  0.1983 -0.0561  0.1608
 8597W        W24781  18.616  11.815   2.067 -0.3540 -0.4720  0.1098
 8598W        W24782  19.047  17.295   3.802 -0.0030 -0.1023  0.1215
 8599W        W24783  17.487   0.751   5.109 -0.0085 -0.1027 -0.0331
 8600W        W24784   1.547   4.565   1.150 -0.2103 -0.1908  0.1058
 8601W        W24785  17.068   6.318  11.443  0.0399 -0.1980  0.1551
 8602W        W24786   2.311   0.469  13.900 -0.2429  0.1432  0.3603
 8603W        W24787  18.618  16.829  12.070  0.0673  0.2220  0.2751
 8604W        W24788   6.100   6.384   2.438 -0.0149 -0.2334  0.3205
 8605W        W24789  15.756  19.320   8.735  0.4099 -0.2443 -0.0474
 8606W        W24790  11.647  15.554   3.512  0.0702 -0.0261  0.2081
 8607W        W24791   1.550  19.092  12.137  0.1803  0.1150  0.1649
 8608W        W24792  12.854  14.444   0.163 -0.1740  0.0445  0.0344
 8609W        W24793  17.576   2.312   0.470  0.2474 -0.0696 -0.0744
 8610W        W24794   6.840  16.332  11.214  0.0978 -0.5350 -0.0100
 8611W        W24795  18.866   8.084  11.561 -0.3537  0.2822  0.0866
 8612W        W24796  18.138  19.237  12.855  0.0443  0.1318 -0.0725
 8613W        W24797  18.098  16.338   4.986 -0.0137  0.0466  0.1015
 8614W        W24798  13.048   7.433   1.611 -0.0177 -0.1325  0.0904
 8615W        W24799   3.067  16.861  12.418 -0.2105  0.1848 -0.0965
 8616W        W24800   7.111  12.454  12.377 -0.0097 -0.1389  0.1189
 8617W        W24801  14.690   2.938   4.908 -0.2075 -0.1238 -0.0449
 8618W        W24802  18.502  12.755  13.776  0.2767 -0.0222 -0.1571
 8619W        W24803  11.655  14.576   1.669  0.7296  0.1268 -0.0734
 8620W        W24804  13.599   4.218   2.829  0.0591 -0.0963  0.1881
 8621W        W24805  13.725   9.511   3.606 -0.0479 -0.4406 -0.1643
 8622W        W24806  13.034  14.714   3.708  0.2064  0.3162  0.2355
 8623W        W24807   7.311  16.727  13.682 -0.2698  0.2904  0.1254
 8624W        W24808  18.100  16.140   1.177  0.0678  0.0430  0.0155
 8625W        W24809   2.550  17.737  13.955 -0.0526 -0.0723  0.3442
 8626W        W24810   5.302  12.989   1.377 -0.2220 -0.2761  0.0955
 8627W        W24811   1.764   3.458   0.334  0.0255  0.1123 -0.0952
 8628W        W24812   4.804   9.481   0.801 -0.2870  0.1286 -0.1367
 8629W        W24813  13.413   8.468   2.426  0.0574 -0.2821 -0.3093
 8630W        W24814  19.135  17.418   1.162 -0.2378  0.1523 -0.0259
 8631W        W24815   0.784  17.109   0.842  0.0232  0.0205 -0.0924
 8632W        W24816   4.833   5.034  10.201 -0.4703 -0.3556 -0.0515
 8633W        W24817  14.814  13.984   3.804 -0.0874  0.0765  0.0194
 8634W        W24818  18.517   4.928   4.004 -0.1332  0.1332 -0.2490
 8635W        W24819   7.144   8.104   4.725 -0.0839 -0.2053  0.0987
 8636W        W24820  14.942   6.987  11.906  0.1101  0.2468  0.0670
 8637W        W24821   8.555   2.983  12.443  0.0649  0.2034 -0.1594
 8638W        W24822  16.182  12.275   0.845  0.1144  0.2505 -0.1641
 8639W        W24823  15.267  16.407   8.888 -0.0902  0.0012  0.3682
 8640W        W24824  15.445   8.183   0.238  0.0889  0.1092 -0.2849
 8641W        W24825  12.193   1.167  11.840 -0.0582  0.1258 -0.2275
 8642W        W24826   1.527  19.061   1.983 -0.2196  0.0680 -0.0129
 8643W        W24827   8.820   5.439  13.462 -0.0926 -0.2868 -0.2049
 8644W        W24828  15.778   5.317   4.531 -0.1136 -0.1348 -0.0653
 8645W        W24829  11.319   7.738  14.084  0.0760 -0.0241 -0.4437
 8646W        W24830   3.928  14.008  14.417 -0.3985 -0.2081  0.1520
 8647W        W24831   7.592  15.525  12.734  0.2737  0.1184 -0.1325
 8648W        W24832   3.569  16.798  13.594  0.1138 -0.0014  0.0032
 8649W        W24833   4.341   7.925   4.576  0.0381 -0.4097  0.1681
 8650W        W24834  18.716  10.098   1.905  0.3286  0.0570 -0.2282
 8651W        W24835  10.962  14.458  10.282 -0.3666  0.0343 -0.1362
 8652W        W24836  16.654   4.392  14.856 -0.0185  0.2184  0.0625
 8653W        W24837   2.309   8.350  12.951  0.1585  0.5061  0.2052
 8654W        W24838  14.324  18.680   4.139  0.2596 -0.1831 -0.2421
 8655W        W24839  15.610  12.064   1.974  0.2321 -0.2612  0.1181
 8656W        W24840   3.549  18.253   2.343 -0.0020 -0.1057 -0.1760
 8657W        W24841  17.549  16.286  10.722  0.0459 -0.1180 -0.2514
 8658W        W24842   3.581   0.286  11.190 -0.0590 -0.0545  0.0227
 8659W        W24843  12.894  11.095  13.997 -0.0875  0.2328 -0.0269
 8660W        W24844  10.540   5.519   0.703 -0.2193  0.1286 -0.3114
 8661W        W24845   9.723  19.236   0.738 -0.0921 -0.0569 -0.2491
 8662W        W24846   4.316  10.447  13.088  0.6455 -0.1698 -0.4729
 8663W        W24847  18.815  13.825   4.333  0.3071  0.4216 -0.0701
 8664W        W24848  16.528  10.435   0.729  0.0930  0.2292 -0.0555
 8665W        W24849  14.187  11.033  14.173 -0.1999  0.2764  0.0465
 8666W        W24850  15.231   7.591   0.244  0.1218 -0.3399  0.3622
 8667W        W24851  15.766   2.016   0.326 -0.1648  0.1273  0.0099
 8668W        W24852  19.273  12.202  14.360  0.0821  0.1561 -0.5145
 8669W        W24853  17.386   0.090  11.985 -0.1365  0.1236 -0.0271
 8670W        W24854   7.658   2.548  13.138 -0.1488 -0.1917 -0.1891
 8671W        W24855  12.121   4.210   1.418  0.1366 -0.2755  0.0203
 8672W        W24856   1.090   6.689  12.961  0.1950 -0.2099 -0.2464
 8673W        W24857   2.601   2.078   5.156  0.0736 -0.0074 -0.0048
 8674W        W24858   9.832   1.033  14.884  0.1595  0.3314 -0.0671
 8675W        W24859  17.035   6.071   9.392  0.0580 -0.1561  0.1641
 8676W        W24860   7.290   0.803   2.675 -0.0141 -0.0722 -0.0533
 8677W        W24861  11.555   4.900  11.097  0.1070 -0.3523  0.0705
 8678W        W24862   6.656  12.112   5.914  0.1468 -0.2018 -0.3098
 8679W        W24863   0.878   2.547  14.511 -0.2626  0.0856 -0.1895
 8680W        W24864   6.373   1.262  13.403  0.3672  0.1094  0.0663
 8681W        W24865   2.612   1.527  12.124 -0.0612 -0.1994  0.0538
 8682W        W24866  11.248   9.998   2.412 -0.0032  0.4200  0.4310
 8683W        W24867  19.139  18.014  13.625 -0.0573  0.0539 -0.0773
 8684W        W24868  10.066   0.217  14.081 -0.0523  0.3991 -0.0835
 8685W        W24869  17.713   4.683  10.897 -0.0647 -0.0515  0.1579
 8686W        W24870  16.748   5.001   0.302 -0.3074  0.0065  0.1059
 8687W        W24871   7.787  18.292   3.230  0.0666  0.3284 -0.4062
 8688W        W24872  10.300  11.302  12.765  0.1162 -0.3545 -0.0460
 8689W        W24873   1.398  14.310   2.051  0.2896 -0.0338 -0.0883
 8690W        W24874   6.739  10.530  14.903  0.1265  0.0501 -0.2110
 8691W        W24875  19.203   6.422  11.470  0.1797  0.3482 -0.2205
 8692W        W24876   1.576  10.414  14.810 -0.1087  0.1364  0.1076
 8693W        W24877   6.644  16.844  11.166  0.0317 -0.1172  0.0762
 8694W        W24878  14.936  13.209  14.489  0.0587  0.0167  0.0021
 8695W        W24879  16.651   8.093   9.769 -0.3407 -0.1266  0.1540
 8696W        W24880  13.970   8.306   2.796  0.0854 -0.1398 -0.2968
 8697W        W24881   2.652  18.619  14.125  0.1684  0.2137 -0.2900
 8698W        W24882   0.216  14.287   4.211 -0.0709 -0.0253  0.2876
 8699W        W24883  10.294  11.526  11.951 -0.3889  0.5112 -0.1859
 8700W        W24884  11.857   5.987   1.036 -0.1992  0.1787 -0.1773
 8701W        W24885   8.453  11.308   0.137 -0.2732 -0.0286  0.7146
 8702W        W24886  14.401   6.526   4.571  0.2008 -0.0823  0.2196
 8703W        W24887   5.711  11.162  14.385 -0.0147  0.0597  0.2234
 8704W        W24888   4.284  15.015   2.742  0.1655 -0.1156  0.0178
 8705W        W24889  17.274  15.860  12.880 -0.0473  0.3206 -0.1433
 8706W        W24890   1.632  17.607   9.275  0.3516 -0.0340 -0.1985
 8707W        W24891  15.283  18.644  13.541  0.4499  0.1244 -0.2330
 8708W        W24892  12.752   2.506  12.159  0.0478 -0.1791 -0.1589
 8709W        W24893   2.147  10.566  13.417  0.1650 -0.0122 -0.2394
 8710W        W24894  18.957  16.918  13.091 -0.0166 -0.0903 -0.1502
 8711W        W24895  10.372   5.293   1.950  0.1722  0.4088  0.2169
 8712W        W24896  14.929   7.153  11.420 -0.2996 -0.0259 -0.1976
 8713W        W24897  10.792  16.466   4.141  0.2782 -0.0988 -0.0153
 8714W        W24898  17.763  13.811   2.064  0.0406 -0.2071  0.0816
 8715W        W24899  16.395   4.718   4.327  0.0870  0.2311  0.3608
 8716W        W24900  17.605  14.499   3.066 -0.2904 -0.1493 -0.0578
 8717W        W24901  14.952  18.324  13.362  0.1107  0.1148  0.0360
 8718W        W24902   4.381   7.542  10.112 -0.0271  0.2134  0.0473
 8719W        W24903  17.816   6.274  14.361 -0.3681 -0.1347  0.0426
 8720W        W24904   6.553   1.098   4.869  0.2375  0.1869 -0.2984
 8721W        W24905  17.212   3.704   1.646  0.2975  0.0169 -0.1334
 8722W        W24906   2.387  17.847  14.537 -0.2829  0.1325 -0.0885
 8723W        W24907   2.514   7.222  13.957  0.3997  0.0811  0.1516
 8724W        W24908  12.227  10.312   2.188 -0.0424 -0.0935 -0.2640
 8725W        W24909   0.509   2.040   2.337  0.1338 -0.0577 -0.2752
 8726W        W24910   1.587  12.591  14.774  0.2390  0.4718 -0.1888
 8727W        W24911  14.380   3.110  11.941 -0.3631  0.2940 -0.3247
 8728W        W24912  17.752  18.308  11.293  0.2214  0.3542 -0.1566
 8729W        W24913   0.932  10.824   0.108  0.2716  0.1820 -0.0435
 8730W        W24914  19.143  15.483  10.382  0.1005  0.0089 -0.0766
 8731W        W24915   1.743   3.430   1.777  0.2832 -0.1583  0.1006
 8732W        W24916   9.353  17.196  13.211  0.0787  0.1162  0.1263
 8733W        W24917   5.259  16.806   0.519  0.1613 -0.0169 -0.2149
 8734W        W24918   7.173  17.420  14.793  0.0792  0.1092  0.2170
 8735W        W24919  14.973   3.586  14.067  0.1691 -0.4308  0.4306
 8736W        W24920   4.292   7.820   1.412 -0.1550  0.2776 -0.0052
 8737W        W24921   5.309   7.167   3.089 -0.1078 -0.2859 -0.1256
 8738W        W24922   5.883   5.250   0.161  0.5511 -0.1399 -0.2054
 8739W        W24923  15.481   5.953   2.705  0.1137  0.1146 -0.4031
 8740W        W24924  16.342  18.410  12.417 -0.1193 -0.1130  0.0551
 8741W        W24925  14.426  12.100   3.450 -0.0746  0.0053 -0.2143
 8742W        W24926   5.930  17.056   2.215  0.0950 -0.2381 -0.1968
 8743W        W24927   9.899  16.282   3.870  0.0461  0.0342 -0.0127
 8744W        W24928  10.576  13.066   4.051  0.1569  0.0061  0.0958
 8745W        W24929   3.236  18.803  13.514  0.1413  0.1257 -0.0063
 8746W        W24930   3.659   1.243   3.202 -0.0528 -0.2556 -0.1807
 8747W        W24931   4.292   5.138   1.953  0.0333  0.0531  0.1238
 8748W        W24932  13.941  14.372  12.733 -0.1331  0.3189  0.0733
 8749W        W24933  12.364   8.190  13.945  0.1521  0.1190 -0.0878
 8750W        W24934  11.178   5.337   4.603 -0.0682  0.3111 -0.1059
 8751W        W24935   1.540  18.189   4.975  0.0733 -0.5278  0.2119
 8752W        W24936   5.948   2.324  13.843  0.2214 -0.3749  0.0804
 8753W        W24937  11.374   6.590  14.400  0.0892 -0.1376  0.0450
 8754W        W24938   2.143  13.245   9.607 -0.3823 -0.1283 -0.1248
 8755W        W24939   9.419   9.654   3.225  0.2819 -0.1160  0.0267
 8756W        W24940   0.566  11.326   2.453 -0.0095 -0.3683 -0.0102
 8757W        W24941   4.554   1.862   4.629 -0.4049  0.1523  0.1891
 8758W        W24942   6.734  11.238  12.291 -0.1326  0.2085  0.1531
 8759W        W24943  15.209  10.788   0.097  0.2009  0.0475  0.6720
 8760W        W24944   6.827  16.689   5.030 -0.2273 -0.3026  0.2961
 8761W        W24945   4.569   8.605  11.014 -0.0232  0.0390  0.3237
 8762W        W24946  18.198   6.527   4.930 -0.3405 -0.0212  0.0411
 8763W        W24947   1.469   5.544   2.111 -0.2227  0.0255  0.0536
 8764W        W24948   3.754  16.349  14.662  0.1993 -0.3675 -0.0654
 8765W        W24949   3.467  10.624   0.192 -0.1301  0.1748 -0.1734
 8766W        W24950   3.495   2.570   5.295  0.0097 -0.2447 -0.3078
 8767W        W24951   1.225   6.666  12.470 -0.0293 -0.0051 -0.0598
 8768W        W24952   6.119   3.689   4.560  0.2641  0.0507  0.2044
 8769W        W24953   9.702  14.467  12.870  0.1051 -0.0550 -0.4503
 8770W        W24954  12.780   4.322  12.096  0.1568 -0.2009 -0.1323
 8771W        W24955  10.429  16.250  14.483  0.1035 -0.4494 -0.2547
 8772W        W24956  12.606   3.561  10.496 -0.1330  0.0577  0.1804
 8773W        W24957   8.756   4.978   1.382 -0.1164  0.1315 -0.2734
 8774W        W24958  11.361   4.180  13.626 -0.0534  0.2979 -0.3134
 8775W        W24959  10.836  15.301   0.395  0.0984 -0.0736 -0.2087
 8776W        W24960   2.470   4.392   4.225 -0.0909 -0.1357 -0.2465
 8777W        W24961  14.692  16.271   2.638 -0.2881 -0.3438  0.2652
 8778W        W24962   7.930   7.084  13.059 -0.1475 -0.2787  0.0882
 8779W        W24963  11.999   7.876  11.549  0.3182 -0.1238 -0.0216
 8780W        W24964  10.504  12.988  13.961 -0.1817  0.0036 -0.1337
 8781W        W24965   6.142   7.590  12.739 -0.1103 -0.0930  0.2530
 8782W        W24966  18.806  11.587  11.989 -0.3344  0.1182 -0.1280
 8783W        W24967  13.917   6.039  11.978  0.1699  0.0663 -0.2288
 8784W        W24968  17.669   7.833  11.487 -0.3789  0.1537 -0.2080
 8785W        W24969  13.374  18.729   4.638  0.0725  0.0123  0.0703
 8786W        W24970   8.243  14.206   4.756  0.1024 -0.2173  0.1209
 8787W        W24971   7.743   4.291   5.164  0.0735  0.1939 -0.0371
 8788W        W24972  12.135  14.036  10.680  0.0764 -0.0315 -0.5322
 8789W        W24973   3.453   4.810  12.292  0.1336 -0.3188 -0.0717
 8790W        W24974  13.811   3.467   1.620 -0.1178 -0.0898 -0.2046
 8791W        W24975   5.753  15.543   3.268  0.1308 -0.1218 -0.0184
 8792W        W24976   1.536   4.208  11.764 -0.0540 -0.0439 -0.2289
 8793W        W24977  19.261   3.899  10.655 -0.1014  0.0871  0.3958
 8794W        W24978   2.099   5.298   3.299  0.0895 -0.0200  0.2768
 8795W        W24979   7.805   9.047  13.461 -0.6064 -0.0060 -0.1316
 8796W        W24980   0.839  11.729  13.826 -0.1940 -0.1474  0.2020
 8797W        W24981  17.640  16.609  13.524 -0.0480 -0.1943  0.3644
 8798W        W24982  14.814  12.224  11.175 -0.1632  0.2040 -0.0312
 8799W        W24983   8.242  16.788   2.314  0.1044 -0.0758  0.3618
 8800W        W24984  17.902  14.291  12.527 -0.0062 -0.0686 -0.1209
 8801W        W24985   8.206   6.541  10.556  0.4410  0.1547 -0.0181
 8802W        W24986  19.258  13.618   4.296  0.0546  0.2911 -0.1103
 8803W        W24987   4.020   5.474   1.132 -0.1606 -0.0021 -0.1452
 8804W        W24988  13.921   1.868  12.217  0.0746 -0.3483 -0.2067
 8805W        W24989   3.156   2.139   0.727  0.0667  0.0183  0.0082
 8806W        W24990  18.063   8.118  11.717  0.1267  0.2747 -0.1214
 8807W        W24991   1.749  16.568  11.530 -0.1167 -0.2389  0.2382
 8808W        W24992   5.854   4.084  10.770  0.0332 -0.0991  0.0755
 8809W        W24993  11.895   3.982   5.228 -0.2929 -0.1350 -0.1348
 8810W        W24994  19.069   9.480   2.994 -0.2406 -0.1041  0.0763
 8811W        W24995  14.858   4.924  14.758  0.1547  0.0022 -0.0452
 8812W        W24996   2.625  15.501  11.453 -0.0553  0.1408  0.2119
 8813W        W24997  17.803  14.160   4.231 -0.1867 -0.0191 -0.0907
 8814W        W24998   6.363  12.459  13.624  0.0486  0.2469  0.1533
 8815W        W24999  14.747  15.511  11.260 -0.1193  0.2890 -0.1909
 8816W        W25000  14.577   0.822   1.772 -0.2157  0.2340 -0.0613
 8817W        W25001   3.793  14.798  11.688  0.3184  0.2025  0.0042
 8818W        W25002  10.231  14.165  13.222  0.3485 -0.0891  0.0874
 8819W        W25003   2.105   8.479   3.197  0.1254  0.2480 -0.1272
 8820W        W25004   2.260  15.351   0.898  0.2691 -0.0410  0.1291
 8821W        W25005  11.783   3.733   0.211 -0.0138 -0.1160  0.0572
 8822W        W25006  10.707  15.159  11.989  0.0122  0.3095 -0.0221
 8823W        W25007  11.426  17.801  11.238 -0.1166 -0.2047 -0.1330
 8824W        W25008  12.228   7.457  13.157  0.1527 -0.2157  0.0698
 8825W        W25009  15.977   4.093  13.520 -0.0126  0.4525  0.1038
 8826W        W25010  12.657   7.826   4.130  0.0228 -0.0555  0.2493
 8827W        W25011  10.197  12.687   3.790 -0.2317  0.1900 -0.1159
 8828W        W25012   1.357  14.744  11.419  0.1815 -0.0970  0.0842
 8829W        W25013  17.583  14.856  13.268 -0.2200  0.2080 -0.2253
 8830W        W25014   2.375   2.174  14.767  0.2161 -0.0261  0.1763
 8831W        W25015  13.641   5.557  11.242  0.2087  0.3293  0.2015
 8832W        W25016  13.777   9.953   2.417  0.2518  0.3436 -0.1632
 8833W        W25017  15.737  16.089  12.285  0.0429 -0.0369 -0.0329
 8834W        W25018   5.846   5.410   0.785  0.4092  0.2163  0.0596
 8835W        W25019  17.910  19.073  10.414  0.0911  0.0297 -0.4044
 8836W        W25020   5.548  17.375  13.743  0.2964 -0.1594  0.2596
 8837W        W25021  11.818   4.477  13.714 -0.1197  0.3579 -0.0216
 8838W        W25022   6.468   8.474   6.246 -0.3422  0.0873 -0.1601
 8839W        W25023   1.546   5.324   0.714  0.1274  0.0878 -0.2648
 8840W        W25024  12.271   3.163  11.387  0.1220  0.1853 -0.0826
 8841W        W25025  12.608  18.907  10.979 -0.1858 -0.0182  0.2194
 8842W        W25026   0.618  10.856   5.018 -0.1870  0.1731 -0.3493
 8843W        W25027  16.463  18.391  13.729 -0.2269 -0.1559 -0.0131
 8844W        W25028   2.035   4.652  13.928 -0.1202  0.0622 -0.0180
 8845W        W25029  11.564  14.707  10.970  0.2332  0.0557 -0.3072
 8846W        W25030  11.260  10.069  12.061  0.0004 -0.2756  0.1771
 8847W        W25031  18.929   6.199   1.218  0.2772 -0.0804  0.1449
 8848W        W25032   3.605   7.218   5.928  0.0196  0.0273  0.2103
 8849W        W25033  18.150  15.661  12.137  0.1711 -0.1093 -0.1415
 8850W        W25034   9.646  15.291  13.933  0.1535  0.2571  0.1988
 8851W        W25035  15.431   0.997   3.827  0.0896  0.0709 -0.1010
 8852W        W25036  19.119  10.455   3.960  0.2463  0.2354 -0.0650
 8853W        W25037   2.415  15.907   4.141  0.0918 -0.1314  0.0130
 8854W        W25038  10.250  10.761   1.616 -0.0505  0.3463 -0.0352
 8855W        W25039  15.694  14.432   4.214 -0.1356  0.0207  0.3347
 8856W        W25040   9.813  11.064  12.689  0.1429  0.2153  0.1267
 8857W        W25041  13.991  16.899   0.011 -0.1651  0.1693  0.1063
 8858W        W25042   1.378   2.454   1.148  0.2371 -0.0842 -0.1200
 8859W        W25043  15.484  10.756  11.035  0.0282 -0.0437 -0.1422
 8860W        W25044  16.746  16.914  14.100 -0.0255  0.3611 -0.0349
 8861W        W25045   4.514   8.027   0.101  0.1458 -0.3631 -0.0137
 8862W        W25046  12.356  12.979  10.303  0.1176  0.4029  0.5663
 8863W        W25047   3.616   7.734   1.999  0.4107  0.1585 -0.1341
 8864W        W25048  11.099  18.401   1.430 -0.3843  0.0449 -0.3515
 8865W        W25049   8.940  17.435   3.210 -0.1510  0.4060 -0.0185
 8866W        W25050   5.527   6.896   0.218  0.0334 -0.2665 -0.1475
 8867W        W25051   4.917   3.125  11.481  0.2030 -0.1344  0.3040
 8868W        W25052   4.825  17.481  14.418 -0.0255  0.4170 -0.0278
 8869W        W25053   7.632   0.434  10.901 -0.0055  0.0189 -0.0675
 8870W        W25054   5.289  19.030   5.095 -0.0886 -0.1326 -0.0777
 8871W        W25055  12.185   3.873   3.267  0.0884 -0.0593  0.0199
 8872W        W25056  10.203  14.789  10.730  0.1068 -0.0088 -0.5241
 8873W        W25057   5.046   4.964   1.697  0.1401 -0.2216 -0.1553
 8874W        W25058  18.527  18.186   1.519  0.1538  0.1006  0.0619
 8875W        W25059  16.724  18.812  11.513 -0.0306 -0.2337 -0.0986
 8876W        W25060  18.383  11.789   4.639 -0.2642  0.2887  0.2494
 8877W        W25061   4.716   1.391   0.802 -0.0654  0.2379 -0.0259
 8878W        W25062   6.285  12.975   4.490  0.1000  0.0261 -0.1143
 8879W        W25063   1.264  15.340   3.806  0.1823 -0.0185  0.3131
 8880W        W25064  16.724  16.362   3.047  0.4157  0.0076  0.0148
 8881W        W25065   2.909   4.547  13.597 -0.3618 -0.1868  0.3965
 8882W        W25066  16.052   5.244   0.874  0.1711 -0.2041 -0.1785
 8883W        W25067   8.280   0.990   5.214 -0.0128  0.0022  0.2662
 8884W        W25068   7.139   8.901   1.575  0.0863 -0.1903 -0.0580
 8885W        W25069  11.194  13.311   3.184 -0.2435  0.1251  0.1342
 8886W        W25070  14.955   9.643   0.166 -0.2224  0.1439 -0.1756
 8887W        W25071  19.166   6.259   4.370  0.0385  0.0720 -0.3816
 8888W        W25072  13.682   4.497  13.812  0.1913 -0.4517  0.4460
 8889W        W25073  12.132  17.206  11.041 -0.4975  0.2491 -0.0260
 8890W        W25074  19.192  15.711  14.817  0.1319  0.0200  0.2411
 8891W        W25075  15.282  15.778   1.494  0.0524  0.1322 -0.1542
 8892W        W25076   3.576   0.402   2.938  0.0989  0.3059  0.2029
 8893W        W25077   4.886  15.248  10.406 -0.0117 -0.2470  0.3050
 8894W        W25078  19.149   6.772   5.045  0.3084 -0.4718 -0.0617
 8895W        W25079   1.275   6.284  14.273  0.0863 -0.1431 -0.2279
 8896W        W25080   1.815   5.127   0.308 -0.0410  0.0031 -0.1575
 8897W        W25081   5.062  17.605  11.068  0.0300  0.0452 -0.1724
 8898W        W25082  17.163  12.885   2.294  0.2630  0.0683 -0.0868
 8899W        W25083   9.818   6.986  14.001 -0.0588  0.1032  0.2135
 8900W        W25084   8.447   1.652   4.001  0.3263  0.0154 -0.2235
 8901W        W25085   1.345  10.807   0.484 -0.3060 -0.5481 -0.1306
 8902W        W25086   5.049  12.546  13.222  0.0362 -0.1193  0.2217
 8903W        W25087   5.651   6.099  13.513 -0.1092  0.3138 -0.0995
 8904W        W25088   0.404  18.527  14.752  0.2233  0.0251  0.0871
 8905W        W25089   2.509   0.573   2.045  0.2943 -0.0800  0.2258
 8906W        W25090   5.361   8.882   3.850  0.0800 -0.0699 -0.1247
 8907W        W25091  11.929  18.618   0.816  0.2373 -0.1196 -0.1304
 8908W        W25092   5.075  10.629  11.894 -0.1405 -0.0647 -0.4998
 8909W        W25093   9.356  15.807   5.426  0.3035  0.0960 -0.0010
 8910W        W25094   7.540  17.943  14.039  0.0086  0.0267  0.0199
 8911W        W25095   7.103   6.877   5.980  0.2433 -0.1889 -0.1900
 8912W        W25096  17.216   7.561   2.614  0.0158 -0.1117  0.0551
 8913W        W25097   5.085   7.109  13.577 -0.0227  0.2107  0.1826
 8914W        W25098   7.079   5.631  11.746  0.0031  0.1867 -0.1372
 8915W        W25099  16.513  11.998  12.452 -0.0719  0.0057 -0.2572
 8916W        W25100   1.661  15.953   4.405  0.0440 -0.1096 -0.1565
 8917W        W25101   5.384   1.887   0.671 -0.0750 -0.1120  0.0220
 8918W        W25102   6.389  11.073  13.315  0.0855 -0.3759 -0.1344
 8919W        W25103   5.137  16.851   4.257  0.1676  0.2627 -0.1519
 8920W        W25104  10.400  12.477  13.445 -0.2240 -0.0524  0.2085
 8921W        W25105  15.568   8.977   2.205 -0.1200 -0.0122  0.0142
 8922W        W25106   5.447   4.345  14.218  0.2706 -0.1331 -0.0803
 8923W        W25107   7.354   2.775  13.861  0.0931  0.1676  0.2540
 8924W        W25108  11.049  15.417  11.738 -0.0250  0.1502 -0.3840
 8925W        W25109  12.430   8.290  11.560  0.3272  0.0495  0.0644
 8926W        W25110   7.664   2.712  12.552 -0.1367 -0.2957 -0.0300
 8927W        W25111   0.340   7.760   5.075  0.4320  0.1040 -0.1691
 8928W        W25112  18.239  19.349   0.140  0.0754 -0.3562  0.0383
 8929W        W25113   8.628  12.963   2.197  0.3119  0.4220  0.4483
 8930W        W25114  12.543  10.344  11.149 -0.2099  0.1190 -0.2376
 8931W        W25115   1.842  13.835  12.488 -0.0637  0.2528 -0.0492
 8932W        W25116  17.590   0.865   3.718  0.2646  0.3935  0.0579
 8933W        W25117  12.191   9.941   4.020 -0.1227 -0.0703 -0.1029
 8934W        W25118  11.632   5.904  13.605  0.1082 -0.3877  0.0489
 8935W        W25119   5.077  14.875   0.464 -0.1580  0.2130  0.0244
 8936W        W25120  12.906   3.882   0.926  0.0128  0.3680 -0.1839
 8937W        W25121  17.058   6.466  10.103 -0.1451 -0.0450  0.4425
 8938W        W25122   7.274  17.329   4.416 -0.1853  0.2064 -0.1325
 8939W        W25123  19.371   1.386   2.273 -0.0775  0.1507 -0.0858
 8940W        W25124  14.416  17.640   1.626 -0.1573  0.0265 -0.0546
 8941W        W25125   4.963  16.890  11.842 -0.2162 -0.3272 -0.0193
 8942W        W25126   7.335   1.335  13.181  0.0046 -0.1109  0.2695
 8943W        W25127  17.337  17.320  12.993 -0.0162  0.2976 -0.1702
 8944W        W25128  12.996  17.918   0.419  0.0212  0.0748  0.1521
 8945W        W25129  18.857   7.279  13.309 -0.2073 -0.1332 -0.1082
 8946W        W25130   3.364  10.835  11.859 -0.1372 -0.0794 -0.1693
 8947W        W25131  14.292   2.141   1.042 -0.0879 -0.0518 -0.3245
 8948W        W25132   9.436   1.501  14.250  0.0677 -0.0245  0.3178
 8949W        W25133   4.514   0.549   0.101  0.0998 -0.3141  0.0678
 8950W        W25134  10.157   7.379   3.866 -0.1756  0.1565 -0.1300
 8951W        W25135   3.638   3.757   0.232 -0.4521  0.0512  0.0671
 8952W        W25136  14.115   2.330   2.254  0.1965  0.2958  0.1545
 8953W        W25137  16.101   0.273  11.486  0.2349 -0.1499  0.1532
 8954W        W25138   6.492  11.522  11.461  0.1118 -0.0760 -0.1883
 8955W        W25139  13.291   8.278   3.666 -0.1413  0.1858 -0.1459
 8956W        W25140   7.748   2.325   3.172 -0.0864 -0.0499 -0.2441
 8957W        W25141  15.293  18.319   8.910 -0.1031  0.4504 -0.0318
 8958W        W25142  17.714  16.558  11.748  0.2490 -0.0366  0.2370
 8959W        W25143  11.771  10.740  14.348  0.1683 -0.4289 -0.2883
 8960W        W25144  14.687   4.532  13.640  0.1357  0.0934  0.1196
 8961W        W25145   7.114   9.013   2.948 -0.0112  0.0326 -0.1672
 8962W        W25146   5.061   4.518   1.867  0.2285  0.1174 -0.1938
 8963W        W25147   2.800   4.821   3.119 -0.1678 -0.1598 -0.1378
 8964W        W25148  19.250  16.356   3.185  0.1796 -0.2340 -0.0203
 8965W        W25149  17.314   8.774  12.288  0.3441 -0.2170 -0.0565
 8966W        W25150  17.335  10.915  11.495 -0.2214 -0.1332 -0.3208
 8967W        W25151   7.015  16.849  12.145  0.2369 -0.2451  0.0924
 8968W        W25152  19.127  14.656  11.002 -0.0879 -0.0616  0.0301
 8969W        W25153  14.589   1.995   3.219  0.0601  0.0075 -0.0763
 8970W        W25154   2.076   2.949   2.518  0.1024 -0.1845  0.3036
 8971W        W25155  15.990  18.165  13.741  0.2020 -0.2647 -0.0351
 8972W        W25156  18.942   9.763   3.359 -0.2179  0.0326  0.0326
 8973W        W25157  11.084   4.628   0.972  0.0930 -0.3917  0.4137
 8974W        W25158   5.845   6.192  14.502  0.0784  0.0766  0.0349
 8975W        W25159   2.509  10.229   1.695  0.1361 -0.1749 -0.0454
 8976W        W25160  16.202   6.850   0.856 -0.0584  0.2392  0.0998
 8977W        W25161  12.823   7.427   2.649 -0.1679  0.0557  0.0128
 8978W        W25162  14.986  15.654   4.064  0.0312 -0.2266 -0.2539
 8979W        W25163   4.194   7.261   0.643 -0.1549 -0.0961  0.1705
 8980W        W25164   8.264  10.022  12.167  0.1520  0.0808 -0.1675
 8981W        W25165  13.998  15.291   0.408  0.0668  0.1634 -0.0661
 8982W        W25166   6.412  15.007  13.550  0.2343  0.1299 -0.1445
 8983W        W25167   2.866  19.324   9.808 -0.3008  0.2498  0.0074
 8984W        W25168   9.592  10.331   4.254  0.0945 -0.0686 -0.3968
 8985W        W25169  11.045   0.437  14.869  0.2058  0.3108 -0.0326
 8986W        W25170   1.787   2.459   0.853 -0.2161  0.0222 -0.1492
 8987W        W25171   5.863   6.375  11.058  0.0945 -0.0996 -0.0429
 8988W        W25172  15.613  14.058   4.555  0.1702  0.1380 -0.0468
 8989W        W25173  19.186  14.072   4.478 -0.2051 -0.0430  0.1805
 8990W        W25174  18.974   2.521   2.111  0.0880  0.1640  0.0138
 8991W        W25175  12.296  18.401  12.671 -0.1178  0.0120  0.2617
 8992W        W25176   2.221   2.351   5.848  0.0224  0.1618 -0.1305
 8993W        W25177   0.135  15.236   2.182  0.1999  0.0535 -0.0391
 8994W        W25178   2.043  10.388   5.442 -0.0036  0.3889 -0.3299
 8995W        W25179   2.525   5.084  12.699 -0.2008 -0.2725  0.0223
 8996W        W25180  18.563  16.680   1.357  0.2186 -0.0791 -0.1965
 8997W        W25181   7.651   9.519   0.656 -0.1311 -0.2147  0.1103
 8998W        W25182  12.985  17.475   2.065 -0.1258 -0.2575  0.1880
 8999W        W25183   0.512  11.159   2.922  0.3352 -0.1660  0.1161
 9000W        W25184  17.553  17.758   2.506  0.1846 -0.0169  0.0165
 9001W        W25185  12.708   4.319  11.168 -0.0068  0.1802 -0.0608
 9002W        W25186   2.896  14.084  11.116  0.1447 -0.1308  0.1961
 9003W        W25187   1.841   7.221   2.630 -0.0467 -0.0516  0.1840
 9004W        W25188  10.379  12.453   1.310  0.2596 -0.1608 -0.0053
 9005W        W25189  19.373   9.103  11.339 -0.0462  0.4583 -0.0360
 9006W        W25190   5.703   4.212  11.859  0.1109  0.1526  0.2057
 9007W        W25191  11.996   0.796   4.018 -0.2024  0.2024 -0.2259
 9008W        W25192  11.995   6.839  10.732 -0.1248 -0.0320  0.1295
 9009W        W25193   6.398  17.724  14.699  0.1388 -0.1173  0.0409
 9010W        W25194   1.301  16.677   1.157 -0.2501  0.3661 -0.2734
 9011W        W25195  14.218   1.201  11.814 -0.4796 -0.1561  0.2328
 9012W        W25196  12.978   9.408  14.455  0.3279 -0.0889 -0.2717
 9013W        W25197   1.313  18.918   3.976  0.1834  0.0336  0.1928
 9014W        W25198   1.781  15.501  14.121  0.1537 -0.0598 -0.0780
 9015W        W25199   1.673   3.866   0.672  0.2013  0.0967 -0.2341
 9016W        W25200   4.703   9.508   3.521 -0.2030 -0.0881  0.1059
 9017W        W25201  18.799  10.028   3.884 -0.1700 -0.3596 -0.0918
 9018W        W25202  16.532  13.002   3.632  0.0927 -0.2478  0.0209
 9019W        W25203   5.646   7.952   1.420  0.1507  0.0935  0.0833
 9020W        W25204  15.519  16.771   2.402  0.0061 -0.2187 -0.0243
 9021W        W25205   2.253  18.048   2.442 -0.0968 -0.1698  0.3706
 9022W        W25206  16.344   5.110   2.253 -0.2904 -0.2162 -0.0231
 9023W        W25207   3.291   4.580   1.033  0.1247  0.2299 -0.2451
 9024W        W25208   7.312  19.244   1.384 -0.2312 -0.4005 -0.2133
 9025W        W25209   8.337   3.356  10.995  0.1717  0.0753 -0.1793
 9026W        W25210   9.131   1.193  14.552 -0.2769  0.1568  0.0015
 9027W        W25211  11.493   5.427   3.475 -0.0076 -0.1707 -0.2494
 9028W        W25212  11.005  17.094   3.574 -0.2877  0.2436  0.1510
 9029W        W25213  12.473  19.311  11.609 -0.0468  0.6423 -0.2856
 9030W        W25214   3.412   8.552   1.456 -0.0324  0.1101 -0.1343
 9031W        W25215  15.809   6.481   1.541 -0.1437 -0.0617 -0.0615
 9032W        W25216   9.934   3.754  14.883  0.5782 -0.0624  0.2256
 9033W        W25217   2.273  11.971  14.871  0.1772 -0.0638 -0.5972
 9034W        W25218  17.501   1.754   4.170  0.0857  0.0922  0.0827
 9035W        W25219   0.205  14.497  11.034  0.1125  0.3840  0.1084
 9036W        W25220   3.399   4.551  13.568 -0.4309  0.1293  0.0327
 9037W        W25221   7.471   6.577   0.189 -0.0368  0.0214  0.0251
 9038W        W25222   1.366  19.126  10.910 -0.1575 -0.0776  0.2563
 9039W        W25223  16.003  18.239  12.783 -0.2258 -0.0173  0.2196
 9040W        W25224  11.713  14.995   0.463 -0.0344  0.1808 -0.0900
 9041W        W25225   6.893  15.607   3.341 -0.0669 -0.1876  0.1265
 9042W        W25226  12.574  13.601  13.825  0.1422  0.0634 -0.4287
 9043W        W25227   4.560   2.445  14.183 -0.1128  0.0032  0.0734
 9044W        W25228   3.997  17.432   2.227  0.1590  0.0884 -0.2001
 9045W        W25229  11.147   8.418   1.416  0.1819  0.1941 -0.2457
 9046W        W25230  16.162  14.179   4.920  0.2241 -0.1401  0.1809
 9047W        W25231  12.626  12.272   4.386 -0.0035 -0.0448 -0.0760
 9048W        W25232  17.724  12.498  10.759  0.3402  0.2661 -0.1766
 9049W        W25233   7.252  19.322  12.493 -0.0184  0.1672 -0.1926
 9050W        W25234  14.597  14.035  11.666 -0.5504 -0.1444  0.0477
 9051W        W25235  16.597  11.092   2.969  0.3101  0.2362 -0.0474
 9052W        W25236  14.236   9.105   1.380 -0.3050 -0.0835 -0.0787
 9053W        W25237  11.367   1.603   2.432 -0.1440  0.2107  0.0662
 9054W        W25238   5.067   7.559  13.274 -0.4956 -0.0492 -0.2099
 9055W        W25239   6.654   7.489   0.630  0.1568 -0.1674 -0.2238
 9056W        W25240   7.386  18.803  13.354  0.3263 -0.3556 -0.0054
 9057W        W25241  10.451  10.727   0.723 -0.2230  0.0508  0.1325
 9058W        W25242   9.839  13.308  14.522 -0.1374 -0.0046 -0.1006
 9059W        W25243   5.441  12.581   1.802  0.1852  0.0046 -0.1172
 9060W        W25244   0.539   3.031  11.729  0.1156  0.2533 -0.2564
 9061W        W25245  16.876  11.954   1.849 -0.4069 -0.2418  0.0935
 9062W        W25246  18.070  13.180  14.735 -0.2594  0.3508 -0.0529
 9063W        W25247  11.739   4.890   2.708  0.1893  0.0567 -0.6000
 9064W        W25248   2.552   1.738   4.669  0.0337 -0.1658  0.0237
 9065W        W25249   0.338  10.409  10.892  0.0474 -0.0751 -0.3176
 9066W        W25250  19.026  13.335   3.793  0.2920  0.2169  0.2482
 9067W        W25251   5.884   0.881   2.058 -0.1726  0.2053 -0.1765
 9068W        W25252  15.280  14.702   4.186 -0.0766  0.2413  0.0871
 9069W        W25253   8.974   0.634  11.509 -0.1735  0.0607  0.0686
 9070W        W25254  15.673   8.756  12.464  0.1257  0.1561 -0.0169
 9071W        W25255   5.225   8.744   0.247  0.1710  0.1997 -0.2576
 9072W        W25256   4.762   0.429  14.615 -0.1559 -0.2110  0.1414
 9073W        W25257   4.972   2.472   1.628 -0.1432 -0.1536  0.0991
 9074W        W25258   7.754   0.143  13.968 -0.0569  0.0218  0.0225
 9075W        W25259  10.911  10.311   2.597 -0.0527 -0.1080 -0.3415
 9076W        W25260   9.914   4.191   0.916 -0.0289  0.0237 -0.0032
 9077W        W25261   9.210  15.824  10.379 -0.1432  0.0023  0.1975
 9078W        W25262   8.662   6.423   2.311 -0.1220 -0.1119 -0.1306
 9079W        W25263   7.228   7.520  14.801  0.1195  0.0709  0.1946
 9080W        W25264   4.952  15.990  14.223 -0.1270  0.1836  0.3284
 9081W        W25265   4.585   4.030   0.381 -0.1015  0.3734 -0.0328
 9082W        W25266   3.963  10.218  14.636  0.0818 -0.1777  0.1266
 9083W        W25267  10.442   1.943   3.255 -0.3891  0.4316 -0.1290
 9084W        W25268   4.436   2.392   1.416  0.2659  0.1828  0.1492
 9085W        W25269  11.464  12.739   2.123 -0.2328 -0.1056  0.3448
 9086W        W25270  11.906   1.423  12.781 -0.1235 -0.2507  0.1029
 9087W        W25271  16.957   9.940  14.876  0.0659  0.2597  0.0536
 9088W        W25272  17.945   9.003  14.820 -0.2402  0.1269 -0.0704
 9089W        W25273  16.199   8.188   5.439  0.1174  0.0717  0.2868
 9090W        W25274  13.517   9.602  12.469 -0.0244 -0.2075 -0.4044
 9091W        W25275   3.614  11.905   2.456  0.2003  0.3660  0.1494
 9092W        W25276  15.179  16.731  13.062 -0.1764 -0.0446  0.4553
 9093W        W25277   6.383   8.036  12.780  0.0824  0.0800 -0.0698
 9094W        W25278   1.926  17.824  11.914 -0.0547 -0.3183 -0.0938
 9095W        W25279  14.465  14.155  12.942 -0.0133  0.2356 -0.0205
 9096W        W25280  10.047   0.209  10.648  0.2741 -0.0508 -0.1742
 9097W        W25281   2.141   4.218  14.262 -0.0744 -0.1411 -0.0746
 9098W        W25282   1.055   6.799  12.009  0.1764 -0.3191 -0.1562
 9099W        W25283   1.395   8.424  11.205  0.2429  0.1038  0.1210
 9100W        W25284   2.881   8.980  13.283 -0.1062  0.1720  0.2003
 9101W        W25285   4.186  10.147  11.595 -0.0014  0.2712 -0.0269
 9102W        W25286   7.749  10.235   0.133  0.0394 -0.1615  0.0051
 9103W        W25287  10.140  16.901  13.956  0.1592 -0.2527 -0.0691
 9104W        W25288  18.214   3.931   1.434  0.1326 -0.2783 -0.1325
 9105W        W25289  13.373   5.165  12.062 -0.0739 -0.1005 -0.2702
 9106W        W25290   9.942   5.437  11.327  0.0432 -0.4711 -0.2672
 9107W        W25291   4.178   6.846  11.943 -0.0591 -0.1426 -0.3725
 9108W        W25292  10.013   0.650   9.686 -0.0819 -0.2002 -0.0304
 9109W        W25293   2.353  17.457  10.024  0.1109  0.0540 -0.0461
 9110W        W25294  13.053  14.588   4.220  0.1412 -0.1060 -0.2171
 9111W        W25295   4.490  19.242  11.713  0.2003 -0.1556 -0.0127
 9112W        W25296   9.405  13.168   4.037 -0.0680 -0.2722  0.1311
 9113W        W25297  17.030   4.491  11.455 -0.0939  0.4046  0.2349
 9114W        W25298   2.753   1.750   2.854  0.1354  0.0265  0.2277
 9115W        W25299   8.175  14.931   0.898  0.0338  0.0088  0.2031
 9116W        W25300  13.370   2.182   4.318 -0.3156 -0.0718  0.1642
 9117W        W25301   1.367   1.020   3.817  0.1918  0.1049 -0.0420
 9118W        W25302  14.243  18.955  14.025 -0.0031 -0.0888  0.1485
 9119W        W25303  12.727   0.363   9.914  0.0189 -0.0066  0.0883
 9120W        W25304   8.869  10.432   1.478 -0.0523 -0.1800  0.2894
 9121W        W25305  11.408  19.264   2.506 -0.2238  0.1106  0.3057
 9122W        W25306   6.786   0.149   4.963 -0.0255  0.0175  0.1888
 9123W        W25307   3.477   5.097   3.508  0.2803 -0.2768 -0.0421
 9124W        W25308  10.344  17.040   1.894 -0.0388 -0.2947 -0.0146
 9125W        W25309   4.257  11.845  14.359  0.0749  0.5394 -0.0804
 9126W        W25310  11.367   7.035   3.335  0.2291 -0.1117  0.1099
 9127W        W25311   2.087  11.476  12.182  0.0934  0.0721 -0.2165
 9128W        W25312   7.170  11.125  14.698  0.1382  0.3017  0.0452
 9129W        W25313  11.646  13.379   1.208 -0.1203 -0.1084 -0.2627
 9130W        W25314   3.979   5.534  11.143 -0.2367 -0.1210 -0.0031
 9131W        W25315  11.769  16.830   0.706  0.0910 -0.0332  0.0312
 9132W        W25316  16.853   4.661  12.663  0.1117 -0.1948  0.3745
 9133W        W25317   9.062   0.130  11.490 -0.1346 -0.1584  0.1843
 9134W        W25318   4.825   4.407  10.873 -0.1693  0.0187  0.1993
 9135W        W25319   1.770  17.289  14.396  0.1246  0.1912  0.0442
 9136W        W25320  12.520   3.550   2.234  0.1107  0.0880 -0.3190
 9137W        W25321  14.363  15.041  10.245 -0.0506 -0.2772  0.0316
 9138W        W25322   0.580  16.187  11.737 -0.3217  0.1667 -0.1267
 9139W        W25323  11.579   3.326  14.380 -0.1160 -0.1160  0.2638
 9140W        W25324   5.469   4.572   3.056 -0.1145  0.3394  0.0234
 9141W        W25325   3.532   5.785   1.056 -0.0158 -0.0146  0.2268
 9142W        W25326  13.307   8.747   4.507 -0.3595 -0.1434 -0.0104
 9143W        W25327   7.028   5.478   4.615  0.3515  0.3349  0.2679
 9144W        W25328  16.778   1.520  13.380  0.1228  0.0015  0.0173
 9145W        W25329  10.201   6.182  12.718  0.1934  0.1588  0.3073
 9146W        W25330  17.212   2.551   0.809 -0.1871 -0.1467  0.1813
 9147W        W25331   4.815  14.918  11.336  0.0299 -0.2095 -0.1980
 9148W        W25332  15.920   2.193  12.506 -0.3029  0.0642 -0.0281
 9149W        W25333  19.113  17.209   5.723 -0.0300  0.1379 -0.0530
 9150W        W25334  14.280  14.011  11.009 -0.2702 -0.1090  0.1727
 9151W        W25335   6.248   1.966   1.644 -0.2861 -0.2598 -0.4095
 9152W        W25336  17.370   5.539  13.684  0.0166 -0.1040  0.3610
 9153W        W25337  13.767   8.146   3.225 -0.0219 -0.2101 -0.0486
 9154W        W25338  18.739   2.188   3.341  0.1559  0.2100  0.4165
 9155W        W25339  12.215   1.106   0.153 -0.1478  0.1680 -0.2182
 9156W        W25340  11.510  13.134   9.934  0.0298 -0.0046 -0.0555
 9157W        W25341  12.954   7.308   4.493 -0.0551 -0.0568  0.1439
 9158W        W25342   4.751   6.934   2.141  0.2607 -0.1127 -0.3044
 9159W        W25343  10.923  19.079   3.969  0.1116  0.1229  0.0665
 9160W        W25344  14.169  16.025  14.893  0.1686  0.1049 -0.2412
 9161W        W25345   9.042  17.539  13.978 -0.0930  0.2101  0.2618
 9162W        W25346  17.320  18.200   2.509 -0.1046  0.0655  0.1183
 9163W        W25347  19.102  12.957  12.974 -0.0397  0.3094  0.4242
 9164W        W25348   7.981  18.273   0.937  0.0404 -0.1030 -0.0356
 9165W        W25349  10.507  10.779  12.000 -0.1412  0.0124 -0.0211
 9166W        W25350  10.552  17.247  13.354  0.1058  0.1943  0.1123
 9167W        W25351   4.009   5.525  10.629  0.1647  0.0756 -0.2585
 9168W        W25352   9.860   0.004  10.206  0.3678 -0.1494 -0.4677
 9169W        W25353   0.394   3.890  10.790  0.0839 -0.1972 -0.0864
 9170W        W25354  12.303   6.528   3.699 -0.4616  0.0107 -0.2507
 9171W        W25355  16.788  18.078   0.738 -0.0160  0.1597  0.0628
 9172W        W25356  10.118   7.455   1.786  0.0782 -0.0597 -0.0733
 9173W        W25357  13.883  10.001   2.931  0.5476 -0.3161  0.1150
 9174W        W25358  11.850  16.878  10.783  0.3351  0.1160  0.1600
 9175W        W25359  15.955  16.537   3.135 -0.0406 -0.3721 -0.1938
 9176W        W25360  12.815  16.786  14.696  0.0759 -0.2206  0.0580
 9177W        W25361   9.316  14.545   1.272 -0.0487 -0.1715 -0.1945
 9178W        W25362   5.477  15.405  14.704  0.2677  0.0059 -0.2515
 9179W        W25363  18.324  19.117  10.168 -0.1626 -0.1451 -0.0371
 9180W        W25364   5.648   1.967   0.169  0.0034 -0.0793 -0.1979
 9181W        W25365   2.750  14.673  11.706 -0.0487 -0.1848 -0.2753
 9182W        W25366  15.140   0.231  10.301 -0.0601  0.0674  0.2270
 9183W        W25367   0.879   9.052  13.763  0.3691  0.0442 -0.0586
 9184W        W25368  15.827  10.677   4.761  0.0570 -0.2726  0.2446
 9185W        W25369   1.639   4.555   4.450  0.1009  0.2220  0.5676
 9186W        W25370   4.379   5.224  13.839 -0.0646 -0.2303 -0.3336
 9187W        W25371   2.014  10.795  14.832 -0.0745  0.1548 -0.1277
 9188W        W25372  11.890  10.935  14.751 -0.0057 -0.2673 -0.4612
 9189W        W25373  10.053  14.178   5.690 -0.0147  0.2082  0.0100
 9190W        W25374   1.761   9.654  11.059 -0.3427  0.0273 -0.1324
 9191W        W25375  12.288  18.805  11.887 -0.1280 -0.2297  0.6329
 9192W        W25376   7.688  13.240   3.505  0.1027  0.1595  0.2349
 9193W        W25377   0.723   0.621  13.309 -0.0650  0.0944 -0.0553
 9194W        W25378  14.577   3.458   0.498  0.5500 -0.0105 -0.2538
 9195W        W25379  14.393   9.966   2.913 -0.0798  0.3493 -0.0930
 9196W        W25380  10.804  17.321  13.815  0.2074  0.0750 -0.1674
 9197W        W25381   9.457  13.020   0.403  0.3665 -0.2269 -0.0192
 9198W        W25382   7.989  16.000   0.347 -0.0730  0.1840 -0.0763
 9199W        W25383  13.470  17.484  14.402  0.0718 -0.1868  0.2653
 9200W        W25384   9.564   6.979  12.045  0.0534  0.1146  0.1473
 9201W        W25385   8.794   5.876  13.073 -0.0869  0.1717 -0.0736
 9202W        W25386   8.682   6.196  12.566 -0.0304  0.2221 -0.0270
 9203W        W25387  10.071   9.721  10.620  0.1017 -0.4430 -0.1503
 9204W        W25388   3.298  17.268   3.500 -0.1073 -0.0027 -0.0693
 9205W        W25389   7.521   4.515  13.958 -0.2582  0.2412 -0.0382
 9206W        W25390  14.021  18.971  14.758 -0.2456  0.0676  0.0717
 9207W        W25391  12.852  11.294   5.158 -0.3140 -0.1746  0.2147
 9208W        W25392   2.662  11.666   4.127 -0.0214  0.0177  0.0432
 9209W        W25393   2.163   6.788  11.079  0.1194  0.2820  0.0318
 9210W        W25394   1.301   2.489   3.448 -0.1184  0.0325 -0.0084
 9211W        W25395   0.225   4.900  10.771 -0.1726  0.4030  0.0908
 9212W        W25396   0.393   7.493  14.835 -0.0454  0.0336 -0.0243
 9213W        W25397   3.454   6.805   3.728 -0.0997  0.0392 -0.2946
 9214W        W25398   6.582   1.463  14.883 -0.1093 -0.0094 -0.1848
 9215W        W25399  15.187  11.528  14.676  0.0116  0.0036  0.0861
 9216W        W25400   7.661   4.352   3.175 -0.1062 -0.4805  0.2053
 9217W        W25401   2.597  18.258   4.398  0.0755 -0.1265 -0.0110
 9218W        W25402   1.975  18.324   2.052  0.1459  0.0553 -0.0869
 9219W        W25403  11.413   1.045   1.690 -0.0332 -0.2191 -0.2791
 9220W        W25404  15.844   1.504   2.955 -0.0287  0.1018 -0.4494
 9221W        W25405   9.964  15.513   5.017  0.2826  0.0654  0.0471
 9222W        W25406  10.084  14.123  10.322 -0.1992 -0.2365 -0.0944
 9223W        W25407  14.000   0.061  13.961  0.0237 -0.1679  0.3459
 9224W        W25408  10.998   6.257   4.772  0.2490  0.0630 -0.1932
 9225W        W25409   6.555  18.856  10.422 -0.4240 -0.0658 -0.0529
 9226W        W25410   0.369   8.897   2.411  0.2577 -0.0980 -0.0568
 9227W        W25411  17.940   4.106   4.685  0.1224  0.1296  0.3416
 9228W        W25412  11.419   5.367  10.979 -0.3977 -0.0628  0.3299
 9229W        W25413  13.752   9.832  13.393  0.1264  0.2842 -0.0834
 9230W        W25414  14.437  12.250   4.264 -0.0088  0.0127 -0.1195
 9231W        W25415  16.733  16.723   4.400  0.1238 -0.1407  0.1607
 9232W        W25416   6.450   9.352   0.271 -0.1094 -0.2218  0.3355
 9233W        W25417  13.369  13.923  11.962 -0.0825 -0.0259 -0.2005
 9234W        W25418  13.949   6.491   4.098  0.2464  0.1826  0.0493
 9235W        W25419   0.215   6.485  11.175 -0.2401  0.2168 -0.1227
 9236W        W25420  17.576   3.752   0.505 -0.0294 -0.1504  0.2507
 9237W        W25421   3.301  16.298   5.117  0.1023  0.0859  0.2078
 9238W        W25422  12.420   4.579  11.942  0.1618 -0.3250  0.0166
 9239W        W25423   9.454  14.142  13.605  0.0569  0.1321  0.0094
 9240W        W25424  13.367   5.825   4.872  0.1810  0.1330  0.1339
 9241W        W25425   1.785  16.402   3.620 -0.2727  0.1731  0.0407
 9242W        W25426   3.723  17.388  11.315 -0.2638 -0.0044 -0.2724
 9243W        W25427   9.858   8.825   0.071  0.1953  0.0027  0.0057
 9244W        W25428   5.984  11.135  12.883  0.0915  0.0832  0.0467
 9245W        W25429  12.810  14.198   1.132  0.2269 -0.0613 -0.3948
 9246W        W25430  17.308  14.558  13.629  0.2107  0.1244 -0.0500
 9247W        W25431  16.720   6.026   1.868  0.2739  0.0850 -0.0854
 9248W        W25432   6.564  13.688   2.834  0.1603 -0.0034 -0.0715
 9249W        W25433   9.676  17.003  13.923 -0.0809 -0.0855  0.0067
 9250W        W25434  19.370  15.689   2.357 -0.1766  0.1398 -0.1239
 9251W        W25435   0.014   2.765  13.028  0.2419 -0.1933  0.1109
 9252W        W25436  18.037   3.574  13.184  0.1766 -0.0917  0.2090
 9253W        W25437  10.936   2.823   0.551 -0.0344  0.1753  0.0580
 9254W        W25438  14.233   9.371   0.263  0.1261  0.0513  0.3230
 9255W        W25439  13.176  10.699  13.630 -0.5215  0.1566 -0.2310
 9256W        W25440  17.300  19.030  10.236  0.3190 -0.1072  0.4975
 9257W        W25441   0.140  15.783   4.001 -0.0383  0.1611  0.0046
 9258W        W25442   1.062   8.327   0.139 -0.3558 -0.0942 -0.2615
 9259W        W25443   7.861   5.919   2.305 -0.0392 -0.0173  0.0535
 9260W        W25444   8.832  16.304  12.748 -0.4059  0.1350 -0.3822
 9261W        W25445  17.625  17.003   2.053  0.4902  0.2924  0.0814
 9262W        W25446   4.997   9.805   4.254 -0.0426 -0.1139 -0.2540
 9263W        W25447  12.652   1.043  14.250  0.1712 -0.2059 -0.2145
 9264W        W25448  17.420   4.036  12.265 -0.1126 -0.0285  0.0457
 9265W        W25449  18.352  13.117   0.865  0.0851  0.2864  0.0191
 9266W        W25450   5.672  14.130   3.414  0.1903  0.1258 -0.0498
 9267W        W25451   7.111  13.307  11.789  0.1570 -0.0958 -0.2210
 9268W        W25452   1.137   4.717   4.032 -0.0623  0.1863 -0.1027
 9269W        W25453  18.270  18.528   3.927 -0.0707  0.0451 -0.0545
 9270W        W25454   6.516  13.509  13.242 -0.1540  0.0345 -0.1289
 9271W        W25455   8.316  15.715  12.092 -0.0212  0.0492 -0.1099
 9272W        W25456   2.390  15.847  11.680  0.1036  0.2500 -0.1001
 9273W        W25457  11.942   2.033   3.129 -0.2010  0.0909 -0.2279
 9274W        W25458   2.426  17.797   5.253  0.2175 -0.1882 -0.0487
 9275W        W25459  13.516   7.246  12.760 -0.2279  0.3443  0.1441
 9276W        W25460  17.051  15.013   4.215  0.0612 -0.1059  0.0373
 9277W        W25461  13.014  18.937   3.237 -0.0628 -0.0470  0.0325
 9278W        W25462  14.465   1.745   0.133  0.0368  0.1246  0.0829
 9279W        W25463   5.307   2.173  10.312  0.0602 -0.2941 -0.1072
 9280W        W25464   6.349  17.371   1.269  0.2317  0.2341 -0.0327
 9281W        W25465  16.256  10.668   1.052  0.0879  0.4282 -0.0785
 9282W        W25466   3.536   0.217   2.202  0.0116  0.1732 -0.0735
 9283W        W25467   6.756  17.324  11.288  0.0968  0.0064 -0.3029
 9284W        W25468  17.201  14.918   4.683  0.1123  0.0855  0.0325
 9285W        W25469   9.631   5.105   0.974  0.2511 -0.1604  0.1709
 9286W        W25470  16.728  18.525   1.026 -0.0855  0.0851  0.0686
 9287W        W25471  14.690   3.357   2.064  0.1069 -0.1739  0.3267
 9288W        W25472  18.016   1.895   3.380  0.0391 -0.2224  0.3006
 9289W        W25473  13.180   1.081   1.694  0.0171  0.1758  0.1040
 9290W        W25474  14.805  17.340  13.631 -0.2917 -0.2784 -0.2477
 9291W        W25475   4.437   8.831   5.861  0.1616 -0.0803  0.1389
 9292W        W25476   3.806   1.626   5.180 -0.1341  0.0544 -0.3222
 9293W        W25477  17.804  16.300   4.568  0.1074  0.0227  0.4379
 9294W        W25478  13.481  18.724   3.094 -0.1619 -0.0666 -0.1966
 9295W        W25479   2.135   6.247   5.111 -0.0622  0.2443 -0.1076
 9296W        W25480  16.708  11.335   2.361 -0.0434 -0.3467 -0.2090
 9297W        W25481   6.880  15.489  13.442 -0.0136  0.0655 -0.1571
 9298W        W25482   8.350  16.942  11.009  0.0444 -0.1937  0.0316
 9299W        W25483  13.239  13.808   2.506  0.1283  0.0788  0.0775
 9300W        W25484  11.079  16.066   3.392  0.2998 -0.0987 -0.1281
 9301W        W25485  15.911   2.078   2.717  0.0576 -0.0666 -0.0273
 9302W        W25486  11.646  14.990  10.548  0.3157 -0.1125  0.1104
 9303W        W25487   4.868   2.773  11.925 -0.2423  0.3302  0.0406
 9304W        W25488  15.798  16.770  14.043 -0.0759 -0.0267  0.0419
 9305W        W25489   2.824  13.189  14.291  0.2417  0.3704  0.1057
 9306W        W25490  11.760   5.768   3.749  0.1587 -0.3112 -0.0070
 9307W        W25491  19.095   6.161   3.155  0.1854 -0.0578  0.2317
 9308W        W25492  17.357   7.860   4.698  0.1130 -0.0718 -0.1346
 9309W        W25493   6.453  17.308   9.887 -0.2732 -0.1138 -0.2431
 9310W        W25494   7.778   9.916  11.783  0.0235  0.7645  0.1637
 9311W        W25495  16.279   6.972   9.831 -0.2598 -0.1886 -0.1260
 9312W        W25496   2.407   7.682   5.056 -0.0018  0.2415 -0.0829
 9313W        W25497  13.393  13.483  10.138 -0.3481 -0.1455  0.2203
 9314W        W25498   8.484   8.518   2.678 -0.3829  0.0299  0.2679
 9315W        W25499  10.658  18.512   4.731 -0.2902  0.2215 -0.0204
 9316W        W25500   3.654  10.656   2.206 -0.2304  0.0591  0.2856
 9317W        W25501  11.848  10.437   4.698  0.2783  0.1805  0.1127
 9318W        W25502  14.422   0.259   3.919  0.2841 -0.2398  0.0810
 9319W        W25503  13.256  17.982   1.855  0.1049 -0.0345  0.2328
 9320W        W25504  13.413   2.182  10.984  0.0616  0.0633 -0.0238
 9321W        W25505  18.903   6.645  13.190 -0.3191  0.0133 -0.1631
 9322W        W25506  12.764  17.989  11.923 -0.1385  0.0285 -0.3412
 9323W        W25507  16.130  14.889   5.325 -0.2679  0.4791  0.1534
 9324W        W25508  16.592  16.334   4.095 -0.4577  0.1524 -0.1378
 9325W        W25509  19.078  10.582  11.070 -0.2690  0.2290 -0.1251
 9326W        W25510   1.514   7.760   3.946 -0.1521 -0.0399 -0.1381
 9327W        W25511   3.193  18.819  11.335 -0.1340 -0.0273  0.0088
 9328W        W25512  13.199  14.973   0.603 -0.3594 -0.1931  0.1019
 9329W        W25513  16.087  13.737  10.149  0.1064 -0.1772  0.0677
 9330W        W25514  13.998   3.380  11.609  0.0280  0.0070 -0.1515
 9331W        W25515   3.276   9.728  12.953  0.1704  0.2613  0.1179
 9332W        W25516   3.078   0.278   4.909  0.2652 -0.1044  0.2103
 9333W        W25517  17.027   5.936  11.924  0.0429 -0.0230  0.1409
 9334W        W25518  13.440   3.051  11.905  0.3326  0.0858 -0.1398
 9335W        W25519   9.833   0.408   2.146  0.0174 -0.1790  0.3346
 9336W        W25520   5.202   0.292  10.659  0.0287  0.0443 -0.0237
 9337W        W25521   9.427  17.587   5.427 -0.0663 -0.1384  0.2015
 9338W        W25522  14.038   3.250   4.139 -0.0983 -0.3472  0.3099
 9339W        W25523   0.831   5.543   4.447 -0.0413 -0.1991 -0.0071
 9340W        W25524   7.731  15.595  10.590 -0.1401  0.0272 -0.0994
 9341W        W25525  10.552   6.063   0.730 -0.1647  0.0742 -0.2102
 9342W        W25526  17.154   9.553   0.119 -0.2467 -0.0057 -0.4862
 9343W        W25527   6.048  17.092  14.588 -0.2659  0.1636  0.1866
 9344W        W25528   4.890  14.159   0.587  0.1377  0.0340  0.0112
 9345W        W25529  11.424   4.618   4.558 -0.1706 -0.1398 -0.3355
 9346W        W25530  16.859  17.600   1.021  0.0171  0.1358 -0.2030
 9347W        W25531   8.026  12.189  13.088  0.2795 -0.2056  0.1024
 9348W        W25532   5.510   9.281   2.375  0.0438 -0.0714  0.1155
 9349W        W25533   6.047   5.573   3.247 -0.4286 -0.6938 -0.1535
 9350W        W25534   1.634  11.995   4.019 -0.0810  0.0496  0.1682
 9351W        W25535  13.134  14.553  14.685  0.2544 -0.0394 -0.0772
 9352W        W25536  11.475  18.390  13.719 -0.2370 -0.0023  0.1894
 9353W        W25537   0.400   4.207  13.679  0.0016  0.2002  0.0456
 9354W        W25538  16.673   5.353   2.604 -0.0646 -0.0899 -0.1865
 9355W        W25539   4.430   5.257  10.439 -0.3699  0.1529 -0.3027
 9356W        W25540  10.429   5.592  11.209  0.0584 -0.2246 -0.1445
 9357W        W25541  13.260   8.464  11.661  0.2717  0.2628 -0.1452
 9358W        W25542  16.813   7.869   2.875 -0.0691 -0.0553  0.0808
 9359W        W25543   3.514  17.177   2.721 -0.0657  0.0471 -0.0352
 9360W        W25544   5.248   0.499  12.013 -0.2194  0.2705 -0.1784
 9361W        W25545  10.045   8.966  13.599  0.3521 -0.5791  0.0879
 9362W        W25546   6.090   5.629  10.709  0.1119  0.1746  0.0679
 9363W        W25547  13.708  11.847  13.495  0.1704  0.1045  0.0677
 9364W        W25548  11.595  17.050   3.616  0.1120 -0.1570  0.1459
 9365W        W25549  19.110  15.734  13.960  0.0311  0.1621 -0.1111
 9366W        W25550  14.474  12.891   5.272  0.2004 -0.0714 -0.0741
 9367W        W25551   5.095  12.621   3.890 -0.0178 -0.1283 -0.1744
 9368W        W25552  14.962  13.119  11.717  0.2385 -0.0908  0.1815
 9369W        W25553  18.537   6.520   4.450 -0.2076  0.1430 -0.1623
 9370W        W25554  10.539  13.223   0.265  0.0393  0.0667  0.2722
 9371W        W25555   1.689  12.321  11.750  0.0305 -0.1203 -0.2295
 9372W        W25556   9.235   8.804   0.148  0.4494 -0.0793 -0.2204
 9373W        W25557   5.922  15.687   2.373 -0.0640  0.0309 -0.0292
 9374W        W25558  17.317  18.549   3.361  0.1066  0.2013  0.0571
 9375W        W25559   7.010  15.448  11.822  0.2962  0.0905  0.0460
 9376W        W25560  15.784  15.781   2.905  0.1862 -0.1410  0.1127
 9377W        W25561  11.475   3.680   5.156  0.0012  0.0974 -0.2431
 9378W        W25562   2.971   0.141  10.838  0.0844 -0.0071 -0.1939
 9379W        W25563  13.192   9.299  13.940 -0.4064  0.0565  0.2223
 9380W        W25564   1.389   3.324   4.617  0.0265 -0.1535  0.0913
 9381W        W25565   1.849  10.098   5.068  0.2321  0.0085 -0.2947
 9382W        W25566   3.587  10.978   0.527 -0.0065 -0.3098 -0.1607
 9383W        W25567  13.995  14.584   2.743  0.1067  0.0255 -0.1770
 9384W        W25568   0.835   9.717   5.639  0.1040 -0.1515 -0.0087
 9385W        W25569  18.454   7.897   0.367 -0.2589  0.2288  0.0424
 9386W        W25570   4.189   2.807  11.580 -0.0367  0.2515 -0.1327
 9387W        W25571  16.308  11.763  12.023  0.2198 -0.1561  0.0216
 9388W        W25572   7.903  15.194   2.783  0.2982  0.0292  0.1257
 9389W        W25573  13.171  16.221  10.438  0.0585  0.1697 -0.2144
 9390W        W25574   5.989  12.815  12.828 -0.1742 -0.0966 -0.0393
 9391W        W25575  12.765  14.996   2.062 -0.3485 -0.2611 -0.0963
 9392W        W25576  18.476   5.896   1.254 -0.1351 -0.0731 -0.4088
 9393W        W25577  15.368  13.273   5.386 -0.0775  0.1970 -0.0242
 9394W        W25578   0.099  13.204  14.513 -0.0945  0.0742 -0.1157
 9395W        W25579  15.685   8.699   0.086  0.3502  0.2560 -0.0190
 9396W        W25580   3.558   4.334  14.548 -0.2423  0.1331 -0.0239
 9397W        W25581  11.282  10.392   3.645 -0.3155 -0.2536  0.2865
 9398W        W25582  12.655  17.360  10.729 -0.1837  0.1176  0.2879
 9399W        W25583   4.891   3.922   5.033  0.0141 -0.4555 -0.0563
 9400W        W25584  13.475   7.533  13.303 -0.0409 -0.3258  0.3813
 9401W        W25585   1.466  11.689   4.483  0.0190  0.0090 -0.0430
 9402W        W25586  14.854   0.637   2.152 -0.1924  0.1540 -0.2740
 9403W        W25587  12.655  17.006   0.247  0.3448  0.0547  0.0375
 9404W        W25588   2.976   0.473   2.207  0.5114 -0.1685  0.1895
 9405W        W25589   7.820  11.803   0.039  0.0964  0.2048  0.0325
 9406W        W25590  16.588  14.646   9.591  0.1869  0.0576  0.1234
 9407W        W25591  13.256   8.921   1.504  0.2513  0.1643  0.0466
 9408W        W25592  14.350   6.864  11.477 -0.3256  0.3442 -0.0925
 9409W        W25593  17.617  19.184  11.715 -0.1530 -0.1849 -0.1624
 9410W        W25594   8.720   8.842  13.691  0.2881  0.1972  0.2413
 9411W        W25595  19.201   0.538   5.316  0.1976  0.0441 -0.0262
 9412W        W25596  16.175  19.391   4.174  0.1308  0.0911 -0.0531
 9413W        W25597   8.752  19.234   1.113  0.0180 -0.0301  0.4218
 9414W        W25598   8.334  12.425   5.072 -0.3538  0.0645 -0.1872
 9415W        W25599  15.086   4.219  10.648  0.0427 -0.0130 -0.2112
 9416W        W25600  11.890   6.904  13.763 -0.1032 -0.2032  0.0412
 9417W        W25601  10.426  10.023  10.829 -0.0294  0.3843  0.1339
 9418W        W25602   5.733  10.844  14.804  0.0270  0.2660 -0.3279
 9419W        W25603  10.786  19.380   1.983  0.1198  0.0392 -0.0296
 9420W        W25604   4.109   6.328   3.150  0.0641  0.0503  0.0951
 9421W        W25605  18.187  16.523   2.762  0.0984  0.1097 -0.3585
 9422W        W25606   2.964   5.195   5.274 -0.1072  0.1152  0.1151
 9423W        W25607  14.077  15.694  10.281  0.1109 -0.3446 -0.3412
 9424W        W25608   5.551   8.566   5.169 -0.1868  0.0223 -0.3126
 9425W        W25609   7.063   9.927   4.112 -0.2187 -0.0530  0.1854
 9426W        W25610   5.621  10.254  12.868 -0.2085  0.1802 -0.0631
 9427W        W25611  16.667  12.418   3.002  0.0634 -0.4190 -0.1458
 9428W        W25612  14.450   0.467   1.413 -0.0102  0.1410 -0.1073
 9429W        W25613  10.850  14.982   5.092 -0.3835  0.1814  0.3541
 9430W        W25614  18.970  16.441  10.424  0.3090 -0.3449  0.2633
 9431W        W25615  10.551   7.677   1.715 -0.0518  0.0759 -0.0449
 9432W        W25616   0.531   2.686  14.149  0.1053 -0.3399 -0.0662
 9433W        W25617  18.492   2.229  11.876 -0.1960 -0.3492  0.0360
 9434W        W25618  14.888  14.362  13.161  0.1247  0.1844  0.0761
 9435W        W25619   3.582   9.536   0.427 -0.1142 -0.0812  0.1521
 9436W        W25620  15.819  10.923   4.266  0.3567  0.0996 -0.1740
 9437W        W25621   3.593   1.691  13.305  0.2034 -0.1577  0.0988
 9438W        W25622  14.324   3.881   3.120  0.0867 -0.2155  0.1535
 9439W        W25623   9.244  11.203   2.675  0.2501  0.0039  0.2940
 9440W        W25624  15.713   6.619   4.197 -0.3798 -0.0886 -0.0902
 9441W        W25625   0.335  15.519   0.201  0.3189 -0.0190  0.0228
 9442W        W25626  18.473  19.307  13.425 -0.5694 -0.0417 -0.0494
 9443W        W25627   2.012  12.817   2.684  0.1086 -0.2611  0.3376
 9444W        W25628   6.981   3.960   4.396 -0.0477  0.1386  0.1646
 9445W        W25629  13.109  11.736   3.836  0.0030 -0.0925  0.0139
 9446W        W25630   5.353   1.011  12.141  0.1303  0.1713 -0.3844
 9447W        W25631   9.474   8.826   5.648  0.0487 -0.1543 -0.0887
 9448W        W25632   0.690  11.703   1.365  0.0063 -0.1601 -0.3146
 9449W        W25633   7.238  10.617   1.055  0.0309 -0.2487 -0.0841
 9450W        W25634  12.167   7.164   1.439 -0.0443 -0.3226 -0.2366
 9451W        W25635  14.763   5.263  11.447  0.0462 -0.1082 -0.1220
 9452W        W25636  17.591   7.487  12.530 -0.1569  0.0822  0.0165
 9453W        W25637   1.237   4.277   1.490 -0.2713  0.2313  0.2097
 9454W        W25638  12.880   1.034  11.731 -0.2615  0.2710 -0.1771
 9455W        W25639   4.711   3.024  12.756 -0.1057  0.0268 -0.0988
 9456W        W25640   3.154  18.259  14.189 -0.1848 -0.0151 -0.3350
 9457W        W25641   4.464   7.168  11.007 -0.1860  0.1655  0.1958
 9458W        W25642  10.938   6.467   4.229 -0.3328  0.1172 -0.2263
 9459W        W25643   4.328   7.476   3.634 -0.0764 -0.0555 -0.1153
 9460W        W25644  18.719  11.521  14.271 -0.1764 -0.2287 -0.1169
 9461W        W25645   8.872   5.403  11.890  0.0029  0.0632 -0.2471
 9462W        W25646  16.974  14.849   1.936  0.0892 -0.0272  0.5129
 9463W        W25647  14.565   8.331   0.455 -0.3057  0.0166  0.1974
 9464W        W25648  10.140   2.004   4.428  0.0275 -0.1682 -0.1890
 9465W        W25649  16.407  14.723  10.608 -0.0297  0.1073 -0.1203
 9466W        W25650   7.620   6.298   4.697  0.0963 -0.0537 -0.3460
 9467W        W25651   8.869   9.677  14.209  0.4401 -0.1599 -0.4895
 9468W        W25652   4.291  10.874  11.221 -0.0917 -0.3153 -0.2000
 9469W        W25653  13.828   0.316  12.777 -0.0711  0.0195 -0.0640
 9470W        W25654   6.221  15.140  14.178  0.0974  0.0489 -0.4660
 9471W        W25655   6.159  17.093   4.665 -0.0777  0.0941 -0.1087
 9472W        W25656   4.933   7.154   6.210  0.3092 -0.1073  0.1326
 9473W        W25657  17.827   4.384   1.418 -0.0959 -0.0604 -0.1174
 9474W        W25658  13.310   5.993  12.048  0.0485  0.2081  0.0613
 9475W        W25659   0.164   3.330  13.328  0.1363 -0.0863 -0.0797
 9476W        W25660  12.279  11.670  12.238  0.0766  0.3768 -0.2275
 9477W        W25661  14.305  15.671   1.897 -0.2483 -0.0435  0.2227
 9478W        W25662  12.578   7.706   4.637 -0.2341 -0.0266 -0.2340
 9479W        W25663  10.882  16.859  13.494  0.1078  0.2370  0.1409
 9480W        W25664  19.096  10.100  11.586  0.0107 -0.0001 -0.0694
 9481W        W25665  13.688  18.946  13.815  0.1372  0.0649 -0.0072
 9482W        W25666  15.621  16.400  11.988  0.2334 -0.0466  0.0198
 9483W        W25667  13.231   7.538   2.897  0.1300 -0.0379 -0.0064
 9484W        W25668  11.612   1.378   2.890  0.2512  0.1456  0.3976
 9485W        W25669  18.016  11.592   2.323 -0.1021 -0.1521  0.3160
 9486W        W25670   8.565  10.186  13.647  0.1338  0.0604 -0.0909
 9487W        W25671   6.984  19.285  14.107 -0.3090 -0.1330 -0.0298
 9488W        W25672   9.802  18.550  10.489  0.0609  0.0950 -0.2776
 9489W        W25673   2.318  11.333   3.981  0.0034  0.2729 -0.1780
 9490W        W25674  15.470   2.165  13.797  0.0552 -0.0812 -0.0061
 9491W        W25675  13.823  16.386  14.641  0.0172 -0.2750  0.0252
 9492W        W25676  10.327   3.576   1.286 -0.1029 -0.0341  0.0291
 9493W        W25677   3.485  19.189  13.863  0.1269  0.0478 -0.0413
 9494W        W25678   3.550  17.416   1.311 -0.1449  0.3882  0.0795
 9495W        W25679   6.027  13.691   1.554  0.0247 -0.1153 -0.0341
 9496W        W25680  11.616  15.095  14.055 -0.1125  0.0150 -0.1022
 9497W        W25681  17.083   5.751   4.987  0.0068 -0.0810  0.2874
 9498W        W25682   5.485   3.323  13.922  0.1727 -0.2287  0.2614
 9499W        W25683  10.511   9.973   5.415  0.1029 -0.0432 -0.1615
 9500W        W25684   1.817   6.069   1.370  0.2622 -0.0907 -0.2152
 9501W        W25685  16.136  11.686   0.224  0.0770 -0.2531  0.3028
 9502W        W25686   3.814   3.913  14.725  0.0945  0.1355 -0.2971
 9503W        W25687   9.806   9.796   3.552  0.1182 -0.0372  0.0213
 9504W        W25688   8.135   0.610   1.762 -0.0333  0.4226  0.3259
 9505W        W25689   3.547  15.709   3.007 -0.1942  0.2454  0.1115
 9506W        W25690  10.174  10.994   4.300 -0.2064  0.1142  0.0452
 9507W        W25691  11.717  16.031  13.996  0.0626 -0.0691  0.1182
 9508W        W25692   0.914   3.421   5.171  0.0540 -0.2526 -0.3660
 9509W        W25693   6.311   8.951  14.310 -0.0367 -0.0281  0.2454
 9510W        W25694  11.273  16.870  10.689  0.2316  0.0376  0.1298
 9511W        W25695   5.941   5.084  10.940 -0.3895 -0.1694  0.1191
 9512W        W25696  12.382   3.886   1.840 -0.1330 -0.1762 -0.0353
 9513W        W25697   5.699  12.856  11.588  0.0017  0.2073  0.0563
 9514W        W25698   0.532  17.263   9.941 -0.1381  0.3509  0.5145
 9515W        W25699  13.489  17.527   2.367 -0.1319 -0.0335  0.1108
 9516W        W25700  10.693   1.255   4.185  0.0586 -0.1097  0.1387
 9517W        W25701  17.607  15.617  11.593 -0.0663 -0.1301 -0.2958
 9518W        W25702   2.509  18.185  13.774 -0.0516  0.3618  0.0855
 9519W        W25703   3.671  17.427  10.086  0.1061 -0.2283  0.0228
 9520W        W25704  17.377   0.672   0.519  0.0393  0.0998  0.0397
 9521W        W25705  15.764  16.664  10.056 -0.2459  0.0483 -0.1590
 9522W        W25706   7.558   0.948  13.541  0.1212 -0.2294  0.0044
 9523W        W25707   6.025   9.396   4.404  0.1182  0.0698  0.1760
 9524W        W25708   6.044  12.064  10.563 -0.2200 -0.0589 -0.0140
 9525W        W25709   1.153  11.141  12.303 -0.2301 -0.2369 -0.2077
 9526W        W25710  17.972  12.613   3.681  0.0146  0.0883 -0.1230
 9527W        W25711  15.291  14.359   0.507 -0.0539 -0.0519 -0.1568
 9528W        W25712   9.180  10.229  10.650 -0.2232  0.2423  0.0029
 9529W        W25713   7.617  11.309   4.120 -0.0533 -0.0570 -0.1020
 9530W        W25714  10.562   1.362  13.977  0.1064  0.3553 -0.0327
 9531W        W25715   3.532  14.299  11.860 -0.3180 -0.3995 -0.1227
 9532W        W25716  16.735   5.379  14.399  0.1959  0.2189 -0.1913
 9533W        W25717   4.121   9.220   2.666  0.4406  0.1005  0.2345
 9534W        W25718   2.334   0.561   5.428 -0.0817  0.0394 -0.0278
 9535W        W25719  11.194  10.173  11.040  0.1217 -0.0248 -0.0701
 9536W        W25720  17.872  16.109   5.396 -0.1650  0.0589  0.0770
 9537W        W25721   5.737  11.790  14.501 -0.1073  0.0116 -0.1199
 9538W        W25722  19.163   0.350   1.766 -0.0313 -0.3563  0.1808
 9539W        W25723   7.579   6.068   2.748  0.0875  0.3570 -0.1526
 9540W        W25724   3.728  14.242   2.415 -0.2675 -0.0489 -0.0409
 9541W        W25725   1.036   2.843  11.816  0.0360 -0.3187 -0.0710
 9542W        W25726  13.375   8.797  10.317 -0.0504  0.0671  0.0333
 9543W        W25727   5.195   0.223  14.739 -0.2072  0.1145 -0.2922
 9544W        W25728  12.910   0.427   3.527  0.1228 -0.0967 -0.1462
 9545W        W25729  10.708   0.019  11.453  0.2208 -0.1534  0.0515
 9546W        W25730   5.771   7.900  14.191  0.1408  0.0243  0.1623
 9547W        W25731   8.464   5.632   4.925 -0.0153 -0.0259  0.0629
 9548W        W25732  10.025  13.553   2.360  0.3848 -0.1159  0.2125
 9549W        W25733   4.465  17.949   3.951  0.1592  0.0012 -0.0742
 9550W        W25734   6.234  15.807   5.631 -0.0256 -0.1463 -0.2792
 9551W        W25735  12.074   3.506   1.961 -0.2248 -0.1638 -0.0637
 9552W        W25736   8.859  17.295   3.652 -0.0706 -0.1090 -0.0762
 9553W        W25737   6.191   1.957   1.097  0.2980  0.0557 -0.2942
 9554W        W25738  18.891  16.443  12.317  0.1759 -0.1391 -0.0570
 9555W        W25739   6.568  16.928   4.425 -0.2833 -0.0849 -0.0206
 9556W        W25740  10.952  18.697  10.224 -0.1692 -0.2072 -0.1708
 9557W        W25741  13.591   1.409  12.495 -0.3195  0.1203  0.0587
 9558W        W25742  15.694   3.324   2.878 -0.1108  0.1513  0.0687
 9559W        W25743   1.240   7.939   3.579 -0.0950  0.0458 -0.0989
 9560W        W25744  14.267  12.873   1.689 -0.0171 -0.1594 -0.0258
 9561W        W25745  10.821  16.535   3.604 -0.3997  0.1542  0.2976
 9562W        W25746  11.923   1.269   3.368 -0.1937  0.2114 -0.1510
 9563W        W25747  12.658  16.223   1.300 -0.0553  0.1811 -0.4059
 9564W        W25748  17.331   6.572   4.442 -0.1858 -0.0611  0.0722
 9565W        W25749   3.698  10.477   4.234  0.0943  0.4227 -0.1257
 9566W        W25750   2.444  16.351   0.423  0.4448 -0.0181 -0.0725
 9567W        W25751  12.701   0.945   0.749  0.2049 -0.0605 -0.1436
 9568W        W25752  17.790   8.152  13.038 -0.4180  0.0379  0.2948
 9569W        W25753   9.197  13.577  12.627 -0.0107 -0.1630 -0.3302
 9570W        W25754  14.024   9.616   4.437 -0.1997  0.0651 -0.0859
 9571W        W25755  12.063  11.950   3.810 -0.3599 -0.2347 -0.1317
 9572W        W25756   9.449   3.710   3.146  0.2700 -0.0187  0.2516
 9573W        W25757   2.389  11.862   4.893 -0.1261  0.2117 -0.1441
 9574W        W25758   7.881   3.445  12.270  0.0381 -0.2238  0.2404
 9575W        W25759   9.321   9.437   1.282 -0.1013  0.0587 -0.0280
 9576W        W25760  14.686   1.790   0.988  0.2569  0.0448 -0.2886
 9577W        W25761   6.149   0.978   2.995 -0.0702 -0.0179  0.1372
 9578W        W25762  14.737  17.487  14.925  0.0100  0.2360  0.2261
 9579W        W25763  13.359  14.246   1.121  0.1780  0.2517 -0.0960
 9580W        W25764   6.788   0.182   5.487  0.0535 -0.1810  0.1046
 9581W        W25765   3.769  12.857   1.993 -0.3686 -0.1336 -0.5516
 9582W        W25766   6.585   4.604  12.337 -0.3197 -0.2956  0.0297
 9583W        W25767  17.418  18.325  13.375 -0.2850  0.1567  0.0002
 9584W        W25768  10.467  13.656   3.403 -0.2808  0.1015 -0.0779
 9585W        W25769  17.156   0.205   0.748  0.1233  0.0682  0.0943
 9586W        W25770   8.571   7.398   4.510 -0.1864 -0.3216  0.2407
 9587W        W25771   3.134   9.184   3.808 -0.0019  0.0831 -0.2738
 9588W        W25772  15.547  10.024  13.050  0.2403  0.2626  0.1154
 9589W        W25773  10.750   5.876  14.773  0.0111 -0.1964 -0.4266
 9590W        W25774  14.223  16.864   3.962 -0.0657  0.2692  0.1588
 9591W        W25775  13.075  16.642   2.425 -0.1037 -0.0412  0.0348
 9592W        W25776  10.885  12.010   1.417 -0.2325 -0.0147  0.4319
 9593W        W25777   2.759  10.457   2.456  0.1990 -0.4152 -0.0815
 9594W        W25778   9.904  18.886   1.579  0.0189 -0.4756  0.0404
 9595W        W25779  18.352  10.840  12.539  0.0609 -0.3671  0.1213
 9596W        W25780   7.653   1.623  11.524  0.3129  0.0740  0.0273
 9597W        W25781   6.878   6.181   5.007 -0.2500 -0.2147  0.0277
 9598W        W25782   5.598  19.109   4.002  0.1994  0.1125  0.0550
 9599W        W25783   9.251   1.339  12.926 -0.2277  0.0567  0.1454
 9600W        W25784  11.745   8.958  12.732  0.2301  0.1956 -0.0377
 9601W        W25785  16.605   8.899   3.870 -0.4920 -0.1110 -0.3663
 9602W        W25786   4.358   8.344  12.072 -0.0350 -0.3182  0.1155
 9603W        W25787   7.541   1.723   2.221  0.0496  0.1282 -0.0842
 9604W        W25788   3.842  17.994   1.967 -0.1367 -0.1525 -0.2728
 9605W        W25789   5.856  15.391   2.748 -0.0583 -0.2747  0.1970
 9606W        W25790  11.114   0.616  13.272 -0.3724  0.1157 -0.4258
 9607W        W25791  14.370  15.846  11.152 -0.1362  0.2922  0.2056
 9608W        W25792  10.682   7.534  10.963  0.2461 -0.1733 -0.2076
 9609W        W25793   0.887  14.654  12.184  0.0435 -0.4825 -0.3444
 9610W        W25794  10.460  12.677  10.751 -0.1000  0.0043 -0.2538
 9611W        W25795  11.786   1.797   0.102  0.1490  0.1339 -0.1444
 9612W        W25796  15.037  10.862  10.861  0.1005  0.1157 -0.1097
 9613W        W25797  18.829   9.934   4.772 -0.1583 -0.0615 -0.0918
 9614W        W25798  16.346  15.841  12.725 -0.4520 -0.2775 -0.0327
 9615W        W25799  11.789  17.371   3.214 -0.2248  0.2536 -0.2210
 9616W        W25800  13.706   8.692  11.865  0.0707  0.1218 -0.2457
 9617W        W25801   1.280  14.786  12.980 -0.0860 -0.1483 -0.3377
 9618W        W25802   7.914   0.100   3.140 -0.3570 -0.2685  0.6258
 9619W        W25803  13.747   4.975   2.007 -0.1075 -0.3331  0.0919
 9620W        W25804  10.682   7.919   4.806  0.1411  0.1365 -0.0133
 9621W        W25805  13.515   1.284  14.620  0.1087  0.1908 -0.1841
 9622W        W25806  15.044   8.803   1.615  0.0634  0.0490 -0.1685
 9623W        W25807  18.331   1.468  10.576  0.1555  0.0248 -0.1937
 9624W        W25808   9.798  18.966   2.495 -0.0515  0.3541  0.2759
 9625W        W25809   8.917  10.907  11.551 -0.3264  0.0094 -0.0796
 9626W        W25810  17.600   2.149  12.088 -0.0041  0.0279 -0.1516
 9627W        W25811   6.058  13.456   5.295 -0.0765  0.1694 -0.0331
 9628W        W25812   3.692  16.406  10.999 -0.0165 -0.0301 -0.1324
 9629W        W25813   7.235   8.184   2.757  0.4933 -0.1368  0.0956
 9630W        W25814   1.770  17.192  10.714 -0.3658  0.0346  0.0881
 9631W        W25815  12.489   6.503  14.767 -0.2239  0.1790 -0.3004
 9632W        W25816  13.566   2.539  10.626 -0.1006  0.3048 -0.0334
 9633W        W25817   2.836  17.186  10.799  0.1199 -0.0630  0.1408
 9634W        W25818  11.791   3.991  13.550 -0.1032 -0.1989  0.0214
 9635W        W25819   4.627  12.169  10.739 -0.1527  0.1379 -0.2029
 9636W        W25820  11.244  16.778  12.997 -0.0761  0.1890 -0.1938
 9637W        W25821  14.433  15.783   4.902  0.0112 -0.3867 -0.2160
 9638W        W25822   8.790   4.760  13.148 -0.0760  0.1944  0.1727
 9639W        W25823  11.473   1.925   3.021  0.1123 -0.1797  0.2039
 9640W        W25824  14.421   4.768   0.099 -0.2535  0.2144 -0.0093
 9641W        W25825   6.410  17.739  10.101 -0.0166 -0.1156 -0.2704
 9642W        W25826   3.616   9.947   3.969  0.0372  0.0295 -0.5559
 9643W        W25827  14.384   1.883  12.505 -0.1968 -0.2677 -0.1859
 9644W        W25828   7.792  11.956   2.904  0.3729  0.3431  0.1911
 9645W        W25829   3.766   9.615  10.981  0.3130  0.0299  0.2942
 9646W        W25830   5.330  11.768   2.992  0.0119 -0.1267  0.0591
 9647W        W25831   2.022   9.773   5.505 -0.3940  0.0500 -0.1861
 9648W        W25832   1.259   3.140   1.627  0.0975  0.0318 -0.0956
 9649W        W25833   3.950   8.035   0.770  0.3500  0.1099  0.1572
 9650W        W25834  18.384   4.536  12.494  0.1910  0.2186  0.1608
 9651W        W25835  10.616  14.894   0.615  0.1535 -0.2109  0.1804
 9652W        W25836  13.161   0.758   4.261 -0.2576  0.0914 -0.2947
 9653W        W25837   9.108   7.586  14.086  0.0223 -0.0924 -0.0603
 9654W        W25838   0.072   6.494   4.826  0.2250 -0.1693 -0.4773
 9655W        W25839   5.673   7.154  11.297  0.1021  0.1549  0.0252
 9656W        W25840  17.731   5.098  13.737 -0.2256  0.1815 -0.2319
 9657W        W25841   1.580  12.057  12.553  0.2114  0.0118  0.1659
 9658W        W25842   0.585   3.435  13.090  0.2699  0.1067  0.2724
 9659W        W25843  13.253   7.148  10.470 -0.0078  0.2687 -0.1503
 9660W        W25844  16.832   2.401  12.420 -0.0934  0.0499  0.0261
 9661W        W25845   8.895  16.648   2.534  0.0725  0.3919 -0.1567
 9662W        W25846   6.475   3.320   3.032  0.2043  0.0196  0.0288
 9663W        W25847   4.748   8.009  12.384  0.0691 -0.3935 -0.0748
 9664W        W25848  13.447   6.168  10.048 -0.1136 -0.2613 -0.0341
 9665W        W25849   9.080  14.753  11.664  0.0338 -0.1052  0.1373
 9666W        W25850  14.417   5.137  12.153 -0.1639 -0.0883 -0.0161
 9667W        W25851   5.459   5.863  14.430 -0.0185 -0.0918  0.2604
 9668W        W25852   0.039  18.404   2.135 -0.3677  0.0425  0.0056
 9669W        W25853  10.911   3.253   3.807  0.0109  0.2273 -0.3276
 9670W        W25854  16.675  17.600  11.816  0.1242 -0.1119 -0.0380
 9671W        W25855   8.793   5.787   3.320  0.2229  0.0730  0.1920
 9672W        W25856   3.962   3.020   0.939 -0.0005 -0.0580  0.0894
 9673W        W25857   9.937   6.556   3.993 -0.4028  0.1847  0.1291
 9674W        W25858   3.149  18.336   1.362  0.1363 -0.3260  0.0686
 9675W        W25859  17.954   0.898  10.959  0.1221 -0.0110 -0.4115
 9676W        W25860  18.285  15.436  14.457 -0.0481 -0.1807 -0.1043
 9677W        W25861  13.889  11.406  13.974  0.0785 -0.0337 -0.3778
 9678W        W25862  15.231  14.825   1.823 -0.1154 -0.1613  0.0712
 9679W        W25863  15.892  17.059  11.405  0.0101 -0.0118  0.0376
 9680W        W25864   8.196   3.135   5.037  0.0386 -0.0453  0.0258
 9681W        W25865  16.271   2.877   3.265  0.1272  0.0011  0.0890
 9682W        W25866  12.562  12.895   3.446 -0.3811 -0.2655 -0.1096
 9683W        W25867   8.384   5.640  10.159 -0.1056  0.3306  0.2246
 9684W        W25868  17.573  16.843   3.341  0.0573  0.1943 -0.0412
 9685W        W25869   3.593  18.510   3.145 -0.0073  0.0036  0.2090
 9686W        W25870   3.290   3.988   1.200  0.1350  0.3073  0.1753
 9687W        W25871  13.209   7.006  14.060 -0.2508 -0.4129 -0.0880
 9688W        W25872  12.714   1.856  12.930 -0.2577  0.3921 -0.0695
 9689W        W25873  14.599  17.990   2.993  0.1100 -0.1241 -0.2502
 9690W        W25874  15.634  18.670   0.341 -0.0962  0.0888  0.2334
 9691W        W25875  16.516   0.822  13.808  0.0503 -0.1885 -0.0662
 9692W        W25876   5.613  19.056   4.487  0.0634 -0.0652 -0.2682
 9693W        W25877  14.807  18.602   3.908 -0.1390  0.0848  0.0451
 9694W        W25878  13.461   3.768  10.944  0.0646  0.4489  0.0101
 9695W        W25879   6.561   2.477  10.731  0.1817  0.0018  0.0134
 9696W        W25880  10.346   6.048  11.436 -0.0803 -0.1766 -0.0542
 9697W        W25881  16.211   1.684  12.965 -0.0035 -0.0345  0.1605
 9698W        W25882  11.331  15.812  12.957 -0.0663 -0.2201  0.0390
 9699W        W25883  13.010  15.017  12.431  0.2112 -0.0610 -0.2189
 9700W        W25884   3.692   2.546  12.090  0.2217 -0.0707 -0.0456
 9701W        W25885  18.922   4.920  11.426  0.1684 -0.2389  0.0523
 9702W        W25886   6.773  16.375  13.612  0.2092  0.1858 -0.5147
 9703W        W25887   4.305   5.236  12.367  0.1774 -0.2222  0.1116
 9704W        W25888  19.167   9.941   2.085 -0.2084  0.1041  0.0855
 9705W        W25889   0.232  12.095   5.287 -0.0635 -0.3139  0.2641
 9706W        W25890  14.606  11.395   5.263 -0.0751  0.0043  0.2173
 9707W        W25891  11.001   9.457   1.541 -0.4715 -0.3468  0.2970
 9708W        W25892  14.256  11.138   1.005  0.2552 -0.1840  0.0983
 9709W        W25893  13.153   3.446   0.835 -0.0796 -0.1758 -0.2619
 9710W        W25894  18.646  15.694   4.648  0.3131  0.0364 -0.1426
 9711W        W25895   9.668   8.253   4.389  0.1918  0.4319  0.1255
 9712W        W25896  13.278  12.460  14.343 -0.1132  0.4175 -0.0484
 9713W        W25897   8.354   7.975  11.700  0.0530  0.0294  0.0464
 9714W        W25898   2.954  15.881  11.333 -0.3334  0.3199  0.2634
 9715W        W25899   7.964   7.175  14.567  0.0156  0.3559  0.0632
 9716W        W25900   7.853   2.349  14.895  0.1736  0.0888  0.0021
 9717W        W25901  15.625   2.549  12.903 -0.1381  0.1368  0.0839
 9718W        W25902  14.054   3.610  10.966 -0.3926  0.0746  0.0780
 9719W        W25903   7.342   6.489   4.252  0.2797 -0.1074  0.0945
 9720W        W25904  12.317  14.152  12.185 -0.3454  0.0290  0.1220
 9721W        W25905  11.939   0.398   3.017  0.0155 -0.3965 -0.0561
 9722W        W25906  18.605  10.561   1.742  0.0862 -0.0319 -0.0721
 9723W        W25907  11.862  16.470   1.437 -0.1111  0.2893 -0.2101
 9724W        W25908  18.027  18.184   3.654  0.0326 -0.0459 -0.0268
 9725W        W25909   8.245  15.852   1.643  0.0455  0.1488 -0.0384
 9726W        W25910   0.683  11.570  14.921  0.1796  0.0146 -0.0938
 9727W        W25911   1.239   7.098  13.555  0.0434 -0.1435  0.1903
 9728W        W25912  13.781  18.248   3.120 -0.0466  0.3342  0.0927
 9729W        W25913   1.289   3.407  11.363  0.1781 -0.0653 -0.2255
 9730W        W25914  12.142  12.718  13.676 -0.1728 -0.0214  0.2635
 9731W        W25915   6.539   3.364   4.553  0.3590  0.1478 -0.0624
 9732W        W25916  11.645  16.984   9.559 -0.0809 -0.0127 -0.1396
 9733W        W25917   2.316  17.877   1.071 -0.0537  0.5016 -0.3150
 9734W        W25918   5.720   4.836   4.413  0.3336 -0.1502 -0.0704
 9735W        W25919  17.564   8.740  14.937 -0.1826  0.0588 -0.1481
 9736W        W25920   7.384   9.919   3.236  0.3525 -0.0077  0.0976
 9737W        W25921  11.619   5.584   4.549 -0.0540  0.0238 -0.1952
 9738W        W25922  15.125  12.405   4.501  0.1284 -0.3313  0.0742
 9739W        W25923  17.489  19.341   1.040 -0.1705 -0.1496  0.1334
 9740W        W25924  13.859   8.463   1.769 -0.0995 -0.1934  0.3396
 9741W        W25925   5.865  12.234  12.326  0.0365 -0.2360  0.0166
 9742W        W25926   2.110   2.208   3.699 -0.3124  0.2700 -0.1593
 9743W        W25927  11.931  17.761   4.304 -0.0863 -0.1004  0.3353
 9744W        W25928   4.966  14.437  14.806  0.0445 -0.1231  0.2713
 9745W        W25929   4.348   8.048  14.561  0.2442 -0.1872  0.0334
 9746W        W25930   4.094  17.236  11.626  0.0382 -0.0560 -0.0190
 9747W        W25931  16.755  17.231   0.316  0.0112 -0.2191  0.0493
 9748W        W25932   3.222  10.782   1.115  0.0465 -0.1015  0.1047
 9749W        W25933  15.821  16.764  14.885  0.0247  0.1695 -0.4158
 9750W        W25934  13.843   7.354  10.459  0.1251  0.0792 -0.3363
 9751W        W25935  19.268  14.356  11.891  0.0399 -0.1548 -0.1217
 9752W        W25936   9.108  16.966   3.338 -0.1463  0.0243 -0.3477
 9753W        W25937   5.480  13.610  14.336  0.1525 -0.0413  0.0453
 9754W        W25938   2.752   2.152  10.560  0.2940  0.0816 -0.1362
 9755W        W25939  14.563   4.425   1.761  0.0808  0.0683  0.2050
 9756W        W25940  10.779   0.233   0.643  0.0179 -0.3458  0.2887
 9757W        W25941  18.818   7.362   3.625 -0.4050 -0.0901 -0.4542
 9758W        W25942   9.865   4.415   1.916  0.1532 -0.1393 -0.3127
 9759W        W25943  16.058   2.173  14.124  0.0596 -0.1730  0.1083
 9760W        W25944  11.925  15.838   2.326  0.1928 -0.2112 -0.2652
 9761W        W25945  14.458  10.291   4.795 -0.4504 -0.2182 -0.2489
 9762W        W25946  10.356   7.227   1.447  0.0148 -0.0690  0.2379
 9763W        W25947   0.083  10.174   5.349  0.3660 -0.1557  0.2522
 9764W        W25948   3.574   4.189   4.872  0.2138 -0.1488  0.1442
 9765W        W25949  10.951   0.345  10.115  0.1196  0.0324  0.1859
 9766W        W25950   9.291  10.575   4.618  0.1427 -0.0281 -0.2774
 9767W        W25951  11.762   1.055  13.890  0.0289  0.1373  0.0725
 9768W        W25952   4.267   4.571   1.294  0.1047  0.0713 -0.0037
 9769W        W25953  14.893  11.707  13.759 -0.2469 -0.0044  0.0324
 9770W        W25954  14.987   1.006  14.641  0.2409  0.2303  0.0513
 9771W        W25955   2.982  18.991  14.948  0.1709 -0.0120  0.3092
 9772W        W25956  15.985   9.149  14.097  0.0108  0.3792  0.1364
 9773W        W25957  16.168  16.345   3.884 -0.0077 -0.1131 -0.0784
 9774W        W25958  16.734   6.877  12.792  0.1616  0.1875  0.1538
 9775W        W25959   5.688  17.931   1.107 -0.0791  0.0500  0.0696
 9776W        W25960   5.706   9.363  12.039 -0.0071  0.1176 -0.0833
 9777W        W25961   7.300  14.863   4.538 -0.0081  0.0699 -0.1080
 9778W        W25962   0.162  16.251   5.018  0.3028 -0.1114  0.4251
 9779W        W25963  15.743  15.646  14.046 -0.0024 -0.0967 -0.0618
 9780W        W25964   8.864   0.609  12.387 -0.3170 -0.4682  0.0683
 9781W        W25965  14.168   0.525   2.552  0.0112  0.1543 -0.1327
 9782W        W25966  16.462   4.827   4.848  0.2050 -0.2063  0.0731
 9783W        W25967  12.746   8.535   3.486 -0.0789  0.0379 -0.3612
 9784W        W25968  14.622   1.162  12.622 -0.0089  0.0244  0.4317
 9785W        W25969   1.149  12.512   2.561 -0.2041 -0.5690  0.1522
 9786W        W25970  15.732  17.180   0.363  0.1965  0.1254 -0.1407
 9787W        W25971  10.258   8.262  10.681  0.0008 -0.1084  0.4036
 9788W        W25972   6.620  16.720   3.167 -0.2357  0.1024 -0.0431
 9789W        W25973  10.602  11.332  14.663 -0.0014  0.0408  0.3435
 9790W        W25974  16.888   4.247  12.356  0.4858  0.1078 -0.1185
 9791W        W25975  10.224  10.550   1.159  0.0382 -0.3101  0.2466
 9792W        W25976  10.487   9.431  10.558 -0.1609  0.0886 -0.1283
 9793W        W25977   8.442   7.458  14.705  0.0751  0.0565 -0.2144
 9794W        W25978  17.226   7.144  11.356  0.0333  0.2417  0.2886
 9795W        W25979  10.279   6.625  10.568 -0.1148 -0.1563 -0.1553
 9796W        W25980   6.682  11.107  11.666 -0.0993 -0.0351 -0.3983
 9797W        W25981   8.688   2.373   4.741 -0.0434 -0.0283 -0.0062
 9798W        W25982  15.533   0.832  11.965  0.4033  0.0093  0.0062
 9799W        W25983   5.769  18.481  11.563  0.3489 -0.1982 -0.3420
 9800W        W25984  13.102  18.418   3.978 -0.1491  0.1752 -0.1437
 9801W        W25985  19.009   6.804  14.064 -0.3367 -0.0500  0.1657
 9802W        W25986   5.312   1.730   1.796 -0.0498 -0.2866  0.0568
 9803W        W25987  16.013  14.739  13.773  0.1868  0.0473  0.1869
 9804W        W25988  11.319   0.618   3.507 -0.1050 -0.3284 -0.0105
 9805W        W25989  17.879   9.767   3.146  0.2687  0.2284  0.0799
 9806W        W25990   1.582   1.034  10.438  0.3526  0.0769  0.2165
 9807W        W25991  18.086  17.902  14.566 -0.2150 -0.1723  0.0198
 9808W        W25992  12.840  17.701  13.574 -0.0525  0.2601 -0.0099
 9809W        W25993  13.652  14.737   2.463 -0.0526 -0.0590 -0.2030
 9810W        W25994  10.482   0.538  14.109  0.0736 -0.1091 -0.0899
 9811W        W25995   4.206   0.189  11.981 -0.0812  0.4441 -0.2050
 9812W        W25996  11.602   9.014  12.123 -0.1043 -0.2248  0.2779
 9813W        W25997  13.383   2.213  13.919 -0.0261  0.3577  0.1387
 9814W        W25998   9.106   8.546   1.705  0.1829 -0.0920 -0.3753
 9815W        W25999   1.919  16.050   3.980 -0.0373 -0.1531 -0.2455
 9816W        W26000  11.245   7.598   4.037 -0.0383  0.0739 -0.0214
 9817W        W26001  18.311  15.195  13.991 -0.1058  0.0359 -0.0615
 9818W        W26002  12.258   8.137  13.016  0.1622 -0.0450 -0.0907
 9819W        W26003  18.408  11.358  12.808 -0.1009 -0.4311  0.2590
 9820W        W26004   6.743   8.179  14.138  0.1844  0.0265 -0.0500
 9821W        W26005   1.768  13.042   3.738 -0.0251  0.1889 -0.0159
 9822W        W26006   4.372  12.404   3.252 -0.3465 -0.0627 -0.2866
 9823W        W26007   3.556  12.729  14.779 -0.2216 -0.0170 -0.2223
 9824W        W26008  11.789  18.199   2.963 -0.0347 -0.3173  0.1279
 9825W        W26009  10.773   4.480  14.692 -0.1624 -0.0282 -0.2821
 9826W        W26010   6.400  18.930   1.480 -0.1135 -0.0488 -0.2564
 9827W        W26011   0.867   2.256   3.712 -0.4122  0.3004 -0.0951
 9828W        W26012  12.097  18.531   3.831  0.0273 -0.2116 -0.0301
 9829W        W26013   7.890  13.852   2.982 -0.0564 -0.0095  0.1079
 9830W        W26014  11.730  18.831  11.187 -0.1878 -0.0309 -0.0550
 9831W        W26015  16.072  12.500   4.321  0.1299  0.2263 -0.0500
 9832W        W26016  14.814  15.566   5.091 -0.2945 -0.2339 -0.3267
 9833W        W26017  10.750   8.289  11.474 -0.0400 -0.0392  0.1102
 9834W        W26018   9.064   1.020   1.918  0.1411 -0.1397 -0.0487
 9835W        W26019   5.458  16.082   1.041  0.1312 -0.1281  0.0324
 9836W        W26020   9.852   1.207  10.544  0.0167 -0.0694 -0.2531
 9837W        W26021   5.548  11.997   4.355 -0.1284 -0.0126 -0.0669
 9838W        W26022   0.064   1.978   2.108 -0.3102  0.2052  0.0621
 9839W        W26023   5.075   0.275   1.780  0.1081 -0.3401  0.2404
 9840W        W26024  12.696   0.932   0.183 -0.0678  0.0223 -0.3558
 9841W        W26025   5.445   3.096  14.847  0.0777  0.0594  0.0115
 9842W        W26026   1.360  11.705  13.835  0.0489 -0.1318 -0.2145
 9843W        W26027   6.108  15.855   3.077  0.1223 -0.1454 -0.2293
 9844W        W26028  11.653  15.048   3.799  0.4773  0.1984  0.0263
 9845W        W26029   2.067   4.862   5.160  0.0622 -0.0333  0.1303
 9846W        W26030   5.915   6.157  14.009 -0.1898  0.0614  0.3032
 9847W        W26031   2.641   7.281   0.876 -0.0922  0.3247  0.1276
 9848W        W26032   5.977  14.922   4.286 -0.1743 -0.0757  0.0033
 9849W        W26033  17.747   7.329   1.131  0.1096 -0.2067 -0.2398
 9850W        W26034  10.838   5.459  13.811  0.1909 -0.1260  0.0631
 9851W        W26035  12.265  16.896  11.951 -0.2198  0.1269  0.0791
 9852W        W26036   3.836   4.803   4.112 -0.1704 -0.1158  0.0817
 9853W        W26037   9.240   2.379  12.059 -0.1615  0.0641 -0.1394
 9854W        W26038   4.916   8.306   0.347  0.0567  0.1617  0.1738
 9855W        W26039   8.274   3.076   3.385  0.1323  0.4580 -0.0183
 9856W        W26040   6.381   7.238  12.433 -0.0493 -0.0775 -0.1572
 9857W        W26041   6.900   6.375  13.401 -0.0396  0.1504  0.0371
 9858W        W26042   8.826   2.308  13.123 -0.1667  0.0873 -0.3192
 9859W        W26043  15.627   9.828  14.789 -0.3915  0.3524  0.2503
 9860W        W26044   7.822   8.165  11.724 -0.1959 -0.0564  0.1056
 9861W        W26045   5.159  18.093  11.053 -0.0656 -0.2644 -0.1372
 9862W        W26046  14.024  14.334   1.185  0.0250  0.0329 -0.2729
 9863W        W26047  14.325  18.567   2.259  0.1290 -0.0577 -0.0225
 9864W        W26048   1.610  13.636  12.066 -0.0082  0.1672  0.1119
 9865W        W26049   5.783  15.973  13.958 -0.1682  0.3532  0.1800
 9866W        W26050  11.857   6.541  11.085  0.0101  0.0346 -0.2335
 9867W        W26051   6.201   0.834   4.172  0.0912  0.1697  0.3076
 9868W        W26052  13.327  18.775   3.689 -0.1799  0.0121 -0.2607
 9869W        W26053  10.647  17.415  10.978 -0.2873  0.1166  0.1471
 9870W        W26054   9.907   1.216   4.510  0.2960  0.1153 -0.0602
 9871W        W26055  18.602  11.707   0.109  0.0279  0.1889 -0.1192
 9872W        W26056   0.679   0.091  14.839  0.4073  0.1881  0.1307
 9873W        W26057   0.212   2.608  13.476  0.1254  0.3628  0.0495
 9874W        W26058   5.082   0.227  14.197  0.1900 -0.0004 -0.0541
 9875W        W26059  18.969   5.724   1.113  0.2789 -0.0404  0.0142
 9876W        W26060  18.538   9.554   3.194 -0.0743  0.0752  0.0794
 9877W        W26061  17.692  12.564  10.231  0.2007 -0.1353  0.0651
 9878W        W26062  12.264  18.961   1.172  0.0099 -0.1117 -0.0622
 9879W        W26063   2.555  15.089  13.119  0.0018  0.1376  0.0417
 9880W        W26064   6.237  11.260  14.239 -0.0648 -0.5286  0.0767
 9881W        W26065   3.944   5.416  14.547 -0.0849 -0.1366  0.1038
 9882W        W26066   9.833  12.948   0.992 -0.1289  0.3014  0.1297
 9883W        W26067  18.273  13.782   3.338  0.2628  0.0641 -0.0834
 9884W        W26068  10.072   1.527   0.143  0.2753 -0.1855 -0.0325
 9885W        W26069   8.933   8.304   2.453 -0.1477 -0.0860 -0.0241
 9886W        W26070   8.850  17.537   2.708 -0.3286 -0.0950 -0.0242
 9887W        W26071  14.809   2.468  11.289  0.0644 -0.1281  0.2107
 9888W        W26072  16.178  13.179  11.759  0.0235 -0.0067  0.0857
 9889W        W26073   1.719   9.407  14.016 -0.3124 -0.1352  0.2954
 9890W        W26074  10.214   0.162  12.193 -0.3464 -0.0381 -0.0523
 9891W        W26075  19.334   4.403  14.550 -0.1199 -0.1564  0.0712
 9892W        W26076  14.085   9.314  10.488 -0.1398  0.0653 -0.0834
 9893W        W26077  17.154   1.964   1.811 -0.2770 -0.0465  0.2439
 9894W        W26078  16.807   3.739  13.231 -0.3402  0.0386  0.1303
 9895W        W26079  16.692  10.410   2.178 -0.0011 -0.0305  0.0559
 9896W        W26080  18.220  16.012   3.709  0.1877  0.0154 -0.1018
 9897W        W26081   1.250   5.277   5.340  0.3479  0.0277  0.0484
 9898W        W26082   5.265   5.174  13.903  0.0680 -0.0656 -0.2633
 9899W        W26083  10.374   8.872  14.508 -0.1227  0.1209  0.3723
 9900W        W26084   4.481  11.002   2.516  0.1271  0.1847 -0.0945
 9901W        W26085   6.242   4.057   0.682  0.1936 -0.1517 -0.1352
 9902W        W26086   9.194   6.728  14.456  0.1137 -0.0803  0.0204
 9903W        W26087  17.854  15.541   3.085  0.1314  0.1601  0.0556
 9904W        W26088   4.958   7.774   4.022  0.2323 -0.3413  0.0705
 9905W        W26089   5.640   7.402  14.330 -0.2600 -0.1417 -0.2750
 9906W        W26090   3.707   2.794  11.638 -0.0163 -0.0724 -0.1221
 9907W        W26091   1.347   2.753   0.728  0.1832 -0.1400  0.1475
 9908W        W26092  16.409  14.866   1.467  0.0974 -0.1708 -0.3900
 9909W        W26093   4.706  16.933   1.316 -0.1272  0.0304  0.0287
 9910W        W26094  15.180   9.063   0.898 -0.1900 -0.2512 -0.3788
 9911W        W26095  11.218   4.114  11.599  0.2612  0.1213 -0.3059
 9912W        W26096  18.445  10.288   0.504  0.1914  0.2625 -0.1862
 9913W        W26097  14.711  13.354   5.378 -0.4320 -0.0279 -0.2098
 9914W        W26098  14.045  18.451  10.752  0.2419 -0.0463 -0.0064
 9915W        W26099   1.209   9.035  12.766 -0.0962  0.1537  0.1217
 9916W        W26100  11.254   8.869  12.598 -0.3200  0.0659  0.1037
 9917W        W26101   7.023   4.639  12.064 -0.0842  0.1609 -0.0808
 9918W        W26102  10.972  11.158   1.577  0.0739  0.2421  0.0305
 9919W        W26103  14.097  13.639  13.334 -0.1026 -0.1063 -0.0414
 9920W        W26104   9.444   3.221   3.294 -0.0998 -0.1659  0.0923
 9921W        W26105   5.427  16.105  13.337  0.1502 -0.2491  0.1231
 9922W        W26106   1.439  17.380   2.341  0.3458  0.0084  0.1158
 9923W        W26107   6.288  17.763   1.595  0.0465 -0.0911  0.3776
 9924W        W26108  11.683   4.252  14.146 -0.0243 -0.1963  0.2237
 9925W        W26109   3.474   8.062   3.221  0.2910 -0.0811 -0.0610
 9926W        W26110   7.736   7.133   5.229 -0.1219  0.0109  0.1336
 9927W        W26111  12.362  16.409   1.708  0.1010  0.2467 -0.1026
 9928W        W26112   8.772  14.319  10.735 -0.0384 -0.2189  0.0776
 9929W        W26113   3.785  15.897  14.949 -0.0145 -0.0260 -0.0162
 9930W        W26114  12.820   6.953  10.576  0.0567  0.1843 -0.1225
 9931W        W26115   3.019  15.167   0.640  0.0392 -0.1423 -0.1101
 9932W        W26116  10.244   2.035  10.615 -0.0281  0.2964  0.0216
 9933W        W26117   8.058   5.172   2.081  0.3477  0.0779  0.2175
 9934W        W26118   3.985   3.207  13.563 -0.0971  0.2722  0.1397
 9935W        W26119  15.468   6.537  13.215 -0.1285  0.1130  0.3110
 9936W        W26120  10.347   8.058   0.704  0.2351 -0.1509 -0.0251
 9937W        W26121  18.248   9.797   4.089 -0.1032 -0.1954  0.0169
 9938W        W26122  13.913  16.875  14.338  0.0465 -0.0962  0.0287
 9939W        W26123  13.395   8.962  14.706 -0.3345 -0.1918  0.3479
 9940W        W26124   3.538  16.270   3.346  0.1121 -0.1880 -0.4318
 9941W        W26125   8.269  16.346  11.383  0.2849  0.1008  0.0108
 9942W        W26126   4.824   0.578   2.536  0.5135 -0.0191  0.1041
 9943W        W26127   3.561  14.761   5.275 -0.1175 -0.1165 -0.0144
 9944W        W26128   8.355   0.903  10.044  0.0941  0.0692  0.0782
 9945W        W26129  11.152  15.505   2.095 -0.5035  0.0408 -0.0868
 9946W        W26130  14.142  14.670   9.418 -0.3092  0.0444  0.2559
 9947W        W26131   7.917   9.836   4.042  0.1290 -0.3380 -0.2766
 9948W        W26132   1.253   4.418  13.320 -0.1503 -0.1453 -0.1138
 9949W        W26133   0.539   6.821   3.455  0.1319 -0.0526  0.3269
 9950W        W26134  12.882  17.209   3.066 -0.1263 -0.0663  0.0507
 9951W        W26135   5.543  16.744  14.172 -0.0218  0.2951 -0.1591
 9952W        W26136   6.489  16.651  10.713 -0.0264 -0.3172 -0.1684
 9953W        W26137  13.976   2.066   0.332 -0.0584 -0.1211 -0.3737
 9954W        W26138  16.620   4.736   9.299  0.0593 -0.0287 -0.2125
 9955W        W26139  12.351   3.529   3.752 -0.0876  0.0600  0.0883
 9956W        W26140  13.780   8.964   1.463 -0.1756 -0.0077 -0.1281
 9957W        W26141  16.678  17.495  13.521  0.0831 -0.0549  0.1707
 9958W        W26142  17.759   6.207  10.587  0.2917 -0.0225 -0.1750
 9959W        W26143   1.731  12.580   0.745  0.3080  0.2749 -0.0044
 9960W        W26144  18.780   6.233   3.595  0.2316 -0.1647  0.1123
 9961W        W26145  15.483   3.394   0.889  0.1357  0.1312 -0.0027
 9962W        W26146  15.994   0.874   1.333 -0.2651 -0.1787 -0.0567
 9963W        W26147   2.037   6.757  13.062 -0.0421 -0.0923 -0.2515
 9964W        W26148  15.692   2.380  10.713  0.0168  0.0087 -0.1622
 9965W        W26149   7.007  14.448   1.482  0.0129  0.2189  0.0575
 9966W        W26150  18.669   7.007  13.747  0.2955 -0.0237  0.1356
 9967W        W26151   6.736  13.652  13.751  0.1796 -0.3199  0.0358
 9968W        W26152   1.692  16.748  14.503  0.1247 -0.2627 -0.6933
 9969W        W26153  12.914   8.310  10.682  0.0275  0.0410 -0.3191
 9970W        W26154  11.518  10.743   4.458 -0.3576 -0.3403  0.0062
 9971W        W26155   3.656  19.371   2.678 -0.1112  0.0120 -0.0289
 9972W        W26156  16.577   8.996   1.924  0.0334 -0.0062  0.4948
 9973W        W26157  11.824  16.932  13.889  0.0567 -0.1058  0.1979
 9974W        W26158   1.467  19.266   0.836  0.1484 -0.2972  0.3132
 9975W        W26159   1.553  13.464  13.442 -0.1821 -0.1364  0.2660
 9976W        W26160   9.060   8.437   0.471  0.0215  0.0021 -0.1375
 9977W        W26161   1.879   0.466  13.498 -0.1639  0.0450 -0.1863
 9978W        W26162   4.227  11.122  11.716  0.3775  0.1657  0.0418
 9979W        W26163  16.865   7.732   1.094  0.1694 -0.0369  0.1348
 9980W        W26164  13.136   3.651  12.793  0.2558  0.0791  0.1701
 9981W        W26165  17.940   4.587   5.772  0.2285 -0.2030 -0.2391
 9982W        W26166   4.767  10.171   0.210 -0.2187  0.2360  0.2191
 9983W        W26167  12.679   5.743  10.424 -0.1597 -0.0758 -0.4176
 9984W        W26168  15.360   7.215  14.805 -0.2008  0.1803  0.1597
 9985W        W26169  17.762  18.166   4.093  0.0141 -0.2764 -0.3064
 9986W        W26170   2.260  13.301   2.544 -0.2238 -0.0066 -0.1361
 9987W        W26171   2.513   4.914   4.883  0.0201 -0.2526  0.3033
 9988W        W26172   0.121   0.940   0.044  0.3114 -0.0955  0.0802
 9989W        W26173  14.726  16.075  13.486  0.0977  0.2612 -0.2772
 9990W        W26174   2.669  11.753  12.402  0.2082  0.1665 -0.1595
 9991W        W26175  12.404   9.282  13.454  0.0010 -0.0257 -0.2807
 9992W        W26176   2.310  16.161   2.570 -0.2011 -0.0993  0.0409
 9993W        W26177   9.412  16.632  10.968  0.1748  0.0580 -0.1148
 9994W        W26178   0.649   4.732   6.005  0.0578 -0.1598 -0.0232
 9995W        W26179   1.347  10.889  14.723 -0.1035 -0.2202 -0.1334
 9996W        W26180  16.515   1.996  11.972  0.0103  0.0012 -0.0104
 9997W        W26181   3.945  10.597   0.490  0.2453 -0.5965  0.4295
 9998W        W26182   2.209  12.273  11.885 -0.1321  0.3325 -0.0008
 9999W        W26183  18.741  14.971  10.576 -0.0706  0.2224 -0.1508
10000W        W26184   9.389  18.024   1.356  0.0960 -0.3905 -0.3103
10001W        W26185   3.827   2.985   2.546  0.1871  0.0269  0.0192
10002W        W26186   8.819  11.953   1.936 -0.3078  0.0395  0.3887
10003W        W26187   4.564   3.389   3.366 -0.1603  0.2509  0.2349
10004W        W26188   2.554   4.758   2.107  0.1298 -0.1469  0.1404
10005W        W26189   3.480  15.739  10.572 -0.0986 -0.2952  0.2482
10006W        W26190  14.715   1.031   3.353  0.0909 -0.0426  0.1860
10007W        W26191   9.845   4.903  14.619 -0.2159  0.0368 -0.1696
10008W        W26192  17.653   9.019   2.601  0.4135 -0.5058  0.3632
10009W        W26193  10.084   0.986  12.539  0.0250  0.0924 -0.4614
10010W        W26194   2.821  12.802  13.961 -0.1740 -0.1249 -0.0075
10011W        W26195   8.428   1.346   2.300  0.0531  0.0198 -0.1762
10012W        W26196  16.358  12.025   2.404  0.1078  0.3527  0.0332
10013W        W26197  19.181   2.939  13.439 -0.2414  0.0819  0.0760
10014W        W26198   3.650   7.004  11.292  0.2779  0.0213 -0.0632
10015W        W26199   0.058  17.001  13.114  0.1029  0.2373 -0.1278
10016W        W26200  17.486  17.376   4.544 -0.1679  0.0087 -0.1287
10017W        W26201   2.049  16.238   4.445  0.0233  0.0663 -0.4414
10018W        W26202  19.111  15.426   3.723  0.0045  0.0825  0.0040
10019W        W26203   7.491   9.688  10.744 -0.1858  0.2440 -0.1991
10020W        W26204  18.148   4.073  14.913 -0.1547  0.0938  0.4169
10021W        W26205   6.291   0.952  11.751  0.0190 -0.6484 -0.4768
10022W        W26206   1.012   1.957   0.034  0.3169 -0.0305  0.2224
10023W        W26207   2.007   7.145  12.210 -0.0477  0.1542  0.0875
10024W        W26208   8.917  12.524   1.131  0.1561  0.2099  0.0525
10025W        W26209  11.445   8.461  12.046 -0.1895 -0.0525  0.1256
10026W        W26210   9.604  13.717  12.173 -0.1894 -0.1486 -0.2744
10027W        W26211  13.875  17.545   3.359  0.2199 -0.0684 -0.0059
10028W        W26212  15.663   4.110  12.918  0.1028  0.0163 -0.3018
10029W        W26213   2.085  13.402  14.833  0.0897  0.0135 -0.0599
10030W        W26214  12.106  11.560   2.173  0.3923 -0.0283 -0.1760
10031W        W26215  19.211  19.154  13.299 -0.0095  0.4666 -0.0097
10032W        W26216   9.492  12.772   3.287 -0.0718  0.3062  0.0249
10033W        W26217   5.439   5.525  11.571  0.0285  0.5592  0.0594
10034W        W26218   8.360   1.356  13.317 -0.3569  0.2287  0.0977
10035W        W26219   3.226  15.556  13.984  0.0224  0.2072  0.1263
10036W        W26220  19.277  17.288   4.839 -0.3697 -0.0129 -0.1586
10037W        W26221   3.462   0.248  13.488  0.1796 -0.0512 -0.2421
10038W        W26222   6.376   3.317   1.055 -0.1767 -0.0560 -0.3936
10039W        W26223   3.411   4.117  11.684 -0.0910 -0.1301 -0.0227
10040W        W26224  12.194  17.299   2.133  0.1358  0.0111  0.2141
10041W        W26225   7.195   6.612  13.063  0.0734  0.2836 -0.1213
10042W        W26226   3.944  19.300   2.203 -0.0338  0.1717 -0.1872
10043W        W26227  14.794  12.881   3.854  0.1469  0.1697  0.0740
10044W        W26228  10.217  12.821   1.637 -0.0763 -0.2427  0.0198
10045W        W26229   1.309  15.269  14.102 -0.0252 -0.1508  0.5143
10046W        W26230  11.283  14.632  11.495 -0.1578  0.1509  0.3879
10047W        W26231   6.542   3.930   2.686  0.2230  0.1407 -0.2007
10048W        W26232   6.872   8.035  13.570  0.1595 -0.1235  0.0728
10049W        W26233   2.532  15.462  11.999  0.2692 -0.1501  0.1613
10050W        W26234  19.260  17.841  14.763 -0.2598 -0.2330 -0.2832
10051W        W26235   6.942   2.050   2.900 -0.1092 -0.0212  0.1732
10052W        W26236  15.669  13.203   2.601 -0.1319 -0.1342 -0.2094
10053W        W26237  17.516  17.492   2.984 -0.5490  0.3552  0.0734
10054W        W26238   5.919   7.067  14.676 -0.3612 -0.2584  0.0005
10055W        W26239  11.912   7.752  13.507 -0.2310 -0.0384 -0.1267
10056W        W26240  18.288  16.307   3.197  0.0274  0.0135 -0.1016
10057W        W26241  13.200   3.110   4.562  0.4531 -0.0287  0.2069
10058W        W26242  16.246   6.346   1.798 -0.2583 -0.0539 -0.0377
10059W        W26243  10.096   7.685  10.045  0.1337 -0.0146 -0.1248
10060W        W26244   0.985   8.824   1.690 -0.1567  0.0443  0.0979
10061W        W26245   0.035  14.434  14.907 -0.0659  0.0668  0.0430
10062W        W26246  11.626   8.231   0.485  0.0096 -0.0699  0.0098
10063W        W26247   8.131   1.233   0.759  0.2947  0.2292  0.0806
10064W        W26248   4.156   1.691   3.941 -0.0781  0.1365  0.0761
10065W        W26249   8.978  13.015   4.367 -0.0884 -0.3388 -0.2651
10066W        W26250  17.708   3.723  14.939  0.2563 -0.5555  0.0590
10067W        W26251   6.875   0.486   0.121  0.1835  0.0356  0.1772
10068W        W26252  18.054   8.916   2.984 -0.0505  0.5410 -0.1596
10069W        W26253  13.145   1.840  13.351  0.1995  0.0775  0.0737
10070W        W26254  16.210  17.534   1.784 -0.2564  0.3164  0.4380
10071W        W26255  10.786  15.959   3.838  0.0620  0.0446 -0.0455
10072W        W26256  18.142   7.818   1.776  0.2882 -0.2887  0.2068
10073W        W26257   6.047  15.194  12.357 -0.4318 -0.2032  0.2719
10074W        W26258  16.652   0.049   2.857  0.0575  0.0714 -0.0734
10075W        W26259   7.670   3.723   3.925  0.1016  0.3610 -0.1200
10076W        W26260  13.229   6.556   1.976  0.1481  0.0276  0.1079
10077W        W26261   7.921  14.386  14.425  0.0168 -0.0804 -0.0787
10078W        W26262  15.674  16.834  12.887 -0.0625 -0.2861 -0.2199
10079W        W26263   6.963  16.051   1.429 -0.2540  0.0137 -0.2141
10080W        W26264  11.563  10.854   2.454  0.0744 -0.0336  0.0217
10081W        W26265   4.084  12.994   4.134  0.1810 -0.0857  0.3019
10082W        W26266   5.848  10.190   4.610  0.1323  0.4087 -0.0752
10083W        W26267  15.918   4.207  14.350 -0.0931 -0.3406  0.0214
10084W        W26268  11.884  12.582  12.193  0.0194 -0.0480  0.1121
10085W        W26269  12.297  13.063  11.568  0.3116  0.4424  0.1025
10086W        W26270   1.918   9.861   1.765 -0.2205  0.1517 -0.1415
10087W        W26271  14.521  13.776   1.784  0.1847  0.1246 -0.1836
10088W        W26272   6.625  17.355  12.717  0.1392 -0.0911 -0.0940
10089W        W26273   3.982  19.332   4.838  0.0860 -0.3964 -0.0088
10090W        W26274   3.601   5.659   0.184 -0.4362  0.1718 -0.0491
10091W        W26275  11.388  11.991  13.358 -0.0401 -0.1242 -0.1458
10092W        W26276   9.723   4.647   0.115  0.1341 -0.0056  0.1808
10093W        W26277  14.485  15.036   1.340  0.3104 -0.2617 -0.1928
10094W        W26278  18.114  11.979   1.105 -0.2142 -0.0125 -0.0308
10095W        W26279   3.778   3.341   4.674  0.1168  0.2090  0.2474
10096W        W26280  16.115  15.687  10.835 -0.0560 -0.5521  0.1548
10097W        W26281  12.634   5.787  11.229  0.0400 -0.1122  0.1198
10098W        W26282   5.650   1.462   5.294 -0.1666  0.0112 -0.3958
10099W        W26283  15.223  12.085  10.262 -0.0396 -0.0428  0.3254
10100W        W26284  15.438   0.217  14.283  0.0878  0.4159 -0.1761
10101W        W26285   1.338   7.105  12.875 -0.0316 -0.2147 -0.0998
10102W        W26286  18.440  18.388  12.541  0.3685 -0.0486  0.1417
10103W        W26287   1.992   6.817  13.691 -0.3672 -0.1535 -0.0847
10104W        W26288   0.323   4.665  13.563 -0.0944  0.2813  0.0158
10105W        W26289   3.579   2.062  11.331 -0.0691  0.2230  0.1958
10106W        W26290  11.067   5.041  13.560  0.0388  0.3839  0.2628
10107W        W26291  16.450  16.184  14.405 -0.2180  0.0938 -0.2475
10108W        W26292  17.203  17.697  13.413  0.2694 -0.0805 -0.2777
10109W        W26293   8.557  10.658   5.590 -0.1075 -0.3055  0.3484
10110W        W26294   8.530   4.701   1.667 -0.4134 -0.1189  0.0914
10111W        W26295  11.576  15.994   5.230 -0.1407  0.5007 -0.1081
10112W        W26296   9.509   1.386  14.827  0.4195 -0.1514  0.1241
10113W        W26297  11.829  14.462   0.468 -0.0007 -0.0144  0.1299
10114W        W26298  11.323   9.017  14.804  0.0151  0.1897  0.0923
10115W        W26299   7.674   7.379   2.555  0.0838 -0.0168  0.2459
10116W        W26300  10.108   9.437  13.318 -0.0351 -0.0814 -0.0948
10117W        W26301  14.175   2.703   9.898 -0.3716  0.2752  0.1937
10118W        W26302  17.522  13.124   2.020 -0.2974 -0.2273 -0.5938
10119W        W26303   1.724   3.906  11.097 -0.2452 -0.0244  0.0602
10120W        W26304   7.630   0.255  11.940 -0.1153  0.3074 -0.1683
10121W        W26305  16.671  10.164  12.898  0.1338 -0.1011  0.3115
10122W        W26306  12.844   8.081   5.009 -0.2935  0.0652 -0.0372
10123W        W26307  15.263   6.239   1.015  0.1122 -0.1094  0.4361
10124W        W26308   2.190   7.473   4.271 -0.1773  0.0672  0.0306
10125W        W26309   4.492  15.762  10.360  0.0588 -0.0109  0.1065
10126W        W26310  16.726  10.353  13.784  0.1540 -0.0749  0.0989
10127W        W26311  16.850   3.157  11.995 -0.1631  0.1050  0.0990
10128W        W26312  18.428   0.552   0.228  0.6030  0.0600  0.1043
10129W        W26313  15.310   4.120  11.098  0.3090 -0.0947 -0.0414
10130W        W26314  17.661   7.326  10.637 -0.0554  0.1632  0.2478
10131W        W26315  15.938   2.849   5.359 -0.3939  0.2273 -0.0437
10132W        W26316  12.719  16.872  10.597  0.1357  0.0641 -0.2595
10133W        W26317  11.149  10.423   2.147 -0.1418  0.0068  0.3186
10134W        W26318  10.107   0.732  10.676 -0.1461 -0.3043  0.3190
10135W        W26319  19.159  13.316   0.251 -0.0233 -0.0608 -0.3254
10136W        W26320   7.022   1.051  11.191  0.4228  0.0840 -0.1137
10137W        W26321   5.413   4.914   2.007  0.1442  0.3194  0.0890
10138W        W26322   6.750  13.448   2.239 -0.3120  0.6548  0.0547
10139W        W26323   2.954  14.668   4.517 -0.2883  0.1555 -0.0483
10140W        W26324   1.589   9.974  14.091  0.2108  0.0591 -0.0396
10141W        W26325   8.473   4.523   4.631 -0.2026  0.2097 -0.2485
10142W        W26326  14.716  15.851  12.074  0.0174 -0.2511 -0.2233
10143W        W26327   2.414  17.096  11.842 -0.0412 -0.0597 -0.0525
10144W        W26328  12.350   0.566   3.704  0.0778  0.0911  0.1790
10145W        W26329   8.702   2.643   0.063  0.0416  0.0983  0.0198
10146W        W26330  10.666   8.505  13.646 -0.0504 -0.1003  0.1853
10147W        W26331   2.532   2.241   0.261  0.0679  0.4247  0.2407
10148W        W26332  10.372  18.064   0.367  0.0899  0.4026 -0.1359
10149W        W26333   3.646   7.338   6.428  0.0633 -0.0791 -0.0793
10150W        W26334  10.202   4.791  13.266  0.1423  0.2953  0.0030
10151W        W26335  11.256   3.345  10.081 -0.2378 -0.2163  0.0227
10152W        W26336   3.031  12.708   0.007 -0.0627 -0.2950  0.2146
10153W        W26337  18.407   0.422   2.498  0.1439 -0.1455 -0.1786
10154W        W26338  12.427   4.605   1.529 -0.1495 -0.0877  0.0330
10155W        W26339   5.330  10.377   3.701  0.1056  0.1286  0.1796
10156W        W26340  13.171   8.118  12.607  0.2522  0.0878  0.0360
10157W        W26341  16.288  10.516  10.636  0.2803 -0.1196  0.0973
10158W        W26342   8.985  10.657  12.813 -0.0867  0.1038  0.0672
10159W        W26343  15.051  12.822  12.196  0.1151 -0.0864 -0.0809
10160W        W26344   1.963  10.950   6.193 -0.1844 -0.0732 -0.0295
10161W        W26345  11.004  18.979   2.273  0.0752 -0.2817  0.1690
10162W        W26346  14.550   3.155   2.538 -0.0653  0.0677  0.1775
10163W        W26347  16.567  11.213   1.441 -0.3373 -0.3409  0.2667
10164W        W26348   3.331  12.547   2.234 -0.0131 -0.0646  0.1985
10165W        W26349   1.277   6.627   1.250 -0.0312 -0.1452  0.1055
10166W        W26350  16.461   0.318   0.299 -0.0298  0.0307  0.0183
10167W        W26351   1.279  17.176   1.023 -0.0790  0.1831  0.1388
10168W        W26352   6.331   3.646  11.113  0.1459  0.4222 -0.0535
10169W        W26353  10.836  15.315   4.707 -0.0162 -0.2142  0.1960
10170W        W26354  12.918   6.260   9.732  0.2359  0.0352  0.0680
10171W        W26355  12.479  15.622  12.844 -0.0853  0.2730 -0.1230
10172W        W26356   0.401   5.079  11.321 -0.1941 -0.1730 -0.2824
10173W        W26357  16.394   0.487  10.512 -0.0898 -0.1679  0.0908
10174W        W26358   9.160   2.181   2.724 -0.0680 -0.0372 -0.1603
10175W        W26359   4.811   8.093  11.176 -0.2627  0.1752 -0.0671
10176W        W26360  15.097   3.506  11.825  0.3744  0.0618 -0.1251
10177W        W26361   2.948  15.709  11.841  0.0276  0.2651  0.4010
10178W        W26362   1.516  14.913   9.864  0.4596  0.0728 -0.2958
10179W        W26363  16.099  17.003  14.390 -0.2484 -0.1279  0.0993
10180W        W26364  13.320   3.677   4.305 -0.2987 -0.2086 -0.0835
10181W        W26365   1.907   4.175   4.180  0.0583  0.1255 -0.2935
10182W        W26366   8.562  17.808  10.869  0.1791  0.2913  0.4043
10183W        W26367  12.678   0.818   3.361  0.0131  0.0788  0.0076
10184W        W26368   5.044   3.146  14.296 -0.0541  0.1303 -0.1784
10185W        W26369   5.300   1.047   4.157 -0.1671 -0.0541  0.0488
10186W        W26370  15.058  12.145   3.194 -0.0092 -0.3530 -0.1295
10187W        W26371   4.684  15.441   3.014  0.1683 -0.2618 -0.1362
10188W        W26372  11.810   7.482   1.100 -0.0265  0.0450  0.0939
10189W        W26373   7.678   5.317  10.615  0.0680  0.4693 -0.2584
10190W        W26374   7.495   2.870  14.529 -0.1179 -0.2117 -0.0091
10191W        W26375  12.597  18.494   3.951  0.0862 -0.2106  0.0253
10192W        W26376   2.067   8.968  11.751  0.3109 -0.1074 -0.1368
10193W        W26377   7.325  10.537   2.554  0.0702 -0.5074  0.0980
10194W        W26378   9.734   4.126  11.378  0.1428 -0.0399  0.2157
10195W        W26379   1.882  17.547  10.305 -0.0741  0.5011 -0.0289
10196W        W26380  14.234  16.120   3.545  0.2730  0.1147  0.1123
10197W        W26381  14.690   2.579  14.906  0.2244  0.0315  0.2970
10198W        W26382   4.770  18.891  13.561 -0.1534 -0.0001 -0.0547
10199W        W26383   3.544   6.235   4.918  0.1225  0.0058  0.0675
10200W        W26384   4.769   9.215  14.069  0.2246 -0.2093 -0.1966
10201W        W26385  17.138  15.109  10.872 -0.2458  0.1439 -0.0530
10202W        W26386   4.161  12.999   0.499  0.1668 -0.1112 -0.1066
10203W        W26387  11.468  16.394   0.645  0.5176  0.0749  0.0660
10204W        W26388   0.549   7.359  14.404  0.0596  0.0153  0.1071
10205W        W26389  14.942   0.298   1.759  0.1882 -0.4764  0.1817
10206W        W26390  16.710   7.364   5.384  0.1195 -0.3067  0.0133
10207W        W26391  10.580  13.060   2.593 -0.0941  0.2285  0.5329
10208W        W26392  14.090  15.378  10.765  0.0243 -0.2998 -0.0777
10209W        W26393  11.890   0.219  10.060  0.0898 -0.2210 -0.0008
10210W        W26394  18.228  13.551  10.400 -0.2306  0.1893  0.3673
10211W        W26395  11.066   3.720   2.810 -0.2938  0.2100 -0.0149
10212W        W26396  16.554  16.655  11.798 -0.2630 -0.0166 -0.1532
10213W        W26397  11.546   3.459   1.026 -0.1996 -0.3078  0.1913
10214W        W26398  15.538   1.592   3.952  0.3687 -0.3005 -0.0807
10215W        W26399  13.310  16.427  14.493 -0.0990  0.0104  0.0819
10216W        W26400   0.507  15.008  14.300  0.0044 -0.3333 -0.2463
10217W        W26401   2.346   2.887   5.978  0.1080  0.1786  0.2004
10218W        W26402  10.139  13.144  10.137 -0.0080 -0.0332 -0.2257
10219W        W26403   9.135  12.702  12.672 -0.0261  0.0252  0.1249
10220W        W26404  15.101  10.968  12.738 -0.1354 -0.1949 -0.4363
10221W        W26405  16.018  11.899   4.126 -0.1513 -0.2202 -0.1728
10222W        W26406   2.806   3.305  10.369  0.4242 -0.2250  0.0466
10223W        W26407  15.027   2.581   0.797 -0.0485  0.1837  0.1020
10224W        W26408  18.844  19.020  11.796  0.0964 -0.1205  0.1275
10225W        W26409  11.049  10.402  13.899  0.1156 -0.0936  0.2989
10226W        W26410   0.443  17.066   0.134  0.0076  0.1117 -0.0722
10227W        W26411  10.213  12.993  14.902 -0.0555  0.0759  0.2962
10228W        W26412  13.005   1.103  12.617  0.1079  0.1766  0.3073
10229W        W26413   7.804   4.943  10.883 -0.2060 -0.0015  0.1338
10230W        W26414   9.842  11.543   5.215  0.1903  0.2487  0.1183
10231W        W26415  16.402   3.908   3.263 -0.4607 -0.2330  0.1480
10232W        W26416  13.141  12.668  13.707  0.0140  0.2463 -0.1948
10233W        W26417   2.923   0.686  12.799 -0.0615  0.3374 -0.0456
10234W        W26418   6.158   6.865  12.209 -0.0867  0.0256 -0.1339
10235W        W26419   8.844  10.655   3.805  0.1510 -0.3317  0.2528
10236W        W26420   6.406   5.076  12.235 -0.1606  0.1455 -0.4877
10237W        W26421  16.608   1.568  14.691 -0.4030  0.1151  0.3569
10238W        W26422  14.518   1.433   2.545 -0.2617  0.2567 -0.5114
10239W        W26423  12.123   2.764   0.416  0.0975  0.3303 -0.1670
10240W        W26424  16.398  17.704   9.947 -0.1121  0.0762 -0.0606
10241W        W26425   5.559   3.352  14.382 -0.0358  0.0430 -0.0303
10242W        W26426   8.570   0.916   2.039  0.0712  0.0927  0.1668
10243W        W26427  13.336  14.882   2.924  0.0976 -0.1247  0.2775
10244W        W26428   3.191  11.748   0.001 -0.0938  0.1414  0.1728
10245W        W26429   4.414   6.600   1.856 -0.1557 -0.0006 -0.1206
10246W        W26430   0.319   5.523  11.764 -0.1483  0.2515  0.2387
10247W        W26431  15.212  19.379   3.134 -0.2459  0.0878 -0.1329
10248W        W26432   9.914   8.800   2.130  0.1942 -0.3047  0.0945
10249W        W26433  14.435   7.071  11.916  0.1637  0.1970  0.1772
10250W        W26434   6.580   9.696   1.874  0.3351 -0.4452  0.1336
10251W        W26435   4.626  14.118   1.620  0.0826  0.1565 -0.0181
10252W        W26436   0.974  14.659   4.600 -0.0833  0.2488 -0.2942
10253W        W26437  15.806  11.832   9.133  0.0696 -0.0122 -0.1607
10254W        W26438  15.238   3.967  11.606  0.1362  0.1876 -0.2861
10255W        W26439   1.381  11.636   0.145 -0.0794  0.2791  0.1625
10256W        W26440  18.108   9.716  11.259  0.0244 -0.0835  0.0728
10257W        W26441  18.167   5.466   5.607 -0.2941  0.1231  0.3612
10258W        W26442   8.632   1.580  12.721 -0.1860 -0.1467 -0.0580
10259W        W26443   5.506   4.457   2.193 -0.1660  0.2884  0.0261
10260W        W26444  13.468   7.474  10.837 -0.0475 -0.0996  0.2190
10261W        W26445  16.732   0.720  10.176  0.1455  0.0749  0.3521
10262W        W26446   7.843  17.756  13.261 -0.0313 -0.1891  0.3920
10263W        W26447   1.988  11.084   4.874  0.4332  0.2432  0.1275
10264W        W26448  19.193  13.886   0.005  0.1444  0.0844  0.3838
10265W        W26449   4.673  17.970  11.943 -0.0955  0.3508  0.1311
10266W        W26450  18.558  15.723   5.819  0.0331 -0.0506  0.1845
10267W        W26451  16.760   1.028  11.571 -0.2133  0.4426  0.0012
10268W        W26452  18.695  14.491  12.170 -0.1102  0.4409  0.1005
10269W        W26453   9.022  17.135  12.253  0.1541 -0.2550  0.0246
10270W        W26454  11.113  16.748   2.648  0.0629 -0.0035  0.2634
10271W        W26455   9.240  17.242  12.696 -0.0455  0.1495  0.3863
10272W        W26456  16.852   8.466   3.742 -0.2544  0.2434  0.0391
10273W        W26457   8.769   3.460   0.640 -0.1099 -0.1227  0.1034
10274W        W26458   8.140   7.400  13.881 -0.0290 -0.1748 -0.1614
10275W        W26459  14.596  18.219  14.775 -0.1255  0.1383 -0.0148
10276W        W26460   5.562   5.310  13.555  0.0374 -0.2074 -0.2517
10277W        W26461   4.577  12.575  12.981  0.0695 -0.1237  0.2177
10278W        W26462  12.610   5.201  10.609 -0.2563  0.1804 -0.2242
10279W        W26463   7.489  12.503  14.529 -0.1237 -0.0520 -0.1425
10280W        W26464   8.585   2.565  12.740  0.0361 -0.0515  0.3947
10281W        W26465   3.750   7.122   5.509 -0.1336 -0.3696  0.1178
10282W        W26466  13.083   2.299  13.098  0.2388 -0.2060 -0.0037
10283W        W26467   7.949   7.987   3.202 -0.4464 -0.2296 -0.1527
10284W        W26468   6.558  11.863  11.043 -0.1248 -0.1009 -0.3732
10285W        W26469  14.393   9.463  10.912 -0.0603  0.0781 -0.0483
10286W        W26470  11.862  16.268   3.117 -0.3289 -0.0684  0.0957
10287W        W26471  14.510   4.775  11.363 -0.0583 -0.3082  0.3110
10288W        W26472   9.407   4.867   2.760  0.0636  0.0627  0.0879
10289W        W26473   0.521  11.087  12.207  0.2870  0.1930  0.2756
10290W        W26474  11.855  15.023   2.869 -0.1791 -0.0567  0.1556
10291W        W26475  10.083   7.363  14.123  0.1682  0.2226 -0.0481
10292W        W26476   9.511  10.036  13.853 -0.0774  0.0106  0.3017
10293W        W26477   1.137  14.766   0.825 -0.3984 -0.0753 -0.1343
10294W        W26478  12.034  11.592   9.583 -0.1726 -0.0046  0.0173
10295W        W26479  17.514   9.078   0.915 -0.0028  0.2374 -0.0557
10296W        W26480   7.847   1.081  13.035 -0.2690  0.4156  0.2152
10297W        W26481   7.186   4.190  11.910  0.0140  0.0465 -0.0655
10298W        W26482  15.537   4.466   3.528 -0.1268  0.0258  0.3590
10299W        W26483   5.774   6.749   2.537  0.0748  0.2618  0.1745
10300W        W26484  15.116   7.096  12.763  0.2831 -0.0059  0.1410
10301W        W26485  18.297   2.485   2.273 -0.0318  0.0623  0.0111
10302W        W26486   0.074   9.248   0.411 -0.1654  0.2016  0.0704
10303W        W26487   0.162   7.029   1.970 -0.2421 -0.3050 -0.1215
10304W        W26488  11.136   8.966   0.612 -0.3830  0.0699  0.3125
10305W        W26489   6.016   1.948  11.185 -0.1915  0.1857 -0.2412
10306W        W26490   0.056   6.619  14.034 -0.1478  0.3874 -0.0434
10307W        W26491  13.489   0.964  12.420 -0.1951  0.3159  0.1049
10308W        W26492  18.861   0.336  13.373  0.1733 -0.1855  0.1657
10309W        W26493   3.904   5.283   2.767  0.1569  0.2591  0.1202
10310W        W26494  11.424   7.083   4.308 -0.3851  0.1179  0.3699
10311W        W26495   5.806   3.271  11.546 -0.0064 -0.0855 -0.1861
10312W        W26496   8.472  18.212   1.450 -0.3445  0.3426 -0.2816
10313W        W26497  18.320  11.770   0.662 -0.1365  0.1155  0.0935
10314W        W26498  18.583  11.082  11.678  0.2316 -0.2800  0.1451
10315W        W26499  12.293   9.181   2.939 -0.1255  0.2346  0.0079
10316W        W26500   6.855  13.180   4.158 -0.1429 -0.1174 -0.0517
10317W        W26501  14.499  10.500  11.683  0.0074 -0.1989 -0.0484
10318W        W26502   5.468  12.402  10.440  0.0445 -0.0120  0.1119
10319W        W26503  13.587  17.135  12.355 -0.2035  0.0721 -0.0247
10320W        W26504   9.137  13.426   2.606 -0.1467  0.3467 -0.0746
10321W        W26505  12.204   3.757  13.558 -0.0370  0.1769 -0.0740
10322W        W26506  15.098  18.301  10.256  0.0702 -0.0229  0.2869
10323W        W26507   1.340   6.197  13.664 -0.1143  0.2134 -0.2158
10324W        W26508   2.158  15.773  10.753  0.0119 -0.0670 -0.0387
10325W        W26509  11.092  10.982  10.235  0.0602  0.0418 -0.2370
10326W        W26510   6.195   3.372  10.318  0.0245  0.1325 -0.2938
10327W        W26511   3.088   5.496   1.210  0.1548 -0.1402 -0.2523
10328W        W26512   7.812  12.376   2.211 -0.2800 -0.1495  0.0683
10329W        W26513   8.138  13.933   1.306 -0.1158  0.2450 -0.0698
10330W        W26514  15.575   2.340   2.477  0.1672  0.2945  0.0606
10331W        W26515   1.542   7.779  12.031  0.1313  0.3396 -0.1164
10332W        W26516   9.406   4.044   0.651  0.0610  0.3700  0.0799
10333W        W26517  16.321  12.994  13.956 -0.2127  0.0869 -0.1361
10334W        W26518  18.687   2.106  14.411 -0.1228 -0.2125 -0.1360
10335W        W26519  13.696   4.572  13.274  0.2005  0.0708  0.2665
10336W        W26520  11.736   5.793   9.959 -0.1047  0.1547  0.0574
10337W        W26521  15.382  13.606  12.455 -0.0372  0.0852  0.1790
10338W        W26522  10.390  13.795  13.570 -0.0638  0.0386 -0.2564
10339W        W26523   8.951   5.911   4.973 -0.3195 -0.1486 -0.1688
10340W        W26524  12.785   8.364  11.176  0.1851  0.1373  0.1113
10341W        W26525   1.753  16.375  14.041 -0.2458  0.3670  0.1068
10342W        W26526   5.948   7.191   2.988  0.0128  0.0368 -0.4918
10343W        W26527   1.204  13.402   0.427  0.1644 -0.1909 -0.0462
10344W        W26528  12.248   9.002  12.598  0.1050  0.0823 -0.1069
10345W        W26529  11.448   4.615  13.386 -0.0490 -0.2115  0.0403
10346W        W26530   9.381  15.348   5.130  0.1521 -0.0404 -0.0700
10347W        W26531  15.023  19.335  11.938  0.0357 -0.2290 -0.1111
10348W        W26532   9.491   1.332  10.891  0.1012 -0.0346 -0.0539
10349W        W26533   0.855   5.084   1.046  0.2560 -0.3509 -0.0729
10350W        W26534  18.045   5.292   4.144 -0.0114 -0.2293  0.3113
10351W        W26535  13.529   8.368  10.573 -0.0687 -0.1231  0.1250
10352W        W26536  15.269   8.704  11.590  0.2570 -0.0065 -0.1543
10353W        W26537   1.724  13.204   0.268  0.1663  0.1989 -0.0624
10354W        W26538  12.686   9.799  14.529  0.1799 -0.0290 -0.0785
10355W        W26539   4.337   9.349   0.894 -0.2596 -0.2750 -0.2847
10356W        W26540   3.976   7.098   1.052  0.0836 -0.3316 -0.0192
10357W        W26541   6.881  10.165  11.268 -0.3560 -0.2463  0.1552
10358W        W26542   7.447  18.874   2.433  0.0028 -0.1736  0.0267
10359W        W26543   5.241   9.956   2.014  0.1159 -0.0691 -0.0951
10360W        W26544  18.890   7.918   1.715  0.3586 -0.2120 -0.0662
10361W        W26545   1.833   4.647   2.742 -0.1119 -0.1724  0.1370
10362W        W26546  10.763  12.422  13.809  0.1313  0.2280 -0.1453
10363W        W26547   2.250  15.249   0.365  0.1267  0.1701 -0.0496
10364W        W26548   1.801   4.760  14.796 -0.0637 -0.3348  0.0960
10365W        W26549  17.357   0.053   3.809  0.1913 -0.1082  0.4506
10366W        W26550  14.350   1.777  11.518 -0.0853  0.4915 -0.1013
10367W        W26551   4.644  14.039  14.123 -0.1899 -0.0393  0.0232
10368W        W26552  13.286   5.054   1.744  0.0333 -0.0125  0.1226
10369W        W26553   0.016   0.426   4.855 -0.3605  0.1409  0.1857
10370W        W26554   8.143   5.244   2.920  0.0347  0.1415  0.1029
10371W        W26555   6.036   6.285   3.768 -0.0056  0.0212  0.3002
10372W        W26556   4.913   7.882  11.627 -0.2481  0.1055 -0.0982
10373W        W26557   5.082   3.817   3.323 -0.1923 -0.0581  0.0139
10374W        W26558  15.906  10.039  10.154  0.1137 -0.0097  0.0946
10375W        W26559  18.253  14.956   4.625 -0.0743  0.0912 -0.1509
10376W        W26560   3.909  10.774   3.239  0.2494  0.4690 -0.0308
10377W        W26561   3.822  17.372  13.829 -0.2828 -0.1551  0.0897
10378W        W26562   0.620  10.992  11.737  0.2237  0.0713 -0.1034
10379W        W26563   1.020  17.028   3.980  0.0367 -0.2070  0.0699
10380W        W26564   8.744  10.193   2.339 -0.1164  0.3276  0.1585
10381W        W26565  13.364   4.167   1.638  0.1218 -0.1410 -0.2421
10382W        W26566  18.805  18.148   3.201  0.0878  0.0295  0.0865
10383W        W26567   6.792   7.122  12.260  0.0264  0.1869 -0.1246
10384W        W26568   8.749   2.703  11.991 -0.0436 -0.0235 -0.2135
10385W        W26569  11.630   8.335   1.528 -0.1065 -0.0407 -0.2896
10386W        W26570  14.706   0.714  14.369 -0.3278 -0.1173  0.0073
10387W        W26571   5.032   9.612  13.949  0.2954 -0.0934  0.2528
10388W        W26572  16.365   5.458  13.872  0.2349  0.0271 -0.3689
10389W        W26573  16.760  13.294   5.502 -0.1658 -0.4527  0.0661
10390W        W26574  15.756   3.214   4.077 -0.2029 -0.1117  0.1899
10391W        W26575   7.917  18.876   0.212  0.3170 -0.2165  0.1933
10392W        W26576  11.956  15.558   5.158 -0.1394  0.0566 -0.2490
10393W        W26577   9.939  12.401   0.038 -0.0177  0.1032 -0.0808
10394W        W26578   7.782  19.132   0.644  0.1022  0.2011 -0.3488
10395W        W26579  11.882   4.708   4.705  0.2782  0.0746  0.0800
10396W        W26580   0.706   5.870  11.617  0.1139  0.1814 -0.3280
10397W        W26581  17.407  13.333   3.333 -0.1341 -0.1925 -0.1565
10398W        W26582   3.454  11.130   2.247  0.1576 -0.0824  0.1038
10399W        W26583   2.853   6.670   1.599 -0.0878 -0.0846 -0.1324
10400W        W26584   0.052  12.647  11.771  0.1488  0.0948 -0.1921
10401W        W26585   1.717   4.494  13.547  0.4092 -0.0926 -0.2962
10402W        W26586  14.832  13.789   0.214  0.1868 -0.0035  0.1989
10403W        W26587   8.268  13.644  14.849  0.0040  0.0220  0.2353
10404W        W26588   2.745  18.013   2.097 -0.2102 -0.1023  0.2210
10405W        W26589   3.643   1.791   4.122 -0.1541 -0.2174  0.3343
10406W        W26590   4.978  18.906  11.957  0.1233  0.1374 -0.1060
10407W        W26591  14.913   6.719   0.232  0.1553  0.0782 -0.1872
10408W        W26592   9.578  15.168   2.686  0.0593  0.1234 -0.1045
10409W        W26593   1.116  17.794  13.065 -0.1866 -0.0156  0.0164
10410W        W26594   4.625  11.881   5.518  0.1976 -0.2411  0.0418
10411W        W26595   1.484  17.646   5.060  0.1386  0.0517  0.0953
10412W        W26596  14.252  11.339   4.958 -0.1888 -0.0047  0.2175
10413W        W26597   0.344  17.621   2.481  0.0662 -0.4376  0.2460
10414W        W26598   3.963   9.323  11.350 -0.1901  0.3752  0.1415
10415W        W26599  18.472  18.943   3.613 -0.3152  0.0514  0.2144
10416W        W26600  10.556  12.796   1.002  0.2668  0.0434  0.3369
10417W        W26601   2.739  18.661  11.215 -0.0325  0.0450  0.1890
10418W        W26602   0.598   3.922   3.986  0.1405  0.2631  0.1506
10419W        W26603   2.669  13.284   3.280  0.3029 -0.2002 -0.0548
10420W        W26604   7.968  14.556  10.992  0.2235 -0.2662  0.0993
10421W        W26605   7.486   2.633   2.874 -0.0781 -0.4016  0.2142
10422W        W26606  12.801   2.332   3.429 -0.0068  0.1236  0.2180
10423W        W26607   2.391   5.796  14.070  0.0622  0.1432 -0.0899
10424W        W26608  11.980   1.111   2.906  0.0312  0.4164  0.3101
10425W        W26609  16.638  14.095  14.787  0.0103 -0.1760  0.2970
10426W        W26610   9.181   7.515   2.917 -0.1110  0.0830  0.0060
10427W        W26611   4.571  16.957  11.582 -0.1897  0.0765  0.2449
10428W        W26612   6.511  17.215  13.233  0.2328 -0.1268  0.0328
10429W        W26613   6.024  18.377   1.198  0.0053  0.0968  0.4909
10430W        W26614  14.698   2.430  14.364 -0.2254  0.0848 -0.2167
10431W        W26615  16.028  11.908  12.528 -0.0434  0.1116  0.0279
10432W        W26616   8.970  12.866   1.763 -0.1616  0.1780 -0.2668
10433W        W26617   7.907   3.481   0.452 -0.2349 -0.1829  0.2422
10434W        W26618   4.003  17.015  11.184 -0.1037 -0.0160  0.2248
10435W        W26619   4.576   2.614  14.904  0.3554 -0.0128  0.0786
10436W        W26620   8.357   5.430   2.563 -0.1795 -0.2122 -0.0800
10437W        W26621  15.081   0.887   0.171  0.2307 -0.3520  0.1392
10438W        W26622  13.580  15.431   3.777  0.0601  0.1229  0.1970
10439W        W26623  19.018   2.610   0.829  0.1390 -0.2654  0.1726
10440W        W26624  17.802   3.361  14.167 -0.2094 -0.1789 -0.0837
10441W        W26625   9.761   7.330   2.076 -0.3063  0.0238 -0.4495
10442W        W26626  11.164  10.149  11.585  0.3529  0.0410  0.0250
10443W        W26627  13.962  11.551   2.793 -0.2631 -0.2307  0.0308
10444W        W26628   1.115   6.359   0.644 -0.0735  0.1696 -0.1321
10445W        W26629  12.553   5.621  12.430 -0.1972  0.1150  0.2394
10446W        W26630  12.214   7.304   0.846 -0.3264 -0.0422  0.2639
10447W        W26631   3.288  16.571   1.516 -0.2377  0.0931  0.1795
10448W        W26632   5.699   0.609  14.040 -0.0698  0.0568  0.3406
10449W        W26633  17.915  16.768   2.377 -0.1923  0.0899 -0.3667
10450W        W26634  14.075  11.517   1.373 -0.0513 -0.1654  0.3326
10451W        W26635   3.310   8.331  12.544  0.4261  0.0739 -0.2312
10452W        W26636  17.412  10.099  14.687  0.1280  0.2260  0.0330
10453W        W26637  19.295   2.424   5.358 -0.1817 -0.0472 -0.0371
10454W        W26638   3.058   3.873   3.462  0.0948 -0.0103  0.2997
10455W        W26639   7.735  11.632   4.627  0.2179 -0.1364 -0.4677
10456W        W26640   4.583   7.391   2.255 -0.0806 -0.3401  0.0798
10457W        W26641  10.121   7.327   0.963  0.0851 -0.3024  0.0041
10458W        W26642  11.033   9.284   0.233 -0.2225 -0.2277  0.1292
10459W        W26643   7.835   5.365   2.526 -0.0113 -0.0690  0.0901
10460W        W26644   1.649   9.604  11.641  0.0309 -0.2218  0.0331
10461W        W26645  17.542  18.912   5.494  0.0547  0.0726 -0.0910
10462W        W26646   3.332  18.172  10.483 -0.2472 -0.4181 -0.1365
10463W        W26647   3.919   2.012  14.722 -0.2709 -0.5396 -0.0755
10464W        W26648   5.215   2.529   2.472 -0.1813  0.0075 -0.0233
10465W        W26649   5.829  13.808  10.560  0.0016 -0.1296  0.0254
10466W        W26650   7.831  16.299   9.603 -0.2886 -0.0601 -0.1324
10467W        W26651   3.626   9.060   0.114 -0.0858  0.2557 -0.1213
10468W        W26652  11.204   5.142  14.049 -0.1553  0.2122  0.0196
10469W        W26653  12.523  13.766  12.858  0.1652  0.2736  0.0831
10470W        W26654  17.338   4.806  12.819  0.4621  0.1164 -0.0088
10471W        W26655   3.386  16.654   2.527 -0.1185  0.1837  0.1405
10472W        W26656  10.029   3.872   4.497 -0.2921  0.0123  0.0393
10473W        W26657  15.701  16.322   1.297 -0.4809  0.2180  0.0004
10474W        W26658  18.391  16.499   1.917 -0.0736 -0.0819 -0.1376
10475W        W26659  18.360   1.004  13.555 -0.0447 -0.1559 -0.0299
10476W        W26660  18.757   9.412   2.039 -0.1654  0.1802 -0.4060
10477W        W26661  16.263  14.983  12.410 -0.1512  0.1319 -0.0186
10478W        W26662  18.075  13.532   1.057 -0.2774 -0.2908  0.3185
10479W        W26663   7.211  17.968  12.109 -0.0682  0.2451  0.2463
10480W        W26664  10.641  16.759  14.006  0.0688 -0.0093  0.1671
10481W        W26665   7.968   7.662  11.871 -0.2033  0.2332  0.1332
10482W        W26666   0.760  13.556  10.948 -0.0540  0.1127  0.2370
10483W        W26667   7.915  15.020   5.718  0.3159 -0.3407 -0.1251
10484W        W26668   1.892  10.979  11.531 -0.0362  0.0009  0.0735
10485W        W26669   7.184  10.112  12.562  0.4035  0.1331 -0.1317
10486W        W26670   3.671   8.408   1.890 -0.0326 -0.1459 -0.2127
10487W        W26671  12.320  10.980  12.215  0.0600  0.0950 -0.0092
10488W        W26672  18.439  15.885   0.727  0.0093 -0.0450  0.0745
10489W        W26673   1.324  18.637  12.084 -0.2460  0.0151  0.3650
10490W        W26674  19.366   8.365   4.318 -0.2021 -0.0905  0.1228
10491W        W26675   6.293   1.962   0.121  0.2923 -0.1433  0.0519
10492W        W26676  17.834  14.867  12.762 -0.0245  0.2836 -0.1529
10493W        W26677  12.387  14.426   9.239 -0.0997 -0.0422  0.2696
10494W        W26678   9.772   6.413   9.782 -0.2169  0.1427 -0.2829
10495W        W26679  13.773  12.527  14.566 -0.1691 -0.1481 -0.2470
10496W        W26680  18.235  13.815  10.835  0.0341  0.0521  0.1193
10497W        W26681  19.016  14.727  14.538 -0.1298 -0.3219 -0.2076
10498W        W26682  13.706  16.029   0.294  0.0594  0.1689 -0.0400
10499W        W26683   1.720  19.093  10.351  0.0639 -0.2336 -0.1936
10500W        W26684   2.108   1.560   1.243 -0.1063 -0.1809  0.0066
10501W        W26685   6.407   8.412   4.439  0.0373 -0.1955 -0.1685
10502W        W26686   3.345  11.427   0.460 -0.5247  0.0607 -0.0713
10503W        W26687  18.776   0.690  14.520 -0.1727 -0.3244  0.0988
10504W        W26688  12.981   7.054   1.955  0.3143  0.2026  0.1599
10505W        W26689  16.595  16.269   2.477  0.5038  0.0162  0.0793
10506W        W26690   0.212   4.726   2.729 -0.0286  0.2709  0.0074
10507W        W26691   0.067   2.282   4.785 -0.0374  0.3871  0.0434
10508W        W26692  12.000   8.047   3.243 -0.0788 -0.0170  0.1026
10509W        W26693   9.359  10.467  13.124 -0.2602  0.1453 -0.0557
10510W        W26694   3.296   8.404  14.836  0.3750 -0.3035  0.1254
10511W        W26695  14.149  16.459   2.456 -0.0226 -0.4621  0.0517
10512W        W26696   5.130   8.093   1.331  0.1351 -0.3040  0.1935
10513W        W26697  17.306  13.779   3.118 -0.0106  0.2439  0.2101
10514W        W26698  11.641   6.276  11.761 -0.0129 -0.5243 -0.0639
10515W        W26699   3.777   5.993   1.576  0.2909 -0.3792 -0.0031
10516W        W26700   4.508  19.372   0.019 -0.0090  0.3483  0.0755
10517W        W26701   8.388  15.614  14.380  0.1682  0.0578  0.0523
10518W        W26702  17.227   3.954  13.029  0.0679 -0.1103  0.0048
10519W        W26703  17.074   1.483   9.916  0.0722  0.0221 -0.2498
10520W        W26704   1.001   9.393   2.897  0.2410 -0.5990  0.2305
10521W        W26705   7.882   6.684   1.942  0.1208 -0.0647 -0.1004
10522W        W26706   5.891  13.715   2.041 -0.2390 -0.2106  0.0827
10523W        W26707  14.858  15.080   5.078  0.0148  0.3955  0.3782
10524W        W26708   1.812   6.161   3.051  0.1130  0.1579 -0.4871
10525W        W26709   2.897   2.310  11.485  0.3124 -0.2672  0.3511
10526W        W26710   9.674  11.504   2.691 -0.0556 -0.0121 -0.6276
10527W        W26711  10.156   7.066   2.301 -0.2550 -0.0442  0.3010
10528W        W26712   4.280  16.962  12.469 -0.0775  0.2234  0.1199
10529W        W26713   1.433   7.331   2.958  0.1401 -0.1263  0.2359
10530W        W26714  16.515  16.884  14.941  0.3512 -0.1554  0.1159
10531W        W26715   6.512   4.235   5.565  0.0321  0.1515  0.2657
10532W        W26716   8.214  16.500   4.264 -0.0507  0.3405  0.2194
10533W        W26717  17.780  17.868  14.086 -0.0145 -0.3226  0.2259
10534W        W26718  12.834  18.060   2.065  0.2349  0.0108  0.0583
10535W        W26719  15.887  14.683  10.868 -0.2035  0.3595  0.1193
10536W        W26720  10.844  11.380  10.453  0.0632 -0.1744 -0.1002
10537W        W26721  16.425  12.080   1.759 -0.2302  0.0995 -0.1965
10538W        W26722  16.092  11.327   2.222  0.1026  0.2313  0.2048
10539W        W26723   7.909  10.157   1.302 -0.1637  0.0044  0.0707
10540W        W26724  13.462  17.259   0.009  0.1233 -0.2652 -0.0658
10541W        W26725  18.042   5.272  12.966 -0.2319  0.1955  0.0803
10542W        W26726   0.223   2.731  12.523  0.0231 -0.1436 -0.2250
10543W        W26727   7.846   8.886  14.773 -0.1494  0.1763 -0.0690
10544W        W26728  11.665   7.293   1.775  0.4338 -0.4131 -0.0719
10545W        W26729   6.282  11.437   3.259  0.3191  0.2814  0.1520
10546W        W26730   8.398  10.523   4.746 -0.0025 -0.1383 -0.0014
10547W        W26731   5.742  15.732  10.730  0.0865 -0.2248 -0.1287
10548W        W26732   6.759   6.445  11.022  0.0631 -0.3834 -0.3205
10549W        W26733   4.996  11.491   5.901  0.0007  0.1144  0.2532
10550W        W26734  10.713   6.352   5.575 -0.1713  0.1714  0.1420
10551W        W26735   3.247   8.801  11.082 -0.1459 -0.2062  0.1166
10552W        W26736  15.869   8.324   2.898 -0.1548 -0.4969  0.1092
10553W        W26737  12.061   4.114  12.005  0.0425 -0.3247  0.2986
10554W        W26738   7.967   9.680   1.099  0.0815 -0.2015  0.1265
10555W        W26739   5.327   9.206  13.835  0.2369  0.0294  0.0238
10556W        W26740  14.546  15.324   4.046  0.1085 -0.1808 -0.0828
10557W        W26741  14.229   1.684  14.624  0.0091 -0.0406 -0.2248
10558W        W26742   9.610   8.770   1.716  0.0672 -0.3149 -0.2731
10559W        W26743  12.469   8.540  12.858 -0.0671  0.3628 -0.2889
10560W        W26744   7.030  15.523   1.467 -0.1487  0.2535 -0.0418
10561W        W26745   5.206   2.416   5.443  0.2165 -0.0267  0.0141
10562W        W26746   6.400  14.264  10.771 -0.0199  0.0203  0.0017
10563W        W26747   4.642   1.393  11.852  0.1844 -0.3454  0.1828
10564W        W26748   7.682   2.941  13.528  0.1793 -0.0530  0.0712
10565W        W26749  11.814   5.112   3.279  0.2350  0.0157 -0.1476
10566W        W26750   3.718  13.081  14.410  0.2156 -0.1863 -0.3517
10567W        W26751  14.960  17.959  11.992  0.1223  0.0639  0.0052
10568W        W26752   8.956   1.468  13.295  0.4331 -0.0509 -0.1709
10569W        W26753   3.003   2.872   4.882  0.0978 -0.1045  0.1117
10570W        W26754  18.944   5.063   1.850  0.0348  0.0436  0.0435
10571W        W26755   1.875   9.867   2.842 -0.1764 -0.1368 -0.1720
10572W        W26756  17.610  16.262   4.059 -0.1077 -0.3900 -0.0556
10573W        W26757   4.120   3.826   3.604 -0.2508 -0.0906 -0.0397
10574W        W26758  18.753  13.663  12.605 -0.2018  0.0285 -0.2142
10575W        W26759   4.811   2.983   5.276 -0.0264  0.4295 -0.3442
10576W        W26760   9.262   4.116  12.363 -0.2455  0.1038  0.4359
10577W        W26761   3.707   1.875  12.777 -0.0772 -0.2787  0.0432
10578W        W26762   7.329   3.441   0.741 -0.0107 -0.0647 -0.1806
10579W        W26763   8.306   3.490  13.502 -0.1931 -0.0597 -0.1148
10580W        W26764   2.647  18.469  11.865 -0.3754  0.0276 -0.2985
10581W        W26765   8.304  12.247   9.591  0.1183 -0.2178  0.3765
10582W        W26766   2.882   2.828  13.324  0.1910  0.1313 -0.0619
10583W        W26767   8.037   8.195  14.495 -0.4842  0.1421  0.3271
10584W        W26768   1.179  15.718   0.330 -0.0750  0.3201 -0.2301
10585W        W26769  12.326   7.053  13.597 -0.0665  0.1486  0.0213
10586W        W26770   7.009   5.600   2.790  0.3653 -0.0492 -0.0988
10587W        W26771   1.480  10.502  14.279  0.0920  0.0387 -0.0149
10588W        W26772   3.995   2.606   1.610 -0.2224  0.3565 -0.0520
10589W        W26773   3.356  10.863   4.049 -0.0597  0.0678  0.1311
10590W        W26774  17.597  16.252  13.189 -0.1430 -0.0557 -0.0702
10591W        W26775  12.395   3.558   4.853 -0.1715  0.0682 -0.0886
10592W        W26776  12.563  15.314  10.891  0.3299  0.0807  0.1126
10593W        W26777  14.777   1.552  12.310 -0.1638 -0.2468  0.0177
10594W        W26778  16.296   7.892   9.372 -0.0301  0.3163  0.3399
10595W        W26779  11.925  17.264   4.157 -0.0651  0.0572 -0.0332
10596W        W26780  12.852  17.050   4.262  0.0851  0.1735  0.1388
10597W        W26781  12.699   6.046   1.718  0.0802  0.3049 -0.2119
10598W        W26782  13.503   0.624   1.510 -0.3796 -0.1584  0.1190
10599W        W26783  13.161  14.274   2.291 -0.6373  0.0352  0.0124
10600W        W26784   0.733   0.267  12.666 -0.0489  0.1239  0.3002
10601W        W26785  17.072  15.861  11.535 -0.2009  0.1482  0.0319
10602W        W26786  17.335  15.276   1.030  0.0320  0.2611  0.0278
10603W        W26787   4.009  14.665  11.237 -0.1041 -0.0286  0.0481
10604W        W26788  12.437   5.723   3.311 -0.1511  0.1232 -0.0186
10605W        W26789   4.533   1.921  14.054  0.2938 -0.2113  0.0659
10606W        W26790  13.670   1.136   3.349 -0.0649 -0.4538 -0.2116
10607W        W26791   2.711  17.216   4.510 -0.0490  0.0174 -0.0187
10608W        W26792   2.457   6.473   3.702  0.2799  0.0777 -0.1100
10609W        W26793  15.544   4.221   1.346  0.0896 -0.0879 -0.0046
10610W        W26794   9.098   4.375   4.587  0.1086 -0.0328  0.0987
10611W        W26795   1.625   6.301   5.038 -0.1500  0.1353 -0.0905
10612W        W26796   1.503  18.831  13.104  0.0918 -0.0007  0.1075
10613W        W26797   0.412   4.067  12.328 -0.2996 -0.3604 -0.0286
10614W        W26798   7.641   1.934   3.699  0.0289  0.0121  0.1386
10615W        W26799  17.101   6.775  10.467 -0.3508 -0.1396 -0.0234
10616W        W26800   7.096   7.449  10.754  0.1395  0.2705 -0.0823
10617W        W26801   1.474   1.806   1.896  0.1435  0.0174  0.1142
10618W        W26802   7.269  10.566   4.463 -0.0469  0.1630 -0.1425
10619W        W26803  18.060  16.173  14.855  0.1603  0.1551  0.0032
10620W        W26804   6.467  13.827  12.046  0.0831 -0.0719  0.1507
10621W        W26805   8.780   7.682   3.228 -0.1560 -0.4180  0.2381
10622W        W26806   9.104   9.964   4.428 -0.0385 -0.3299 -0.4580
10623W        W26807   6.009  19.341   3.797  0.1581 -0.1509 -0.3230
10624W        W26808   7.297   9.046   2.217  0.0037 -0.0657  0.0362
10625W        W26809  16.525   9.835  14.650 -0.1669  0.2551 -0.1938
10626W        W26810  13.709  16.014  12.984 -0.0204  0.1452 -0.0049
10627W        W26811   6.440  15.252   4.374 -0.0431 -0.2690  0.0984
10628W        W26812   4.606  11.304  11.149 -0.0837  0.1896  0.1988
10629W        W26813   7.493  18.651   3.010 -0.0324 -0.2194  0.3401
10630W        W26814  15.050   9.752  11.812 -0.0110  0.2318 -0.2670
10631W        W26815   9.781   3.142   0.578 -0.2903  0.0821  0.4859
10632W        W26816   2.499   3.573   5.047  0.1121  0.1964 -0.1079
10633W        W26817  11.414   0.576  10.004  0.4987  0.3455  0.0072
10634W        W26818  15.979  14.662   5.772 -0.0387  0.3224 -0.0081
10635W        W26819   3.612  15.042  13.891  0.1332 -0.2535  0.0469
10636W        W26820   1.357  12.312  13.957  0.0497  0.0613  0.1405
10637W        W26821   0.748   4.355  14.030 -0.1480 -0.2401 -0.3730
10638W        W26822  12.654  17.117   3.495  0.0435  0.0748 -0.3841
10639W        W26823  17.737   9.546   3.964  0.0356 -0.2624 -0.0399
10640W        W26824  18.986  12.668  13.524 -0.1389  0.0714  0.0724
10641W        W26825   6.286  16.455  13.421 -0.0994  0.2886  0.0071
10642W        W26826   6.531   7.776  11.424 -0.1933  0.0509 -0.0221
10643W        W26827   6.899   9.112   0.494  0.1032 -0.0377 -0.2428
10644W        W26828  16.449   8.170   3.807 -0.1068 -0.1063  0.0030
10645W        W26829  12.388  18.306   2.122  0.3338  0.2945  0.2384
10646W        W26830   7.676   2.007   1.558 -0.0270 -0.2061 -0.3711
10647W        W26831   3.956   2.467   9.883  0.1266  0.0913 -0.0422
10648W        W26832  12.112  17.357  14.541 -0.0713  0.1460 -0.0742
10649W        W26833   0.830  14.567   5.109  0.1741 -0.5533 -0.0984
10650W        W26834  10.665  16.399  13.661 -0.4559  0.1082 -0.1670
10651W        W26835  17.179  10.618  12.402 -0.2769 -0.0093  0.1354
10652W        W26836   0.473  12.478   3.516 -0.1056  0.2868  0.1951
10653W        W26837  14.365  14.195   1.601 -0.1179 -0.0531 -0.1130
10654W        W26838  17.449   4.655  14.308  0.1123 -0.4006  0.3349
10655W        W26839  13.336  13.248  13.429  0.0077 -0.0053 -0.2282
10656W        W26840  17.138  14.021   2.313 -0.0816 -0.2759 -0.0432
10657W        W26841   5.108  11.998   2.608  0.3227  0.1561  0.1189
10658W        W26842  16.402  13.868  10.764  0.0381  0.0252  0.0876
10659W        W26843   4.011  17.469   1.127  0.3234  0.2490 -0.3224
10660W        W26844   9.986  15.894  10.035 -0.0549 -0.3544 -0.0899
10661W        W26845  12.970  14.733  13.771 -0.0238  0.3190  0.1090
10662W        W26846   2.565  10.631  14.404 -0.0290  0.3568 -0.0783
10663W        W26847  18.272   2.627   1.398  0.0386  0.0847  0.3305
10664W        W26848   2.272   4.151  10.045 -0.0191  0.2523  0.0600
10665W        W26849  16.979   5.758   0.019 -0.1440  0.0743 -0.1377
10666W        W26850  12.166   4.396   3.135 -0.0930 -0.0939  0.2330
10667W        W26851  15.665   1.146  13.983 -0.0836 -0.3734 -0.0052
10668W        W26852   9.147  15.707   4.874  0.3239  0.1529  0.0137
10669W        W26853  19.189   9.252  13.203  0.0337  0.1176 -0.0207
10670W        W26854   9.943   8.790  13.032 -0.1638  0.2951 -0.0937
10671W        W26855   0.349   9.807   0.771 -0.0108 -0.0287  0.2515
10672W        W26856   9.393   5.739  14.790  0.0736 -0.1293  0.1490
10673W        W26857  15.350   4.070   3.309 -0.1279  0.3855  0.3684
10674W        W26858  18.456   7.510  11.117 -0.0444  0.0767  0.3168
10675W        W26859   4.961  11.135   4.084  0.1619 -0.0980 -0.0744
10676W        W26860   5.800   1.100  12.431  0.1082 -0.4415  0.1188
10677W        W26861   1.938   5.721   2.897 -0.0997 -0.3409 -0.0420
10678W        W26862   9.359  12.766  14.214  0.1108  0.1604  0.2311
10679W        W26863   6.544  18.047   1.914 -0.0937 -0.1321 -0.1248
10680W        W26864  12.328  14.410   4.978 -0.2727 -0.0125  0.2874
10681W        W26865   0.627  19.372  10.480  0.1158  0.1933 -0.0978
10682W        W26866  12.423  13.872  11.799 -0.2717 -0.3263 -0.1757
10683W        W26867  11.791  12.325   2.378 -0.2015  0.0181 -0.1135
10684W        W26868   3.325  16.217   0.001  0.0086 -0.3577 -0.3585
10685W        W26869   1.972   5.543  14.040 -0.1611  0.1560  0.0704
10686W        W26870  18.069  15.781  11.423 -0.0524  0.0272  0.1431
10687W        W26871  14.455  17.141  10.275  0.2021  0.0848  0.1429
10688W        W26872  13.146   8.882   5.158 -0.1287  0.0555  0.1604
10689W        W26873  18.004   0.564  13.270  0.1813 -0.2739  0.0845
10690W        W26874  17.797  10.450   1.080 -0.3257 -0.2482 -0.0779
10691W        W26875  18.419   1.420   1.492  0.0473  0.4085 -0.1834
10692W        W26876  18.287  11.440   5.028 -0.3271  0.1576 -0.0329
10693W        W26877  13.856  16.854  12.008  0.2383  0.2306  0.3502
10694W        W26878  11.782  17.395  13.709 -0.0986  0.1391 -0.1310
10695W        W26879   3.766   6.675   0.024  0.0506  0.1527  0.1155
10696W        W26880  19.030  11.201  11.763 -0.1616  0.2187  0.1021
10697W        W26881  17.564  13.687  13.940  0.0572  0.2451 -0.0499
10698W        W26882   1.803  11.587   3.763  0.0177  0.2869 -0.2367
10699W        W26883   9.115  12.452   3.479  0.0674 -0.3252  0.1058
10700W        W26884  16.496   0.577   2.839 -0.1816  0.0145  0.1901
10701W        W26885  17.928  16.747  13.105 -0.0215  0.1226  0.2299
10702W        W26886  16.737  13.148  11.771 -0.2321  0.4402  0.1215
10703W        W26887   0.444  13.631  13.622 -0.1665  0.0970  0.0738
10704W        W26888  17.380  17.859   1.300  0.0881 -0.1993 -0.1235
10705W        W26889   5.020  13.447   2.680  0.1623 -0.1268  0.0489
10706W        W26890   2.542   3.923   4.214  0.0381  0.2264 -0.1844
10707W        W26891  11.219   7.035   1.692  0.0574 -0.0883 -0.0127
10708W        W26892   0.659  10.541   3.181 -0.2545  0.2519  0.0812
10709W        W26893  15.435  17.506   3.359  0.0407 -0.0624 -0.2478
10710W        W26894   7.463  16.651   1.565  0.4375 -0.2715  0.1434
10711W        W26895   4.935  16.064   4.744  0.3008  0.0426  0.2068
10712W        W26896   7.180  14.039   0.208  0.1325  0.1691 -0.1491
10713W        W26897   2.379   2.812   1.461 -0.0300 -0.3091  0.5518
10714W        W26898  14.923   4.309  11.722  0.0576 -0.2073 -0.1297
10715W        W26899  11.700   9.469   4.569  0.1767 -0.2084  0.3999
10716W        W26900   2.716   0.493  14.484 -0.0163 -0.1919 -0.0147
10717W        W26901   6.443  12.512   5.048  0.4635 -0.1138 -0.2913
10718W        W26902  16.734  14.510   0.135 -0.0006 -0.1416 -0.0457
10719W        W26903   3.046  13.603   1.518 -0.4151 -0.0211  0.0411
10720W        W26904  14.746   8.154   0.887 -0.1428  0.3103 -0.0396
10721W        W26905  17.127   8.477  11.254 -0.0968  0.0908 -0.0368
10722W        W26906   8.979  10.028   5.475 -0.1698  0.1444  0.0262
10723W        W26907   9.325   0.587   3.142 -0.0348  0.1526 -0.3718
10724W        W26908   8.806  14.314   3.915  0.0789 -0.1758 -0.1309
10725W        W26909  12.340  16.853  13.813 -0.0207  0.2452 -0.3920
10726W        W26910  16.832  10.816   3.996  0.0526 -0.3673 -0.1143
10727W        W26911  19.017  12.348  13.954  0.1232  0.2224  0.0119
10728W        W26912   7.805  12.204  14.766  0.0318  0.0093  0.0518
10729W        W26913  18.279   2.608  13.476 -0.0287  0.1835  0.3010
10730W        W26914  10.925   0.674   5.417  0.0315 -0.2250 -0.3215
10731W        W26915   2.754  14.216   2.205 -0.0407  0.1735 -0.0040
10732W        W26916  15.314  13.724  12.931  0.1046 -0.0615 -0.2702
10733W        W26917  11.928   1.605   5.414  0.0616  0.0222 -0.1372
10734W        W26918  15.495   8.619  11.196  0.0644 -0.0048  0.1522
10735W        W26919  16.579  15.475  13.958 -0.0457  0.1021  0.0059
10736W        W26920   0.966  10.013  12.975  0.0034  0.0928  0.3016
10737W        W26921   0.061   9.397   3.420  0.0359 -0.1216  0.0075
10738W        W26922  12.483   6.913   1.106 -0.0630  0.1258 -0.0173
10739W        W26923  13.369   2.238   2.781  0.3614  0.0050 -0.1164
10740W        W26924  17.561   1.321  10.059  0.0603  0.2894  0.0057
10741W        W26925  13.614   7.148   3.626  0.1238  0.1019  0.2656
10742W        W26926   1.856  18.684   3.944  0.0278 -0.0417 -0.1701
10743W        W26927   0.594  16.553   0.073  0.3763 -0.1864  0.1218
10744W        W26928  10.760  10.677   1.244 -0.1495 -0.2182 -0.0282
10745W        W26929  10.371  16.441   3.729 -0.2300 -0.1534 -0.2711
10746W        W26930  17.045   0.208   1.907 -0.2330 -0.1148  0.0377
10747W        W26931   6.555   1.161  11.308  0.1751 -0.2367  0.1646
10748W        W26932   7.664   7.642   1.892 -0.0151 -0.1974 -0.1274
10749W        W26933   6.540  10.138   2.264 -0.1882 -0.0892 -0.1710
10750W        W26934  18.308   1.496  14.909  0.0188  0.0512 -0.0491
10751W        W26935  10.447  15.053  10.380  0.1909  0.2656 -0.1098
10752W        W26936   2.312  15.613  14.209 -0.0541 -0.3776  0.1679
10753W        W26937  10.829  15.831   1.124 -0.2409 -0.1992  0.1453
10754W        W26938   7.323   5.200   2.375  0.2356  0.3526  0.0987
10755W        W26939  19.378  15.934  11.219 -0.1531  0.0124 -0.1922
10756W        W26940  16.477   0.166  10.833 -0.4044  0.2783  0.1471
10757W        W26941   5.471  19.046  11.985  0.0549 -0.0410  0.2054
10758W        W26942  19.310  11.132  13.623 -0.4713 -0.0237  0.4104
10759W        W26943   1.189  14.947  11.871  0.0786 -0.0289  0.1067
10760W        W26944  15.511   7.061   2.122 -0.0506  0.3547 -0.2305
10761W        W26945   4.060  12.604   0.055  0.2450  0.1087  0.2815
10762W        W26946  10.631   9.426   2.785  0.2130  0.2681 -0.0824
10763W        W26947   7.562  17.603   1.337 -0.1020 -0.4709  0.1087
10764W        W26948   0.887   0.632  13.817 -0.1354 -0.1810 -0.3155
10765W        W26949   2.757   7.717  14.502  0.0228 -0.3757  0.4282
10766W        W26950  15.720   1.681   1.732 -0.0411  0.1933 -0.2173
10767W        W26951  15.509  16.625  13.487  0.1011 -0.0259  0.1673
10768W        W26952   2.103   3.252  12.321 -0.2679 -0.0848 -0.1281
10769W        W26953   4.873  11.615  11.936  0.3382  0.0301 -0.0208
10770W        W26954  11.179  17.503  12.789 -0.0261  0.2217 -0.3425
10771W        W26955  11.519   2.633   1.529  0.2316  0.0461  0.1071
10772W        W26956   3.895  17.790   4.985  0.4700 -0.0518  0.0721
10773W        W26957   3.933   9.249   0.602  0.1705 -0.0444 -0.2772
10774W        W26958   2.179  13.405   1.998 -0.0401  0.1344 -0.1446
10775W        W26959  18.234  12.600   0.276 -0.1325  0.0535 -0.0612
10776W        W26960   5.173  10.790  10.082  0.1107  0.0922  0.1506
10777W        W26961  16.994   0.979  13.661 -0.2603  0.1118  0.0444
10778W        W26962   1.893   8.624   3.654 -0.3940  0.4679 -0.2329
10779W        W26963   7.035   1.866  13.666 -0.0661 -0.0622 -0.0703
10780W        W26964   8.507  10.937   5.093  0.0615 -0.0704 -0.2317
10781W        W26965  16.892  18.059  10.406  0.0568 -0.0111  0.1975
10782W        W26966   5.576  14.170   0.086  0.1857  0.1058  0.0608
10783W        W26967   1.058   3.761   1.877 -0.0271 -0.1928  0.0703
10784W        W26968   0.339  12.255  12.623 -0.2641 -0.0978  0.2680
10785W        W26969  13.371   3.211   2.599 -0.0707  0.3003  0.1957
10786W        W26970  14.971  19.010   0.014  0.1343  0.0165  0.2676
10787W        W26971   0.567   2.126  10.111  0.2108 -0.4256  0.1025
10788W        W26972  16.677   5.796  14.007 -0.1285  0.1793  0.1069
10789W        W26973  17.679  12.465  11.948  0.1274 -0.5466 -0.0100
10790W        W26974  10.513  17.662   4.138  0.0533  0.0009  0.0667
10791W        W26975  12.542  18.833   3.192 -0.3588 -0.2506  0.1413
10792W        W26976   3.207   1.615   0.736 -0.0751  0.1647  0.0019
10793W        W26977  10.447  17.977  13.700 -0.1094  0.2137  0.2392
10794W        W26978   5.376  16.556  11.264  0.1298  0.2349 -0.1148
10795W        W26979  18.843  10.561   2.920  0.3569 -0.1584  0.1840
10796W        W26980   3.198  15.660   2.583 -0.0167 -0.3573 -0.0034
10797W        W26981   8.937  13.544   1.045 -0.0106  0.1294  0.1060
10798W        W26982   5.522   0.506   1.411 -0.0428 -0.1462 -0.0330
10799W        W26983  14.475  17.830   3.454 -0.3265 -0.0424  0.2589
10800W        W26984  18.532  16.257  14.410 -0.0806 -0.0172 -0.1110
10801W        W26985   0.412  19.040  11.319 -0.1054 -0.1909  0.0379
10802W        W26986  16.271   1.088   2.734 -0.1156  0.0614  0.0558
10803W        W26987  14.666   2.947   1.744 -0.0217 -0.2130 -0.2351
10804W        W26988   2.089   3.846   2.124 -0.0188  0.4335  0.0934
10805W        W26989   3.781   9.559  14.082 -0.4102 -0.1270 -0.0770
10806W        W26990   8.851   9.520   4.312 -0.2754 -0.3909 -0.0667
10807W        W26991   3.032   7.751   2.193 -0.0499  0.3210  0.1353
10808W        W26992  16.114  11.000   0.692 -0.1126 -0.2546 -0.3197
10809W        W26993  11.347  18.990  10.334 -0.1007  0.2745 -0.0540
10810W        W26994   0.615   4.016   0.802  0.0981  0.0421  0.2169
10811W        W26995   6.795  16.010   4.742  0.3591 -0.0593  0.0477
10812W        W26996   8.840  18.815  14.092  0.1406  0.5122  0.2836
10813W        W26997  16.094   4.535  12.150 -0.2698  0.1216  0.1536
10814W        W26998   7.476  19.277  14.287  0.1313 -0.0979  0.0280
10815W        W26999   1.611   1.469  12.248 -0.3279 -0.3212  0.1390
10816W        W27000   9.515   1.816   1.117 -0.1333 -0.1613 -0.1574
10817W        W27001   5.905  15.587  10.293  0.0072 -0.2589  0.2803
10818W        W27002  11.588  10.941  11.518 -0.0145 -0.2318  0.0128
10819W        W27003  12.025   5.564  13.229  0.0609 -0.1510  0.2242
10820W        W27004  16.395   3.686  13.552  0.1638 -0.4526  0.3050
10821W        W27005   2.846   5.612   2.585  0.0576  0.2861  0.1040
10822W        W27006  10.833  18.625   3.371  0.3007 -0.0617 -0.1499
10823W        W27007  16.890  12.426   0.272  0.2896  0.0032  0.0424
10824W        W27008   8.725   5.701   1.905 -0.0741  0.1336 -0.2206
10825W        W27009   1.761   2.218  14.077  0.1228  0.0297 -0.0400
10826W        W27010   4.601  14.649   1.869 -0.2826  0.2607 -0.0997
10827W        W27011   1.878   9.517   1.182 -0.2353 -0.2162  0.0436
10828W        W27012  18.266   9.433  13.639 -0.0429 -0.0449  0.0995
10829W        W27013  16.677   4.988  13.846  0.2600  0.2044 -0.0564
10830W        W27014   1.398   4.882  14.497 -0.5552  0.0330 -0.0742
10831W        W27015   0.421   1.343   5.499  0.4542 -0.1577 -0.2197
10832W        W27016  12.152   2.274   3.458  0.0608  0.0242  0.1046
10833W        W27017  11.140   9.569   3.032  0.4314  0.0994 -0.0652
10834W        W27018  16.621   7.267   3.499 -0.1064  0.3740 -0.0078
10835W        W27019  13.284  17.095   2.278  0.1164  0.0075 -0.1763
10836W        W27020   5.595   9.538   2.751  0.2834  0.3387 -0.1223
10837W        W27021   6.774   7.609  14.595  0.1017 -0.1072  0.3453
10838W        W27022   6.480  17.497  10.869 -0.1590  0.3837 -0.1917
10839W        W27023  11.880  13.385  14.242 -0.0699  0.2719  0.3052
10840W        W27024  17.044   5.342   0.984 -0.1670 -0.1263 -0.0970
10841W        W27025   4.265   4.655  11.902 -0.0168  0.0963 -0.3468
10842W        W27026  12.193   3.967   0.004 -0.5202  0.1576 -0.0548
10843W        W27027   9.677   1.544   3.081 -0.0709 -0.1281 -0.1817
10844W        W27028  19.188   0.798   0.868 -0.0512  0.0057  0.1126
10845W        W27029   3.731   6.697   5.210 -0.1936  0.0860  0.0846
10846W        W27030  19.384   7.772  10.385 -0.0624  0.0051 -0.1186
10847W        W27031   8.550   7.870  14.428  0.0859  0.0689  0.1621
10848W        W27032   9.303  17.837  13.503  0.1496  0.1083  0.1529
10849W        W27033   9.082  16.224   0.163  0.0670  0.0460 -0.0108
10850W        W27034  10.265  15.046  11.212  0.3696  0.0679 -0.2333
10851W        W27035  14.090   8.482  13.585  0.0751 -0.1843 -0.1351
10852W        W27036  17.377   1.180   3.271  0.1522  0.3476  0.1127
10853W        W27037   1.082   3.521  14.478 -0.3519 -0.0979  0.0373
10854W        W27038   5.952   2.507  11.087  0.3102  0.0069  0.2011
10855W        W27039   7.668   4.849  14.822  0.1116  0.1645 -0.3553
10856W        W27040  14.137   8.978   1.861  0.3968 -0.2250  0.1721
10857W        W27041   6.098  16.162  14.259 -0.1070  0.2421 -0.2114
10858W        W27042   6.956   9.415   4.761 -0.3670  0.2684 -0.3113
10859W        W27043  12.606  17.268   1.753 -0.0175  0.2484  0.0106
10860W        W27044   6.975  14.628   4.864  0.5443 -0.1642 -0.1573
10861W        W27045  17.477  11.282   2.995  0.1096  0.3599  0.2574
10862W        W27046   1.868   7.670   5.098 -0.0345  0.1810 -0.0311
10863W        W27047  11.116   6.280   0.137  0.1789 -0.3430  0.2276
10864W        W27048   9.052  16.689  11.298  0.1446 -0.1686  0.1143
10865W        W27049  16.359   3.506  14.023 -0.0317  0.0701 -0.1324
10866W        W27050   8.404   5.498   5.821  0.2566  0.0525 -0.0780
10867W        W27051   6.214  11.884   0.345 -0.2527  0.3872 -0.1867
10868W        W27052   4.628   6.129   5.017 -0.0822 -0.0086  0.2697
10869W        W27053   1.351   7.201   2.370  0.0615 -0.0757  0.3560
10870W        W27054  11.164   6.558   1.376  0.0722 -0.1051 -0.2449
10871W        W27055   7.152  17.830   2.639  0.0285  0.0530  0.1670
10872W        W27056  13.299  16.171   2.486 -0.0126 -0.0740 -0.3282
10873W        W27057  16.204   6.356   0.595 -0.2272  0.2576 -0.2986
10874W        W27058   7.275   1.757   1.478 -0.0445 -0.0382 -0.0284
10875W        W27059  17.617  10.244   5.499  0.2794 -0.0459  0.0936
10876W        W27060   4.062  16.958  10.603  0.1312 -0.1766 -0.1824
10877W        W27061   8.668  11.503   2.714 -0.1641  0.1808 -0.2102
10878W        W27062  17.937  10.657  13.702  0.1259  0.0467 -0.0671
10879W        W27063  10.228  11.564  13.799 -0.1961  0.3540 -0.0693
10880W        W27064  15.601   0.249   5.361 -0.3845 -0.2248  0.0758
10881W        W27065  15.481  13.799  11.932  0.2200 -0.1249  0.1294
10882W        W27066  13.832   4.000   1.825 -0.0908  0.1378 -0.1151
10883W        W27067   9.479   2.607  14.251  0.0026  0.1441  0.0228
10884W        W27068  19.253   5.972   9.859 -0.1129  0.0547 -0.0688
10885W        W27069  17.528   6.371   2.368 -0.0688 -0.0704  0.0776
10886W        W27070  15.442  12.307   5.056 -0.0005 -0.0218  0.0242
10887W        W27071  10.665   0.442   3.266 -0.2161 -0.0073  0.0357
10888W        W27072   2.779   8.957  12.232  0.2075  0.0431  0.2369
10889W        W27073   0.172   0.671   1.817  0.0554 -0.0967  0.1450
10890W        W27074  17.677   3.835   1.490 -0.2973  0.1948 -0.0131
10891W        W27075   7.436   5.218  11.166 -0.4291 -0.3354  0.1395
10892W        W27076   2.111  18.227  14.180 -0.0754 -0.0783 -0.1537
10893W        W27077  18.581  12.519  12.044 -0.1320  0.5519 -0.0581
10894W        W27078   0.423   6.820  12.246  0.3833  0.1892  0.2370
10895W        W27079  12.391  14.531  14.373 -0.0143  0.3897  0.0066
10896W        W27080   5.998   8.333   4.210 -0.4213  0.1957  0.0552
10897W        W27081   8.713  14.107  13.032  0.0123  0.2587  0.2767
10898W        W27082  18.884  17.873   1.327  0.1348 -0.2659  0.1400
10899W        W27083  15.719  11.649   2.479 -0.0359  0.4691 -0.1559
10900W        W27084   5.446  13.028  11.971 -0.0669  0.0957  0.1293
10901W        W27085  16.311   8.810   2.880  0.1529 -0.4123 -0.0321
10902W        W27086   6.231   8.566  12.681  0.0297 -0.1647  0.6617
10903W        W27087  15.914  18.575   2.162  0.1202 -0.1845  0.2059
10904W        W27088  13.875   4.434   3.995  0.2888  0.4523  0.0699
10905W        W27089  10.078  14.919   3.286 -0.2949  0.0825  0.0618
10906W        W27090  18.111   5.595   4.579  0.1583  0.2795  0.0668
10907W        W27091   9.392  13.733   0.984  0.0426 -0.0588  0.1645
10908W        W27092  18.405  17.735   3.145 -0.0522 -0.0954 -0.2473
10909W        W27093  10.402   7.447   0.053  0.1110 -0.1611  0.0563
10910W        W27094  11.419  10.057  13.996  0.0479  0.0063 -0.2497
10911W        W27095  13.742  10.564   5.421  0.0458  0.0015  0.1669
10912W        W27096  13.961  12.674   3.338 -0.1935  0.0848 -0.3076
10913W        W27097   1.516  10.976   2.087 -0.0838  0.0605  0.2274
10914W        W27098   7.477  11.269   3.589 -0.0143  0.0027  0.0982
10915W        W27099   0.449  10.910   3.814 -0.0408  0.1566  0.1248
10916W        W27100  18.741   2.982   5.448  0.1058  0.0779  0.0971
10917W        W27101  15.312   4.128  12.487  0.2967  0.0740  0.0358
10918W        W27102  19.385   2.594   4.081 -0.2163  0.0849 -0.0068
10919W        W27103   3.286   2.156   4.365 -0.0996  0.0832 -0.0287
10920W        W27104  12.969   0.606   5.143  0.1549  0.1837  0.3028
10921W        W27105   5.469  12.508  12.296  0.2481 -0.1721 -0.1110
10922W        W27106   9.534   7.924  14.828 -0.2700 -0.0133 -0.4891
10923W        W27107   2.081   3.330   0.877 -0.1134  0.1527 -0.3652
10924W        W27108   7.411   7.095   2.871  0.0924 -0.0941 -0.3022
10925W        W27109   6.147  12.852   3.693  0.0807  0.1926  0.1005
10926W        W27110   0.443   6.932   4.477  0.0560 -0.0284  0.2835
10927W        W27111  11.113   3.340  14.601 -0.1299  0.1667  0.1534
10928W        W27112   7.843   3.689  12.689 -0.0334  0.1961  0.0657
10929W        W27113  11.562  16.722   2.789 -0.1876  0.0223 -0.0468
10930W        W27114   0.261  10.572  12.078 -0.1115  0.0554 -0.0889
10931W        W27115   7.454  18.735  14.235  0.3807 -0.2839 -0.2289
10932W        W27116   1.334   4.881   0.070 -0.0612  0.2196  0.3207
10933W        W27117   1.496  10.667   5.050  0.3755 -0.0255  0.2203
10934W        W27118  12.130   4.089  11.411  0.0854  0.0761 -0.1718
10935W        W27119  10.262  15.589   4.017 -0.3834 -0.0599 -0.0220
10936W        W27120  10.984  16.273  12.201 -0.0871  0.1370  0.6598
10937W        W27121   1.879  19.356  14.464  0.0582  0.1984 -0.0770
10938W        W27122   4.107   5.585  12.089 -0.1031 -0.1015  0.3790
10939W        W27123  13.058  15.842  14.599 -0.1767 -0.2241 -0.2053
10940W        W27124   7.052   4.482  13.234 -0.2866 -0.2371  0.3104
10941W        W27125   4.448  15.385  10.669 -0.2978  0.0288 -0.1298
10942W        W27126  16.493  11.099  12.762 -0.5319  0.2037 -0.1129
10943W        W27127  13.026  15.205   4.312  0.1711  0.0150 -0.2275
10944W        W27128  11.980   5.109  12.902 -0.2577  0.2425 -0.0722
10945W        W27129  10.389  14.526   3.778  0.1557  0.0402 -0.0514
10946W        W27130  11.135   6.152  12.994  0.0191  0.0597 -0.2414
10947W        W27131  10.435  18.720  10.600  0.1558 -0.0620  0.2569
10948W        W27132  10.048   0.804   4.904 -0.0030 -0.2776 -0.0362
10949W        W27133  12.240  16.310  10.745  0.0446  0.3433 -0.3040
10950W        W27134  16.446  17.180  10.566 -0.0842 -0.3126  0.0329
10951W        W27135  16.468   8.447  12.354  0.0383  0.3693 -0.1118
10952W        W27136   6.633  18.883  11.466 -0.0785  0.2246 -0.0538
10953W        W27137   4.844   7.585  10.270  0.3174 -0.0110 -0.0338
10954W        W27138   7.385   6.103   2.152  0.0703  0.3698 -0.1415
10955W        W27139   5.438   2.754  12.422 -0.0136  0.1892  0.0814
10956W        W27140   2.623  17.405  14.432  0.0842  0.2885 -0.2493
10957W        W27141   3.384  19.351  10.640  0.3933 -0.1778 -0.0835
10958W        W27142  14.473   9.283   2.124  0.0949 -0.0099  0.0675
10959W        W27143   4.998   9.371   3.936 -0.0045  0.0452  0.0374
10960W        W27144   2.447  13.812   1.237  0.0593 -0.1382 -0.5770
10961W        W27145  14.833  16.598   4.992 -0.1831 -0.0779  0.1597
10962W        W27146   8.517   8.939   0.897  0.2006  0.2078 -0.2763
10963W        W27147  17.940  14.139  13.765 -0.3424  0.2131 -0.1444
10964W        W27148   1.951   3.860   3.122  0.1525  0.1616  0.2136
10965W        W27149   6.042  12.786   1.920 -0.2771 -0.2444 -0.2863
10966W        W27150  10.080  13.163   2.654  0.0312  0.3708 -0.1504
10967W        W27151  11.114   7.229  13.256 -0.0434 -0.0623 -0.1431
10968W        W27152  15.342  14.691   3.599  0.0283 -0.2421  0.1979
10969W        W27153   5.133   9.426   1.425 -0.1724 -0.0322 -0.5153
10970W        W27154  13.963   7.252  12.059 -0.3089 -0.2508  0.1294
10971W        W27155  15.340  13.322   4.810  0.2945  0.2030  0.1701
10972W        W27156  12.734  16.761   2.915 -0.2321  0.1816  0.2849
10973W        W27157   7.841   3.452   2.599  0.3209 -0.3505  0.2869
10974W        W27158  12.660   5.858   0.872  0.1858 -0.4034  0.3400
10975W        W27159   9.349   7.455  12.264 -0.0695 -0.2792 -0.1131
10976W        W27160   7.217   3.447   4.199 -0.0616  0.0818 -0.0252
10977W        W27161   8.277  12.234  13.526 -0.0535  0.1444 -0.1717
10978W        W27162  13.592  15.022  14.927 -0.2167  0.0811 -0.1130
10979W        W27163   5.765   0.062  12.680  0.0631 -0.0187  0.4481
10980W        W27164  15.479   0.309   1.876  0.0139  0.0681 -0.0817
10981W        W27165   2.532   9.029   5.669  0.1187 -0.0932 -0.1422
10982W        W27166  14.815  13.466   4.820  0.0820 -0.1143 -0.1030
10983W        W27167   3.572   9.490   1.492  0.2762 -0.1090  0.0611
10984W        W27168   4.825  13.560   4.797  0.0367  0.1045 -0.2024
10985W        W27169   3.832  18.858  13.677 -0.2402 -0.2795 -0.2258
10986W        W27170  14.567  10.023  11.943  0.0608  0.4373 -0.1529
10987W        W27171  18.340  17.478   4.935  0.0823  0.1145  0.2899
10988W        W27172   2.392   7.670  13.746 -0.3725  0.1487  0.2338
10989W        W27173  13.129   5.958  11.102 -0.0443 -0.1658  0.0817
10990W        W27174   0.225  13.235  11.662 -0.0086 -0.2901 -0.0586
10991W        W27175   0.194   8.682   2.841  0.0806 -0.2425  0.2286
10992W        W27176  10.587   1.312   9.991  0.1207 -0.2606 -0.1630
10993W        W27177  13.328   6.154  14.797 -0.1249 -0.0442 -0.0094
10994W        W27178   4.085  17.642   2.957 -0.0376  0.4432 -0.1353
10995W        W27179   5.356   3.284  11.054  0.1388 -0.0122  0.1561
10996W        W27180  17.704   2.079  13.815  0.0329 -0.2714 -0.0140
10997W        W27181  17.058  17.489  10.007 -0.0928 -0.3297  0.4874
10998W        W27182   2.562   5.009   5.513  0.0796  0.0916 -0.2171
10999W        W27183   6.128   1.657   4.694  0.4111  0.0796 -0.0309
11000W        W27184  15.952  13.807  14.237  0.1085  0.0950  0.2778
11001W        W27185  17.110  16.084  10.650  0.0857  0.0756  0.3106
11002W        W27186   0.451   2.425   3.913  0.1723  0.1743  0.0190
11003W        W27187   5.991  14.254   4.330 -0.1487 -0.0598 -0.2054
11004W        W27188   1.956   7.882  12.927  0.0137 -0.1164 -0.0953
11005W        W27189  11.299   5.855   3.807 -0.1562 -0.0846  0.0761
11006W        W27190  19.195  11.058  11.286  0.0839 -0.3210  0.1224
11007W        W27191  13.367   7.847   5.544  0.4249 -0.2838  0.1168
11008W        W27192  16.807  19.019  10.150  0.0412 -0.0326 -0.1265
11009W        W27193   0.790  13.528   5.318 -0.2087  0.1247  0.3175
11010W        W27194   4.319  12.949   3.281 -0.1723 -0.0812  0.1198
11011W        W27195  11.906   0.556  12.975 -0.2008  0.0879  0.1839
11012W        W27196   9.955   1.496  14.035 -0.3698  0.2317  0.1296
11013W        W27197   7.531  16.493   2.446 -0.0342 -0.1186 -0.1398
11014W        W27198  14.641   5.264   2.675 -0.4249 -0.2330  0.1384
11015W        W27199  12.734  10.018   0.165 -0.1384  0.2253 -0.2286
11016W        W27200  18.138   3.878  14.014  0.1086  0.0061  0.0796
11017W        W27201  13.518  13.645   0.674 -0.5652 -0.0011  0.1264
11018W        W27202   5.059  17.724   1.692  0.0490  0.1210 -0.2778
11019W        W27203  10.020  17.728  10.828  0.2182 -0.1291 -0.1877
11020W        W27204   9.729  15.076   4.888 -0.2599 -0.0269 -0.0277
11021W        W27205  16.574   2.529   3.363  0.1026 -0.1457  0.2053
11022W        W27206  16.344  17.536  12.619 -0.3315 -0.3108 -0.0567
11023W        W27207   2.886  14.066  13.578 -0.0679 -0.1836  0.0317
11024W        W27208   9.632   9.204   3.023 -0.1910 -0.6624 -0.1084
11025W        W27209   6.845  10.220  13.957  0.2755  0.1865 -0.1779
11026W        W27210  18.873  17.049  10.371 -0.4051 -0.1190 -0.0750
11027W        W27211  11.278  16.386   3.071 -0.1279  0.1065 -0.0943
11028W        W27212   6.225  14.621  13.129  0.1687 -0.4377 -0.1249
11029W        W27213   7.347   1.347  10.294  0.0595 -0.1609 -0.3051
11030W        W27214  18.163   8.422   2.995  0.2840 -0.0886  0.0428
11031W        W27215  10.572   3.328  12.876 -0.1563  0.1183 -0.1614
11032W        W27216   7.024  10.904   4.851  0.1388  0.0766  0.2921
11033W        W27217  12.543  18.395  10.657 -0.0323  0.1176  0.2449
11034W        W27218  13.914   0.082  14.575  0.0835 -0.0775  0.0971
11035W        W27219  18.843  19.042   0.602  0.0050 -0.1739  0.2111
11036W        W27220  13.064   7.149  12.950  0.2957 -0.0360  0.2027
11037W        W27221  19.207   2.104  14.180 -0.1111 -0.0366  0.2068
11038W        W27222   6.376   3.603   5.011 -0.0061 -0.1177  0.4397
11039W        W27223   5.648   3.811  12.250 -0.2393  0.0316  0.1012
11040W        W27224   5.678  10.836  13.449 -0.1362 -0.2778 -0.2064
11041W        W27225  18.524  12.001  12.092 -0.0548  0.0049 -0.1769
11042W        W27226   5.193   8.386  11.388  0.1352  0.2888  0.2294
11043W        W27227  11.622   3.668  12.259 -0.0775  0.1170  0.1884
11044W        W27228   0.489   4.389   4.081  0.0458 -0.0388  0.0689
11045W        W27229   6.114   0.389   2.690 -0.0436 -0.2815 -0.0969
11046W        W27230   8.608   0.433   4.760 -0.0768 -0.1150  0.0876
11047W        W27231   7.012   0.256  10.641 -0.1966 -0.2779  0.3251
11048W        W27232   1.733   0.498  14.326  0.1047  0.3584 -0.2094
11049W        W27233  18.434   1.654  14.432  0.3081  0.0028 -0.0513
11050W        W27234  12.927   7.370  14.315  0.2049  0.0826  0.0246
11051W        W27235   0.976   2.353   2.746 -0.3642 -0.1856  0.1473
11052W        W27236  12.760  17.000  13.559 -0.1862  0.2407 -0.0630
11053W        W27237   5.753  15.936  14.950  0.0616 -0.2123 -0.1453
11054W        W27238  13.226  17.934  10.196  0.2092  0.2025  0.0750
11055W        W27239  11.301  12.337  11.792  0.1066  0.1636  0.0966
11056W        W27240  17.183  16.333  13.940  0.0151  0.3237  0.3923
11057W        W27241   2.043   0.817  11.834  0.0002 -0.1212  0.2153
11058W        W27242   4.226  14.450   1.537  0.3580 -0.1002 -0.0384
11059W        W27243   8.877   6.294  14.141 -0.1167  0.1751  0.0042
11060W        W27244   5.694  11.097   2.578 -0.2397  0.1065 -0.0709
11061W        W27245   0.531   8.159  11.162  0.1285 -0.1986 -0.2421
11062W        W27246  12.375   5.349   2.091  0.3131 -0.3281  0.1843
11063W        W27247   3.452  12.577   5.211  0.1778 -0.1479 -0.1007
11064W        W27248  12.672   8.851   2.107  0.3017 -0.1619 -0.0502
11065W        W27249   2.882   5.458   4.067 -0.1688  0.2826  0.1648
11066W        W27250  11.279   9.546  12.115 -0.0477 -0.0464  0.1050
11067W        W27251  14.388   0.388  14.544 -0.0755  0.2591  0.1446
11068W        W27252  11.890  10.033   3.028 -0.0339  0.1601 -0.1488
11069W        W27253   8.992   0.744   2.345  0.0426  0.3741 -0.0773
11070W        W27254   2.685  17.663  14.901 -0.0669  0.2490 -0.1312
11071W        W27255   4.453   7.813   3.136 -0.1151 -0.2917  0.1186
11072W        W27256  11.416  12.331  10.745  0.0413 -0.4535 -0.2590
11073W        W27257  15.966  15.945  13.702 -0.0951 -0.2955  0.1604
11074W        W27258   3.686  13.375  12.646  0.0879  0.1506 -0.1994
11075W        W27259   6.891  14.738   1.109  0.1066 -0.3065  0.2551
11076W        W27260   5.401  18.194   2.946 -0.0399 -0.1732  0.1728
11077W        W27261   0.836  18.893  11.659 -0.1094 -0.2558 -0.0886
11078W        W27262   7.950   1.458   4.180 -0.0637 -0.1704 -0.3458
11079W        W27263  14.641  16.328  11.937 -0.1214  0.0455 -0.2528
11080W        W27264  17.326  12.175   1.823 -0.2162 -0.0886 -0.2845
11081W        W27265  17.818  12.135   4.746 -0.2724 -0.0793  0.1742
11082W        W27266   6.506   6.546   4.333  0.1440 -0.2340  0.2742
11083W        W27267   6.941  14.213  12.177 -0.1252 -0.0375  0.1275
11084W        W27268   4.249  18.528  12.512 -0.0349 -0.1104  0.1830
11085W        W27269   9.757  14.335   5.054  0.0559  0.1345  0.1510
11086W        W27270  12.799  10.800  14.589 -0.1889 -0.2291 -0.0087
11087W        W27271   1.491  12.736   1.909 -0.1565  0.3471  0.1987
11088W        W27272   5.672   8.368  11.988  0.0261 -0.1397  0.2856
11089W        W27273  10.541  10.453  13.852 -0.0606 -0.0427  0.1940
11090W        W27274  13.054  14.401  13.330 -0.2380  0.3098  0.1067
11091W        W27275   6.357   3.780   2.121 -0.1799 -0.1245  0.0821
11092W        W27276  17.060  19.378   3.284  0.2521 -0.0499  0.0006
11093W        W27277   6.634  17.318  13.959 -0.0910  0.0813  0.3646
11094W        W27278  12.066   9.853   0.776  0.0377 -0.0983 -0.0857
11095W        W27279  16.806  10.423  14.381 -0.1367  0.4673 -0.1817
11096W        W27280  11.394   5.880   3.158 -0.0769 -0.0108  0.3562
11097W        W27281  12.632   6.914  12.846  0.1312 -0.1420  0.1983
11098W        W27282   6.738   9.667   3.630 -0.0429 -0.0321  0.1993
11099W        W27283  14.108  14.819   4.973  0.0991  0.1115 -0.0064
11100W        W27284  17.856   9.317   3.274  0.2311 -0.2552  0.3108
11101W        W27285  16.688   8.800  11.155 -0.0069  0.1524  0.1628
11102W        W27286   9.124   9.405   2.268  0.1170 -0.0630  0.0194
11103W        W27287   3.777   8.112  12.587  0.0909  0.0977  0.1758
11104W        W27288   6.097  11.942   2.717 -0.0713  0.2668  0.5062
11105W        W27289   3.830  12.302   3.219  0.4696 -0.0258 -0.1291
11106W        W27290   5.766  16.062   1.922  0.0305  0.2170 -0.1319
11107W        W27291  12.491   3.951  10.176 -0.2924  0.1591  0.0221
11108W        W27292  18.305   9.826   0.089 -0.1854  0.2355  0.1522
11109W        W27293  11.570  10.679   3.929 -0.3229 -0.0273  0.1148
11110W        W27294  14.782  15.443   4.531  0.1017  0.1924  0.0038
11111W        W27295   4.575  15.159   3.824 -0.1117 -0.0115 -0.1449
11112W        W27296   0.127  15.460  13.769  0.2998  0.2510  0.1113
11113W        W27297   5.258  17.124   0.153  0.2880 -0.1953 -0.3353
11114W        W27298   0.863   0.064  13.254  0.0051  0.1126  0.0451
11115W        W27299   1.496  17.514  14.820 -0.2118  0.1577  0.0057
11116W        W27300   1.493   4.933  13.382  0.3422 -0.0743 -0.0164
11117W        W27301  17.036  13.092  13.602 -0.0832 -0.3752 -0.1624
11118W        W27302   4.514   3.604   2.050 -0.0220 -0.2573  0.3944
11119W        W27303  18.681  13.173  11.363  0.2287  0.2740 -0.3003
11120W        W27304  18.871   8.029  14.714 -0.2260 -0.1561  0.0716
11121W        W27305   6.506  14.756   2.540 -0.0743  0.3931 -0.1345
11122W        W27306   0.475  14.380  12.096  0.5159  0.2635  0.2582
11123W        W27307   2.541  17.003   2.935 -0.3852 -0.1087 -0.1377
11124W        W27308   5.033  12.461   2.624 -0.2651 -0.1645  0.1838
11125W        W27309   9.523   9.446  14.253  0.0094  0.4783  0.1268
11126W        W27310   0.662   5.557  12.799  0.4019 -0.3216 -0.2662
11127W        W27311   0.652   6.746   0.491  0.2944  0.2386 -0.0511
11128W        W27312   7.044   9.755  11.699 -0.0946  0.2309  0.1209
11129W        W27313  12.041  13.164  10.645 -0.1714  0.0491 -0.0668
11130W        W27314  16.961   0.431   2.926  0.2869  0.1085 -0.0022
11131W        W27315  11.303   7.776  12.080  0.0887 -0.0424 -0.1249
11132W        W27316  18.694  15.375   0.000 -0.1131  0.0609 -0.0250
11133W        W27317  16.416   1.128   2.272  0.2263 -0.1790  0.0889
11134W        W27318  14.687   2.596   0.448  0.2438 -0.1867 -0.3757
11135W        W27319   1.794   6.589   1.252 -0.2908 -0.1068  0.3247
11136W        W27320  16.873   5.179   2.136 -0.0015  0.1243 -0.1138
11137W        W27321   4.489  17.179   0.351  0.3952 -0.4218  0.0647
11138W        W27322  16.369   7.779  13.336 -0.1991  0.4882 -0.0378
11139W        W27323   7.163   7.653  14.297 -0.0603 -0.0490 -0.1728
11140W        W27324   4.521   9.199  12.615 -0.1819  0.2174 -0.2439
11141W        W27325  13.019   7.188  14.818  0.0084 -0.2821  0.0092
11142W        W27326   2.138  12.343   5.048 -0.1067  0.2138 -0.1246
11143W        W27327  12.833   3.233   4.953 -0.1271 -0.0026  0.1137
11144W        W27328   8.565  10.796  13.668  0.0357 -0.1597  0.1279
11145W        W27329  18.045  16.660   1.299 -0.2042  0.0812 -0.1182
11146W        W27330  14.071   7.204  10.027  0.1558 -0.3160  0.2353
11147W        W27331  18.597   7.917   3.776 -0.0298  0.1447  0.1678
11148W        W27332  11.800  10.192  14.415  0.0878  0.1585 -0.2881
11149W        W27333  11.715  17.663  11.975 -0.2995 -0.0340 -0.3060
11150W        W27334   9.391  14.148  12.103  0.2637  0.0563  0.0704
11151W        W27335  12.882  17.680  12.346 -0.3819  0.3185  0.2106
11152W        W27336  11.685  14.726  14.390  0.4213  0.0208 -0.0755
11153W        W27337  12.820  18.650  12.022 -0.1745 -0.0582  0.2494
11154W        W27338   0.546   5.984  14.652  0.0657  0.1615 -0.1043
11155W        W27339  10.459   2.476   0.536  0.2127 -0.1642  0.0088
11156W        W27340   4.841   3.143   4.149 -0.2416 -0.1944 -0.1017
11157W        W27341   4.984  12.102  11.126 -0.1366 -0.1855 -0.1618
11158W        W27342   8.680  18.360   3.097  0.0311 -0.0706  0.0360
11159W        W27343   4.894  11.230   5.167  0.0223 -0.0070 -0.5809
11160W        W27344   1.861  11.680  14.548  0.0129  0.1799 -0.0145
11161W        W27345   8.045   0.520  13.699  0.1322  0.0642  0.1929
11162W        W27346  11.164  17.470   5.321  0.1020 -0.0451 -0.3052
11163W        W27347  14.492  11.729  10.871 -0.1196 -0.1070  0.0730
11164W        W27348   5.772  19.337   2.051  0.1007 -0.1337  0.2215
11165W        W27349   0.227   4.261  13.150  0.1079  0.2979 -0.0530
11166W        W27350  17.157   9.730   1.567 -0.0925 -0.1614  0.1660
11167W        W27351   0.887  13.866   4.303  0.2695  0.1358 -0.1011
11168W        W27352   6.837   1.145   2.748 -0.1407  0.1145 -0.2428
11169W        W27353  15.396  17.298   4.548 -0.0272  0.0964 -0.1256
11170W        W27354   7.328   1.176   3.000 -0.2559  0.4872 -0.2541
11171W        W27355   9.853  16.026  12.323  0.1292 -0.2174  0.0625
11172W        W27356   5.965  11.179   5.244  0.1506 -0.0083 -0.2499
11173W        W27357  15.234  14.153   2.221  0.0263  0.0122 -0.3740
11174W        W27358   7.274  14.092   0.985  0.1673  0.0623  0.0592
11175W        W27359  16.947  16.627   0.780  0.0869  0.0083 -0.3033
11176W        W27360  13.581  15.976  14.710  0.0416 -0.0543  0.0006
11177W        W27361  18.597  17.948   2.722  0.2264  0.1448 -0.1722
11178W        W27362   3.088  17.291  11.298  0.3744  0.2916  0.0575
11179W        W27363   9.410   2.584   1.565  0.0486 -0.0904 -0.0313
11180W        W27364  17.159   0.981  11.206 -0.0742 -0.6297 -0.1115
11181W        W27365   3.029  12.698   6.153  0.0957 -0.0380  0.2069
11182W        W27366  17.332   8.551   0.793 -0.0457 -0.1531  0.0169
11183W        W27367   4.369  18.034  11.536  0.2834 -0.0778  0.2412
11184W        W27368  10.939  16.519  14.845 -0.0448 -0.0222 -0.0894
11185W        W27369   8.202   8.415   1.646 -0.1975 -0.1668 -0.3475
11186W        W27370   5.608  10.823  11.925 -0.0237 -0.0290  0.0839
11187W        W27371   1.957  10.617  14.356 -0.4035 -0.0663 -0.0298
11188W        W27372   4.713   2.548   3.350  0.0709  0.1970  0.3427
11189W        W27373  10.081   2.475  13.138  0.0558  0.0816 -0.2470
11190W        W27374  13.828  13.113   1.469 -0.0643 -0.2262 -0.0813
11191W        W27375   6.018  16.718  10.614 -0.0224  0.3158 -0.1057
11192W        W27376  11.433  11.415   5.037 -0.1328 -0.1597  0.1522
11193W        W27377   6.124  14.617  10.431 -0.2168 -0.0924  0.1271
11194W        W27378  14.017  17.642  13.018 -0.1247 -0.4956  0.1477
11195W        W27379   0.766  18.083   3.767  0.1610 -0.1844 -0.1367
11196W        W27380  18.816   1.379  13.535 -0.0645 -0.1685  0.1721
11197W        W27381  18.753   1.768   3.681 -0.2377  0.0163  0.2607
11198W        W27382  12.021   9.193  11.713 -0.1616 -0.0172 -0.0816
11199W        W27383  10.533   9.091  10.893 -0.1147  0.3043 -0.0928
11200W        W27384  16.387  13.900   5.291  0.1960 -0.3383 -0.3004
11201W        W27385   4.471   2.191   0.863 -0.3596  0.0006 -0.1599
11202W        W27386   2.991   2.762  12.317 -0.0092 -0.0511  0.1555
11203W        W27387   8.647   9.601  14.643  0.0748 -0.2281 -0.1072
11204W        W27388   0.278  18.716   0.343  0.2352 -0.0675  0.1514
11205W        W27389  16.911  17.164   5.242 -0.0997 -0.3964  0.2257
11206W        W27390   5.928  11.615   3.713 -0.2302  0.0381 -0.3405
11207W        W27391  18.599   9.165   3.785  0.0567 -0.2951 -0.3591
11208W        W27392   2.791   8.552   0.058 -0.1605 -0.3087  0.4817
11209W        W27393   4.422  12.717   3.729 -0.1008 -0.0497  0.1274
11210W        W27394  12.263   6.879   3.136  0.0465 -0.3489 -0.1029
11211W        W27395   8.799  17.096   1.271  0.0232  0.2702  0.0006
11212W        W27396   2.148   8.806   2.240 -0.1302 -0.1547 -0.0634
11213W        W27397  17.854  10.716   2.946 -0.1810 -0.0461  0.0501
11214W        W27398  14.662  11.891  14.386 -0.0070  0.1210 -0.0570
11215W        W27399   1.173   6.022  11.735  0.3170  0.1632  0.0105
11216W        W27400  17.657  18.163  11.928  0.1527 -0.2053 -0.0068
11217W        W27401  11.049  13.606  11.833 -0.1527  0.0690  0.2447
11218W        W27402  10.814  12.076   2.631  0.0039 -0.0387 -0.3643
11219W        W27403  11.746   5.107   4.432 -0.1894  0.2417 -0.0079
11220W        W27404  14.179   1.186   0.861  0.0588 -0.1473  0.1811
11221W        W27405  15.936  13.333  14.076  0.0958  0.0805 -0.0741
11222W        W27406   6.774  11.342   4.693  0.0880 -0.0665 -0.1943
11223W        W27407  11.648   2.401   0.051 -0.0049  0.0255  0.1927
11224W        W27408   3.678   8.714   3.160  0.0172  0.1609  0.0193
11225W        W27409  19.369  12.587   5.191 -0.4188 -0.0253  0.2483
11226W        W27410  10.461   9.705   4.913 -0.0148  0.1382  0.1687
11227W        W27411  13.790  17.994  11.967  0.0076  0.1634 -0.0722
11228W        W27412  16.997   4.795  14.757  0.1489 -0.0736  0.1840
11229W        W27413   8.591   8.237  13.094 -0.0069 -0.2103 -0.1075
11230W        W27414  14.308  16.887   1.115  0.0842  0.2120 -0.1622
11231W        W27415  12.462   2.247  14.245  0.2680 -0.1716 -0.0188
11232W        W27416  15.594   6.244  12.815 -0.0664  0.1611  0.1717
11233W        W27417  18.963   5.306   3.847  0.2528  0.0978 -0.0193
11234W        W27418   6.129   8.862  11.015 -0.0871  0.0487  0.0625
11235W        W27419   0.125   7.288   4.350 -0.3095 -0.0292  0.0381
11236W        W27420   0.144   2.909  10.298  0.0375 -0.2272 -0.4204
11237W        W27421   2.559  12.335   1.854 -0.3021  0.1495 -0.0367
11238W        W27422   6.538   0.456   4.181 -0.1088  0.3702 -0.0437
11239W        W27423  16.246  15.131  10.312  0.1468 -0.2586 -0.0934
11240W        W27424   4.189  15.902  12.250 -0.0482 -0.0227 -0.0474
11241W        W27425   5.574  17.255  14.283 -0.2316  0.0445  0.4768
11242W        W27426   6.196  10.198   1.036 -0.1132 -0.0268  0.1300
11243W        W27427   6.651  12.025  10.586 -0.2749 -0.0261  0.2770
11244W        W27428   2.748   3.100   5.210 -0.0692  0.1678 -0.0509
11245W        W27429   5.683   6.381   1.656 -0.3065  0.1150  0.1408
11246W        W27430  17.772   3.205  13.358 -0.0387  0.1002  0.0542
11247W        W27431  10.775   8.277  11.959 -0.2315  0.3300 -0.1162
11248W        W27432   6.366  13.112   2.210 -0.1963  0.0490 -0.2476
11249W        W27433   5.607  10.804   5.202 -0.0032  0.2641 -0.1413
11250W        W27434  17.981   4.513   0.365  0.1180  0.0785  0.0557
11251W        W27435  15.754  15.568   0.148  0.0296  0.0321  0.1435
11252W        W27436   5.905   0.127   1.156  0.0080 -0.3351 -0.2237
11253W        W27437  14.522   2.229  11.710  0.0146 -0.1894  0.1448
11254W        W27438   4.522   1.493  13.008  0.2109  0.1646 -0.0155
11255W        W27439   9.133  16.840   1.524 -0.0384 -0.0133 -0.0128
11256W        W27440  14.483  16.991   0.661  0.0036 -0.0938 -0.0647
11257W        W27441  16.426   3.499  10.485 -0.0300  0.0343  0.0711
11258W        W27442   5.225  15.241   5.252 -0.0423  0.0180  0.0507
11259W        W27443   0.651  15.366   1.861  0.0890 -0.3574  0.0424
11260W        W27444  17.082   9.668   4.692  0.1484  0.3382 -0.2939
11261W        W27445   5.104  18.934  10.010  0.1149  0.1475 -0.0876
11262W        W27446   1.204  17.759   2.656 -0.2353  0.2279 -0.0610
11263W        W27447  12.968  11.070   4.392  0.2213  0.0238 -0.0459
11264W        W27448   2.414  13.348   0.286  0.2976  0.0093 -0.2482
11265W        W27449   2.969   1.203   5.355 -0.2695  0.1272  0.0877
11266W        W27450   0.703  12.991  13.089 -0.1726 -0.1758  0.1115
11267W        W27451  14.314  10.483  12.148 -0.0935 -0.1913 -0.1588
11268W        W27452  11.482  13.698   2.838  0.1037  0.0549  0.0457
11269W        W27453  16.342  18.028   2.932 -0.0964 -0.0169 -0.1858
11270W        W27454   9.952  15.211   0.966 -0.0569  0.0504 -0.2778
11271W        W27455  12.934  18.891  14.858  0.0496  0.0685  0.3175
11272W        W27456   0.653   6.449   5.549 -0.1830  0.0955  0.0945
11273W        W27457  15.441  16.457   0.058  0.1969 -0.2222 -0.0346
11274W        W27458   6.936  14.624  14.459 -0.3601 -0.1887 -0.0365
11275W        W27459  17.554  13.250   4.288  0.0748 -0.0785  0.3892
11276W        W27460   1.697   3.817   3.897  0.3388  0.3630 -0.1588
11277W        W27461   3.187  19.261   5.158  0.2849  0.0966 -0.2879
11278W        W27462  10.445  18.162   3.276  0.3967  0.1168 -0.1964
11279W        W27463   5.854  14.492   2.563 -0.0221 -0.1642 -0.4665
11280W        W27464  18.616  12.453  10.672  0.2396 -0.1504 -0.1625
11281W        W27465   3.426  16.761   0.188  0.0255  0.0394 -0.1497
11282W        W27466  15.959   0.425  14.243  0.4846 -0.1195 -0.1576
11283W        W27467   8.555  15.788   2.036 -0.0395 -0.0116  0.1522
11284W        W27468  11.018  12.973   2.820 -0.3202 -0.3028  0.1612
11285W        W27469   2.095  11.912  13.691  0.0927 -0.1014 -0.1311
11286W        W27470   1.465   8.630  13.171 -0.0240  0.1456  0.3120
11287W        W27471  18.545   5.201  11.097  0.2957 -0.1632  0.0953
11288W        W27472  19.346   5.720  10.774 -0.3418 -0.1197  0.1276
11289W        W27473   0.380   2.780   3.173  0.1909  0.1891 -0.3253
11290W        W27474  18.868   5.711  10.852  0.1747 -0.2669 -0.2958
11291W        W27475   1.237  12.437   0.665 -0.1642 -0.3269 -0.1843
11292W        W27476  10.495   2.037   2.086 -0.0577  0.1629  0.2388
11293W        W27477   7.680  16.991   5.186 -0.2391  0.1323  0.3059
11294W        W27478  11.295  16.032   0.065 -0.0541  0.6313  0.0418
11295W        W27479  18.878   6.819   3.503  0.2916  0.0698  0.1147
11296W        W27480   0.036   2.602  14.378 -0.0308  0.0730  0.0583
11297W        W27481  17.361   0.279   4.939  0.0553 -0.0994 -0.0287
11298W        W27482  13.475   1.977  12.443  0.1915 -0.2965  0.1967
11299W        W27483  13.751   5.740   2.503 -0.2176  0.0758  0.1738
11300W        W27484  10.509   0.063   3.696  0.0170  0.0889 -0.0635
11301W        W27485  19.107   5.426   5.091  0.2464  0.2265  0.1185
11302W        W27486   0.008  16.787  11.532  0.0667  0.0326  0.1277
11303W        W27487  16.459  19.152  14.049 -0.0081  0.0092  0.0839
11304W        W27488   5.605   0.094  12.251  0.0767  0.0156  0.1396
11305W        W27489   5.006  17.485  11.773 -0.3896  0.2862  0.0457
11306W        W27490  10.958   8.932   1.024 -0.0489 -0.2948 -0.0368
11307W        W27491   2.454   0.608  12.048 -0.0570  0.1456 -0.1832
11308W        W27492  11.923  16.169  13.421 -0.0757 -0.0861 -0.2156
11309W        W27493  15.237   6.582  13.684  0.1554  0.1833  0.1328
11310W        W27494   6.133  10.093  13.049  0.1157 -0.1976  0.2074
11311W        W27495   9.042  11.649   2.398  0.1198 -0.0861  0.1077
11312W        W27496  10.484   1.819   9.772  0.2306  0.0811  0.1134
11313W        W27497   6.728  15.090   3.094  0.1876 -0.1011 -0.1674
11314W        W27498  15.791  16.854   1.301  0.0365 -0.2126 -0.1347
11315W        W27499   8.135  17.254   3.372 -0.2814  0.2156  0.0459
11316W        W27500   6.852  11.177  13.196  0.1178  0.0041  0.5595
11317W        W27501  11.923  15.755   3.908 -0.0836 -0.4360  0.1598
11318W        W27502  10.221   9.626   3.787 -0.1672  0.1079  0.2424
11319W        W27503   8.830  18.317   0.075 -0.0927  0.0902 -0.1302
11320W        W27504  15.463  12.406  12.130 -0.2299 -0.1481  0.0790
11321W        W27505   0.191  13.749  14.640  0.1984 -0.3147  0.5257
11322W        W27506   4.469   6.310  10.336  0.0104 -0.3272 -0.0313
11323W        W27507  10.898   9.842  11.260 -0.0798 -0.0054 -0.1355
11324W        W27508  10.309  13.535   2.876  0.1265  0.0841 -0.0131
11325W        W27509  11.445  15.553  12.485  0.1435 -0.1494 -0.1883
11326W        W27510   1.985   1.485   5.423  0.2012 -0.0679  0.2087
11327W        W27511   2.233   3.150   0.472 -0.1500 -0.1114 -0.0700
11328W        W27512   9.018   7.229   4.382  0.0343  0.2501  0.2609
11329W        W27513   5.958   2.647   2.424 -0.0951 -0.2414 -0.2267
11330W        W27514   3.619  12.384   2.712 -0.0317  0.0213  0.1841
11331W        W27515   5.707   5.335   5.868  0.1901  0.2185 -0.0766
11332W        W27516  17.630  12.528   2.686  0.1137  0.1878  0.4660
11333W        W27517  12.254  13.834   1.588  0.0576  0.4428  0.2485
11334W        W27518   0.148   0.136  13.582  0.0458 -0.2277  0.0358
11335W        W27519   5.185  18.625   0.595 -0.2449 -0.2516 -0.2485
11336W        W27520   0.299   9.536   1.424 -0.4948 -0.0556  0.1148
11337W        W27521   2.613  11.656   3.118 -0.2166  0.0386  0.1324
11338W        W27522   0.604   3.401  10.777 -0.0293  0.0298  0.2601
11339W        W27523   2.912   4.187  11.831 -0.0405  0.0594  0.1465
11340W        W27524  15.666   5.182   1.280  0.2996 -0.3248  0.2151
11341W        W27525   2.834  10.292   0.212  0.0626  0.1426 -0.0735
11342W        W27526   2.206  15.052  14.355 -0.3840 -0.2279  0.6284
11343W        W27527  10.022  11.921   4.894 -0.2693 -0.2959 -0.0619
11344W        W27528  10.570   9.826   1.554 -0.3020  0.2071 -0.0366
11345W        W27529   4.121  18.173   1.502  0.0439 -0.0199  0.0846
11346W        W27530   9.498  12.808  13.332  0.0054  0.2232  0.0367
11347W        W27531  14.812   7.427   2.504  0.1162 -0.1065 -0.1633
11348W        W27532  12.612  17.147  11.151 -0.1065 -0.2888  0.0826
11349W        W27533   9.931   3.945  14.436  0.1279  0.1066  0.2348
11350W        W27534   6.697   1.776  11.715  0.0740  0.2540  0.1173
11351W        W27535  13.612  19.074   1.216  0.0046 -0.0174  0.0278
11352W        W27536  14.611  18.393   1.106  0.3189 -0.3584 -0.0455
11353W        W27537  13.746   7.174   0.032 -0.1036 -0.2199 -0.0623
11354W        W27538  15.307   0.689  12.394 -0.0336 -0.0464  0.1832
11355W        W27539   4.776   7.994   2.770  0.0354 -0.0173  0.1707
11356W        W27540  14.469   8.078   4.294 -0.2812 -0.2473  0.2600
11357W        W27541   5.305  13.814  11.362 -0.0271 -0.2091 -0.1009
11358W        W27542  18.179  17.753   3.876  0.1859  0.1411  0.0525
11359W        W27543   7.328   3.528  12.243  0.1934 -0.0601  0.1569
11360W        W27544  14.089  13.563  13.818  0.0861 -0.0397 -0.3644
11361W        W27545  15.684  19.153  10.911 -0.2422 -0.1049  0.1053
11362W        W27546  17.330  19.288   4.406 -0.2816 -0.0567  0.2932
11363W        W27547  12.422  18.818  12.358 -0.0084 -0.1475 -0.0886
11364W        W27548   9.408   3.614  12.587 -0.0740 -0.1776 -0.1570
11365W        W27549   4.469   2.076   4.167 -0.3645  0.0013  0.1491
11366W        W27550  15.196  12.691   1.343 -0.0853  0.1359 -0.0782
11367W        W27551  11.394  10.007   2.914 -0.1603 -0.0906 -0.1183
11368W        W27552   9.139   0.130   4.168 -0.0381  0.5507 -0.1859
11369W        W27553  12.771  16.271   2.574  0.0002 -0.1729 -0.1300
11370W        W27554   1.726  14.357   0.241 -0.0085  0.1485 -0.1450
11371W        W27555  12.990   5.313  10.335 -0.2079  0.1614  0.2566
11372W        W27556   2.042   3.646  14.156  0.3514  0.0117 -0.0360
11373W        W27557   4.314   7.259   1.337 -0.4001  0.1104  0.0098
11374W        W27558   9.345  16.428   4.503  0.0368 -0.0431  0.2292
11375W        W27559  11.594  18.640   3.847  0.0430 -0.3310 -0.0895
11376W        W27560  11.998   3.200   0.253 -0.4542 -0.0645 -0.0742
11377W        W27561   1.433  17.291  13.043  0.1192 -0.0532 -0.0172
11378W        W27562  16.265  15.590  13.545 -0.1335 -0.2377 -0.2394
11379W        W27563   0.905   6.973   3.146 -0.3382  0.1091  0.1326
11380W        W27564  10.023  10.531  10.631 -0.0583 -0.0410 -0.2363
11381W        W27565  14.055  12.020  12.656  0.0651  0.1218 -0.0244
11382W        W27566   6.495  19.051   4.225 -0.4861 -0.3668  0.2364
11383W        W27567   6.231  12.486   0.185  0.0403  0.3182 -0.1230
11384W        W27568   9.295   8.921   1.218 -0.1745  0.0577 -0.1241
11385W        W27569  12.700   3.085  13.208 -0.1811  0.4182 -0.1563
11386W        W27570   8.615  18.325  14.305 -0.0348  0.1900  0.3538
11387W        W27571   9.022  11.795   0.647 -0.1887 -0.2477  0.2689
11388W        W27572   4.703  10.096   5.220  0.1530  0.0314  0.1433
11389W        W27573  13.191   6.432  14.116  0.0949  0.0288  0.1269
11390W        W27574  15.941  11.002  14.734 -0.0416 -0.1285  0.3680
11391W        W27575  10.761  11.684   4.358  0.3790 -0.0283 -0.0643
11392W        W27576   0.785   1.714   0.394  0.2816  0.1010 -0.4858
11393W        W27577  10.036  17.865  12.938  0.3615 -0.0152  0.1880
11394W        W27578  12.188  18.353   1.648 -0.1116  0.0279 -0.1615
11395W        W27579   7.356   8.351  13.505  0.0961  0.0342 -0.0068
11396W        W27580   4.824  19.309   4.742 -0.0910  0.2342 -0.3165
11397W        W27581   3.120  10.126   5.412 -0.0216  0.4088  0.1173
11398W        W27582  11.224   4.994   4.260 -0.0917 -0.3509  0.1725
11399W        W27583   1.624   8.175   4.871 -0.4145  0.0190  0.1395
11400W        W27584  17.742   3.682  12.363  0.1180 -0.0907  0.1618
11401W        W27585  17.487   3.287   0.606  0.1838  0.1007 -0.1211
11402W        W27586  18.433  10.970   3.969 -0.1382  0.4247  0.3073
11403W        W27587  11.321  17.433   3.254  0.0094  0.2261 -0.0323
11404W        W27588   4.160   4.416   2.418  0.2037  0.1063 -0.1451
11405W        W27589  13.210  15.761   0.130 -0.0631  0.0758  0.0751
11406W        W27590   3.037   2.289  12.138 -0.1347  0.0352  0.0224
11407W        W27591   6.129   8.917   2.788  0.2650 -0.3999 -0.1513
11408W        W27592   4.524   6.266  13.723 -0.0810 -0.0360  0.0536
11409W        W27593  17.378  18.009  13.789  0.0089  0.1452  0.0067
11410W        W27594  16.155   7.797  11.136  0.1599  0.2236 -0.0164
11411W        W27595  16.223   5.952   1.457  0.0885  0.4014 -0.0666
11412W        W27596  18.564   1.272   2.857  0.0382 -0.3853 -0.1129
11413W        W27597  17.998  14.277   3.262  0.0333 -0.4542 -0.1266
11414W        W27598  14.817   6.701   3.290  0.1035 -0.0074 -0.1615
11415W        W27599  16.335   7.911   4.217  0.0207 -0.0475 -0.1234
11416W        W27600   0.490  16.077   0.191 -0.0048 -0.1942 -0.0990
11417W        W27601   4.670  13.101   3.587  0.2132 -0.1687 -0.2569
11418W        W27602  17.619   0.012  12.521 -0.0386  0.2799  0.0883
11419W        W27603  14.674   8.830   1.957  0.1489 -0.1866 -0.1820
11420W        W27604  12.666   1.384   3.837  0.0571 -0.0327 -0.2051
11421W        W27605   9.761   0.876   1.272 -0.0636 -0.1317  0.1910
11422W        W27606  12.282  15.586  14.851 -0.0163 -0.3019 -0.1951
11423W        W27607  15.922  11.682  13.686 -0.0717 -0.1006 -0.2641
11424W        W27608   0.270  12.837  10.460  0.0448 -0.0328 -0.3521
11425W        W27609   4.671   1.951   1.455 -0.1913 -0.1593 -0.2347
11426W        W27610   0.696   6.025   5.892  0.1312  0.2544 -0.1225
11427W        W27611  10.919   2.785  14.561 -0.0225 -0.0004  0.1558
11428W        W27612  19.311  13.907   2.914 -0.1938 -0.3504  0.0961
11429W        W27613  16.161  18.579  13.094 -0.0697  0.0434  0.1212
11430W        W27614   2.137   0.120   0.111  0.4303  0.1078  0.2157
11431W        W27615  11.984   3.490   5.125  0.1158 -0.0551  0.1038
11432W        W27616  11.079   2.327  14.695 -0.2054  0.0124 -0.0783
11433W        W27617  19.330   0.151   0.609 -0.0462 -0.0980  0.2161
11434W        W27618  14.074   8.470   1.303 -0.2349  0.0767  0.1464
11435W        W27619   6.172  18.545   2.150  0.4473 -0.1125  0.1058
11436W        W27620  11.177  16.984  11.505 -0.0244 -0.0581  0.1479
11437W        W27621   8.816   8.710   2.076  0.2861 -0.0080 -0.0886
11438W        W27622   9.171  18.866  10.715 -0.0200 -0.1257  0.0008
11439W        W27623  17.393   9.522  13.683  0.4718 -0.0147  0.1401
11440W        W27624   4.501  13.635  10.359  0.4882 -0.0587 -0.1250
11441W        W27625   1.116   1.279   4.169 -0.0479 -0.0113 -0.0930
11442W        W27626  12.924   9.954   0.809  0.3146  0.1570  0.5868
11443W        W27627   1.397   5.789   0.946 -0.0621  0.2762 -0.1307
11444W        W27628  18.608  10.527  11.253 -0.1140 -0.1397  0.1239
11445W        W27629   2.200  10.366  11.279 -0.0894 -0.2021 -0.0245
11446W        W27630  11.600  13.234  10.449  0.0838 -0.1425 -0.0438
11447W        W27631   5.072   6.082  12.594  0.1076 -0.0647  0.4582
11448W        W27632   5.477  10.824  12.897 -0.1080 -0.0179  0.0268
11449W        W27633  14.541   9.441   2.582  0.3924  0.1940 -0.0320
11450W        W27634  17.845   7.889   4.474 -0.1229 -0.0972 -0.1234
11451W        W27635   8.384  12.621   1.105  0.0395  0.0209 -0.0560
11452W        W27636  18.680  18.686   9.019 -0.6230 -0.2532 -0.0281
11453W        W27637  15.026  13.884   9.169 -0.0555  0.0685  0.0992
11454W        W27638   5.815   6.896   1.709 -0.0725  0.1985  0.3613
11455W        W27639   4.674   0.019  13.449  0.1826 -0.0969  0.2335
11456W        W27640   8.611   3.308   2.045  0.1114 -0.0160  0.1072
11457W        W27641  16.704  18.187  14.647  0.3907  0.3630  0.3130
11458W        W27642  17.078   7.600  11.144  0.1909  0.1804 -0.2192
11459W        W27643  13.321   0.632   3.325 -0.0663  0.0073  0.1150
11460W        W27644  14.385   2.365  12.684 -0.2731 -0.0173 -0.1242
11461W        W27645   3.814   4.229   2.096  0.0441 -0.1451  0.0135
11462W        W27646  10.124  10.486  11.168 -0.3643  0.1981  0.0530
11463W        W27647   7.212   1.845  11.691 -0.2009  0.0179  0.2173
11464W        W27648  16.447   4.389  12.579 -0.2438  0.0009  0.2716
11465W        W27649  15.282  10.663   3.670 -0.1447 -0.3946 -0.1390
11466W        W27650  15.259   5.802   1.366 -0.1094  0.0993  0.2845
11467W        W27651  15.838  16.683  10.657  0.7489  0.0886  0.0597
11468W        W27652   0.494   5.159   4.691  0.0414 -0.3791 -0.1832
11469W        W27653   3.830  16.586   1.615  0.0474 -0.0973 -0.0088
11470W        W27654   4.235  18.129  11.058  0.2206 -0.2275 -0.5249
11471W        W27655   0.137   3.279   1.078  0.2727 -0.0014 -0.2415
11472W        W27656  10.019   6.940   2.851 -0.1177  0.1512 -0.2149
11473W        W27657  14.462   2.304   1.458 -0.0430 -0.1503  0.0387
11474W        W27658   6.856   3.994  14.102  0.0311 -0.1700  0.1565
11475W        W27659   8.322  11.683  11.300 -0.0856 -0.0483 -0.1745
11476W        W27660   0.305  15.240   3.799  0.1847  0.1476  0.1768
11477W        W27661  18.246   0.703   3.565  0.1522 -0.2274 -0.1446
11478W        W27662  14.641   2.449  13.892 -0.3275 -0.1800  0.2523
11479W        W27663   2.792  15.709  14.190 -0.2792  0.2141  0.1272
11480W        W27664   2.208  11.656   3.503 -0.0015 -0.0530 -0.2426
11481W        W27665   5.432   2.721   2.017  0.1013  0.1722 -0.0012
11482W        W27666  16.997  18.058  13.104 -0.1060 -0.3371  0.2595
11483W        W27667   6.465  17.559   2.039 -0.0265 -0.1836  0.0816
11484W        W27668  12.005   0.794  11.577 -0.1130  0.1861  0.0765
11485W        W27669   4.271   7.080   1.953  0.0237 -0.0082 -0.0313
11486W        W27670  14.211  10.191  11.439  0.1175 -0.1513 -0.0963
11487W        W27671  14.255   2.761   0.186 -0.0687 -0.1448  0.0445
11488W        W27672   6.061   9.704  11.681  0.0896 -0.2264 -0.0361
11489W        W27673  15.703  16.233   4.073 -0.2276  0.1389 -0.0732
11490W        W27674   9.221   9.053   1.738  0.1750 -0.1888  0.0437
11491W        W27675  10.317   1.517   4.509 -0.0677 -0.0248  0.3599
11492W        W27676   2.790   9.367   2.832  0.0158  0.1158 -0.2643
11493W        W27677  16.572  18.319  13.232 -0.1401 -0.2870 -0.0351
11494W        W27678   7.232   5.870  13.193  0.0558  0.0680  0.0310
11495W        W27679   3.105  16.722  14.162  0.2983  0.0371 -0.0149
11496W        W27680   5.613   8.464  12.560 -0.0354  0.3631  0.0197
11497W        W27681   2.886  12.792   2.037  0.2509  0.2585  0.0265
11498W        W27682  11.007  13.831   4.298 -0.0292 -0.0255 -0.3283
11499W        W27683  10.662   4.499   1.637  0.0494 -0.0563 -0.1741
11500W        W27684  17.372  11.790  13.471  0.2421  0.0951 -0.4590
11501W        W27685  16.477  17.885  13.890  0.0948  0.1883  0.3260
11502W        W27686  10.131  12.153  11.155 -0.2494  0.0441  0.3748
11503W        W27687  10.067  12.489   0.868 -0.2250  0.0391 -0.0638
11504W        W27688  13.526   0.950   9.919 -0.2613  0.1524  0.0342
11505W        W27689  14.915  12.203   5.084  0.2384  0.1991 -0.4109
11506W        W27690   6.186   6.167   4.679  0.1376  0.1803 -0.2905
11507W        W27691  10.934   0.466  13.728  0.2554  0.1001  0.0435
11508W        W27692   5.078  12.061  11.716  0.2994 -0.0442  0.0571
11509W        W27693   0.258  15.387   2.711  0.0803 -0.1477 -0.0105
11510W        W27694   9.620  18.791  10.936  0.3539 -0.3182  0.0133
11511W        W27695   1.331  15.566   1.753 -0.2871 -0.1563 -0.0862
11512W        W27696  14.926  14.373   0.068 -0.0360 -0.0347  0.0288
11513W        W27697  16.060  16.254   2.520 -0.1079  0.1725  0.3013
11514W        W27698  14.940  14.675   2.226  0.1024  0.2436  0.0109
11515W        W27699  11.312  11.999   1.164 -0.1523  0.1281 -0.2494
11516W        W27700  18.097  19.077  13.716  0.4810  0.0600  0.0416
11517W        W27701   4.341   8.116  13.115  0.1517 -0.0337  0.1233
11518W        W27702   6.966   1.796  12.156 -0.1744 -0.1866 -0.1796
11519W        W27703  11.595  16.084   3.490  0.2831 -0.0736 -0.1973
11520W        W27704  19.100  15.248   2.460  0.2362 -0.0243  0.2144
11521W        W27705   9.641   0.694  13.594  0.0016  0.2096  0.0375
11522W        W27706  18.463   9.991   3.502 -0.1532 -0.1956 -0.4075
11523W        W27707  16.464   3.245   1.948 -0.2254 -0.1123 -0.1536
11524W        W27708   1.378   8.104  12.957  0.0072  0.0917 -0.1692
11525W        W27709   2.838  12.757  14.503 -0.4129  0.1592  0.0764
11526W        W27710  10.799   9.963  14.575  0.0367 -0.0467 -0.2883
11527W        W27711   3.688   0.260  14.803 -0.1721  0.0262  0.1819
11528W        W27712   4.170   4.004   2.729  0.2560 -0.1784  0.0618
11529W        W27713   3.035  17.224  14.152  0.0489  0.0128  0.1055
11530W        W27714  10.414  18.045  12.565 -0.2629 -0.0591  0.0176
11531W        W27715   1.173   8.735  11.514  0.1490  0.1515  0.0583
11532W        W27716  17.579  15.037  13.725  0.0188 -0.0092  0.0300
11533W        W27717   1.948  16.558   4.051 -0.0561 -0.0873  0.1366
11534W        W27718   6.476   6.547   2.811 -0.0752 -0.1300  0.0239
11535W        W27719  12.144  12.884  11.049  0.6124  0.1517 -0.2818
11536W        W27720  12.035  17.877  14.576  0.0841  0.0063 -0.0344
11537W        W27721  19.164   5.607   2.029 -0.0187 -0.1844 -0.1205
11538W        W27722   1.288  13.718  13.815  0.3025 -0.1060  0.0075
11539W        W27723   2.762  13.054  10.387  0.3113  0.2007 -0.1516
11540W        W27724  15.983  16.747   9.545 -0.1533  0.3286  0.2863
11541W        W27725   2.559   0.594   1.518  0.1276 -0.2226  0.1027
11542W        W27726   1.155  13.388   4.125 -0.0009 -0.1761 -0.0654
11543W        W27727  18.348  10.655   2.851 -0.0557  0.3554 -0.1819
11544W        W27728   7.332  17.904  13.199  0.3510 -0.0072  0.2721
11545W        W27729   5.258   2.149  14.831 -0.1600 -0.1202  0.0605
11546W        W27730   4.413  10.485   0.930  0.0607  0.1010 -0.0591
11547W        W27731  19.054  19.211   2.400  0.1891 -0.1671  0.0700
11548W        W27732   3.321  14.859   3.101  0.1285  0.5780  0.0091
11549W        W27733  12.697  12.302   1.896  0.0920  0.4631  0.0388
11550W        W27734   7.620  12.060  13.368  0.2491  0.3912  0.3984
11551W        W27735   9.394   0.176   2.029  0.2465  0.0256  0.2982
11552W        W27736   6.704  13.792   4.656 -0.2126  0.0515  0.2963
11553W        W27737  13.598  14.790  11.113  0.3028  0.2865  0.0153
11554W        W27738   2.144  17.988   4.536 -0.2126 -0.0260 -0.2939
11555W        W27739  11.927   3.792   3.696 -0.3262 -0.2214  0.2180
11556W        W27740  10.294   5.698  10.265 -0.0515 -0.0712  0.3227
11557W        W27741   2.863   4.237  12.286 -0.0047 -0.1279 -0.4985
11558W        W27742   8.029   4.516  13.738  0.0878 -0.1366  0.0720
11559W        W27743   2.638   9.790   1.154 -0.0968 -0.1931  0.0473
11560W        W27744  18.956  18.677  14.405 -0.1755 -0.3098  0.0277
11561W        W27745  15.736  14.209   3.663  0.0796 -0.0219  0.0013
11562W        W27746  11.551   6.891  13.040  0.0546  0.3326  0.5455
11563W        W27747  16.773  14.705   4.552  0.0963 -0.0657 -0.2933
11564W        W27748  15.131   0.582  11.123 -0.1740 -0.1120  0.4231
11565W        W27749   4.330  10.714   2.952  0.0444 -0.0203  0.0725
11566W        W27750   6.946  15.175  14.409  0.1347  0.4645 -0.3749
11567W        W27751   6.135   6.537   1.497  0.0831 -0.3888 -0.0796
11568W        W27752  14.471   1.242  13.543 -0.0712 -0.1087  0.0802
11569W        W27753   9.886   9.581  12.758 -0.0119  0.2235  0.1324
11570W        W27754   4.143   5.116  10.874 -0.0678  0.2448  0.1469
11571W        W27755  12.996   6.446  11.130 -0.2629 -0.0562  0.1784
11572W        W27756  18.071   1.542  11.413 -0.0462  0.1602  0.0782
11573W        W27757   4.660   6.181  10.910  0.1217  0.0021  0.0623
11574W        W27758   0.540   0.406  10.746  0.2122  0.0577 -0.0310
11575W        W27759  18.607   2.652   1.862  0.0708 -0.2290  0.1078
11576W        W27760   9.848  12.767   4.554 -0.0937  0.6194 -0.1301
11577W        W27761  11.087   9.930   1.850  0.0107  0.0518 -0.2312
11578W        W27762  12.305   4.063   0.863  0.1768  0.1991 -0.0372
11579W        W27763   0.981  16.320   0.258 -0.2566 -0.2727 -0.0809
11580W        W27764  19.248  16.337  10.941 -0.1523 -0.0442 -0.1484
11581W        W27765  10.875  15.757   0.172 -0.0049 -0.0318  0.1905
11582W        W27766  18.999  10.474   2.027  0.1310 -0.1597 -0.1544
11583W        W27767   6.335   2.600  13.852 -0.1501 -0.0650 -0.1379
11584W        W27768  17.991  18.575   4.326  0.0729 -0.1328  0.0872
11585W        W27769  10.641   5.159  11.436 -0.3026  0.0722 -0.1457
11586W        W27770  10.136   9.107   1.055 -0.1139  0.0666  0.2926
11587W        W27771  10.997   2.550  12.759 -0.2391 -0.1653  0.3985
11588W        W27772   5.307   1.497   2.674 -0.1543 -0.4500  0.2466
11589W        W27773  11.097  14.488   3.294 -0.1234  0.2883 -0.0871
11590W        W27774   5.327   2.524   4.221  0.2684 -0.0633  0.0764
11591W        W27775  14.859   3.960   4.054 -0.0738  0.0905  0.1020
11592W        W27776  15.633  12.571   2.143 -0.1044 -0.1896 -0.1177
11593W        W27777   5.059   9.396  12.796  0.2216 -0.3951  0.0064
11594W        W27778  16.438  19.265   4.596 -0.1223  0.0335 -0.1488
11595W        W27779  15.313  13.987   5.508 -0.0132  0.0076 -0.0329
11596W        W27780  11.444  17.990  12.828 -0.2104  0.1473 -0.0407
11597W        W27781   3.709   7.292  13.544 -0.1694 -0.0006  0.0525
11598W        W27782  18.807   1.246  10.363  0.0945 -0.3164  0.0430
11599W        W27783   2.197   2.455   1.149 -0.1873 -0.0129 -0.1014
11600W        W27784   2.959  11.348   3.913 -0.0899  0.2683  0.0062
11601W        W27785  15.902  16.512  13.143 -0.0884  0.0740 -0.0216
11602W        W27786  14.352  15.839   2.698  0.1514  0.1703 -0.0390
11603W        W27787  12.350  16.743  10.934 -0.3243  0.2751  0.0224
11604W        W27788  19.190  16.440  14.738 -0.1101  0.0255 -0.3703
11605W        W27789   8.418   2.804   9.917  0.0502  0.0392 -0.0278
11606W        W27790  10.198   0.731  13.105  0.0337  0.1376 -0.2847
11607W        W27791  11.145  10.488  10.143  0.2388 -0.2737  0.0162
11608W        W27792   1.114  16.427  10.900  0.0226  0.5230  0.1964
11609W        W27793  13.520   6.558  10.483 -0.0536 -0.0165  0.0683
11610W        W27794  14.482   5.615   1.971  0.0163  0.1768 -0.1761
11611W        W27795   9.936   9.594   2.083  0.2381 -0.1269  0.0451
11612W        W27796  14.119  13.087   2.189 -0.0259  0.2510  0.1193
11613W        W27797   3.284   6.186  14.296  0.0024 -0.1029 -0.3563
11614W        W27798  19.100  18.477  11.939  0.1793  0.1393  0.1593
11615W        W27799   0.209  13.030   5.628  0.1989  0.1314 -0.2185
11616W        W27800  12.180   2.693   1.447 -0.1950 -0.0588 -0.0072
11617W        W27801  10.278  10.044   1.176 -0.1565  0.1216 -0.1868
11618W        W27802   6.570   0.318   3.723  0.0199  0.0027 -0.0871
11619W        W27803   5.574  14.930   2.690 -0.1721 -0.0515 -0.0885
11620W        W27804  16.217  11.494  10.417 -0.0187 -0.3007 -0.0542
11621W        W27805  14.491  16.066  10.174  0.1201  0.2023  0.2672
11622W        W27806  15.328   0.841   1.101 -0.0753 -0.2223 -0.1248
11623W        W27807  12.163  17.176  10.455  0.2947 -0.1146  0.2658
11624W        W27808  13.747   4.712   2.970 -0.1134  0.0832 -0.0828
11625W        W27809  18.619   7.675   3.304  0.0372 -0.2467 -0.0103
11626W        W27810  16.913   4.609   5.022  0.0470 -0.1877  0.3175
11627W        W27811   7.392   7.867  12.661  0.1558  0.0237 -0.1559
11628W        W27812  10.576  17.500  12.858  0.1548  0.0002 -0.1402
11629W        W27813   6.558   1.029   3.271  0.0467  0.1223  0.0366
11630W        W27814   2.111  14.111  14.743  0.0461 -0.3988 -0.2220
11631W        W27815   1.000  17.324  14.932 -0.1132 -0.3431 -0.1331
11632W        W27816  18.703   1.075  11.750 -0.1668 -0.1481 -0.3438
11633W        W27817   8.116  17.986  11.000 -0.2763 -0.2741 -0.0676
11634W        W27818   3.941   1.140  13.568 -0.0408 -0.0151  0.2211
11635W        W27819  13.462  10.546   1.501  0.1700  0.1483 -0.0407
11636W        W27820   6.983   5.915  13.601 -0.1424 -0.0909  0.1966
11637W        W27821   8.204   9.731   0.644  0.3517  0.0179 -0.2789
11638W        W27822   1.385   2.752   5.538  0.3029  0.0223 -0.1606
11639W        W27823   0.949   0.455  11.518  0.0801 -0.1110  0.1787
11640W        W27824  14.520   2.545  10.222  0.0628  0.0448  0.0676
11641W        W27825  15.438   9.810  13.502  0.1044  0.0767 -0.2068
11642W        W27826  11.703  15.937  10.975 -0.2347 -0.0899  0.0353
11643W        W27827  17.735   3.611   2.476  0.2992  0.1573 -0.0675
11644W        W27828  13.755   0.910  14.912  0.0724  0.0283 -0.1845
11645W        W27829   5.480   2.360   0.459  0.0154 -0.0433  0.0995
11646W        W27830  12.664  13.813   4.095 -0.1158  0.1509 -0.0653
11647W        W27831  12.623   7.238   3.151  0.1570  0.1676  0.1665
11648W        W27832   4.296  13.025   2.714 -0.1282 -0.0246 -0.0044
11649W        W27833  12.755  13.648   2.448  0.0737  0.0033  0.0344
11650W        W27834   2.340   1.040  12.873 -0.1234  0.0963 -0.0704
11651W        W27835   5.081   3.166   2.640 -0.0698 -0.5038 -0.0822
11652W        W27836  16.609  16.404   0.065  0.1427  0.1598  0.3158
11653W        W27837   4.871   5.910   0.960 -0.2186 -0.0737 -0.0908
11654W        W27838   6.925   8.390   1.737  0.0436  0.2799  0.0681
11655W        W27839  11.235  18.664  12.224  0.1463  0.1431  0.0356
11656W        W27840  18.536  15.744   1.271  0.0410  0.2204 -0.1877
11657W        W27841  11.541   6.899  12.176  0.0500  0.1657  0.4607
11658W        W27842   0.259  11.107   5.510 -0.0660  0.1231 -0.1502
11659W        W27843  19.069  14.529   5.376 -0.3518  0.1735  0.0996
11660W        W27844   8.376  12.979  11.159 -0.1885  0.0190  0.4288
11661W        W27845   5.472  11.378   1.865  0.2126  0.2437 -0.0125
11662W        W27846   4.324   0.777   5.459  0.0933 -0.0201 -0.0822
11663W        W27847   2.958   6.005   0.001  0.1780  0.1156  0.0809
11664W        W27848  14.189  10.808  12.581 -0.3671  0.2235  0.0846
11665W        W27849   2.470  10.213  13.599  0.1915 -0.2518 -0.2357
11666W        W27850  12.041   6.473  14.682  0.1618  0.0226  0.0177
11667W        W27851   8.225  18.713   3.460 -0.1676 -0.2676 -0.1030
11668W        W27852   4.603  14.494   4.116 -0.1354  0.1348  0.4157
11669W        W27853   1.118   2.335  13.633 -0.1152 -0.0062  0.2720
11670W        W27854   9.113  19.180  12.173  0.2128 -0.1644  0.0394
11671W        W27855  13.622  17.672   0.939 -0.1397  0.2439  0.0656
11672W        W27856   9.099  10.525   5.107  0.0713  0.1138  0.1391
11673W        W27857  19.250   2.182  12.193 -0.2047 -0.1604 -0.1361
11674W        W27858  16.108  18.290   3.669  0.4414  0.1001  0.3815
11675W        W27859  16.027   9.719   2.193  0.0805 -0.1699  0.0325
11676W        W27860  17.705  16.465   2.069  0.2377  0.0788 -0.1863
11677W        W27861  14.576   7.378   4.320  0.0067  0.0483 -0.0422
11678W        W27862  18.776  10.657   0.585 -0.1799 -0.0645  0.3089
11679W        W27863  11.056  10.919  11.314  0.0609 -0.1609  0.1985
11680W        W27864  19.027   3.719   2.313  0.0145  0.2996 -0.1213
11681W        W27865   0.036   1.939  11.821  0.0712  0.1773 -0.2742
11682W        W27866   6.197  15.522   2.007 -0.0079  0.1144  0.3322
11683W        W27867  17.850  15.301  14.021  0.1822 -0.2121 -0.0350
11684W        W27868   4.383  16.757  12.026  0.3277  0.1142  0.0741
11685W        W27869   3.667   6.732  11.822 -0.1733 -0.0468  0.2661
11686W        W27870  14.810  11.460  12.235 -0.0972 -0.2695 -0.0902
11687W        W27871   9.742  14.788  14.178  0.1918 -0.0403 -0.1783
11688W        W27872  18.386  10.863   3.422 -0.3576 -0.1450  0.0053
11689W        W27873   0.116   2.442  11.865  0.2921  0.1721  0.1311
11690W        W27874   4.342   1.166   5.143 -0.0908  0.1816  0.1869
11691W        W27875   4.240   8.993   1.771  0.0169  0.0103  0.0348
11692W        W27876  13.986  12.732  12.197 -0.2393  0.0040 -0.3188
11693W        W27877   4.816  12.613  13.794 -0.2116 -0.1437  0.1109
11694W        W27878   5.126   8.453  14.404 -0.2170  0.1033  0.1374
11695W        W27879   1.427   1.421   0.307 -0.2345  0.3756  0.2458
11696W        W27880   9.537  13.757  11.101  0.1332 -0.3272  0.2267
11697W        W27881   8.335   6.083   1.164  0.1434 -0.0394  0.1400
11698W        W27882  15.519  14.458   1.914  0.0219 -0.0332  0.2828
11699W        W27883  16.465  12.302  13.485  0.3371 -0.1104 -0.5375
11700W        W27884  12.516  11.398  14.293 -0.3789 -0.1045  0.2674
11701W        W27885   0.269   9.940   2.033 -0.0868  0.0987  0.0532
11702W        W27886  18.361   1.729  11.777 -0.1896  0.1630 -0.2472
11703W        W27887   7.814   4.957   4.881 -0.0313 -0.0491 -0.2932
11704W        W27888   7.979  18.678  11.120 -0.0488 -0.0801  0.0628
11705W        W27889  15.966  10.368  11.846 -0.2169 -0.0453 -0.2241
11706W        W27890  11.113  15.659   0.686 -0.0507  0.3423 -0.0726
11707W        W27891   9.795  17.394  11.058  0.0805  0.2598 -0.1481
11708W        W27892  13.043   4.603   3.411 -0.0452  0.2874  0.1751
11709W        W27893   4.416   4.400  10.597  0.1214  0.1336  0.2691
11710W        W27894   6.402  14.474  13.597  0.2629  0.4278 -0.1528
11711W        W27895   6.572   8.469  14.582  0.4735 -0.1471 -0.0496
11712W        W27896  16.978   4.299   2.027 -0.1278  0.0443 -0.1341
11713W        W27897   9.905  17.808  13.832  0.2942 -0.0433 -0.1623
11714W        W27898   8.527   2.155   3.814  0.1237  0.0114 -0.1255
11715W        W27899  19.103  16.821   3.958  0.0824 -0.0723  0.0108
11716W        W27900   9.951  17.597   1.277 -0.2864 -0.0606 -0.3263
11717W        W27901   6.668  14.908  10.410 -0.0501  0.0973 -0.0108
11718W        W27902   9.353   9.732  12.941 -0.0714  0.1447 -0.2432
11719W        W27903  10.473  14.027  14.140 -0.1118 -0.0343  0.1769
11720W        W27904  14.646   5.024   1.697  0.0323 -0.1159  0.1280
11721W        W27905  10.582  19.372   3.154  0.3162 -0.3265  0.1093
11722W        W27906  15.035  18.364   0.619 -0.0829  0.0773  0.0067
11723W        W27907   6.282  15.288   3.269  0.1196  0.0715  0.1162
11724W        W27908  17.846  10.752   1.581 -0.4196  0.1861  0.3202
11725W        W27909  10.421   2.860   1.999  0.2116 -0.0945  0.0638
11726W        W27910   1.992  19.379   3.019  0.3708 -0.0976 -0.3688
11727W        W27911  18.821   9.381   4.735  0.0394 -0.0034  0.0502
11728W        W27912  11.377   9.778   1.398 -0.2375 -0.2839 -0.2978
11729W        W27913   6.719  19.236  10.846 -0.1399 -0.1819 -0.0529
11730W        W27914  16.713   8.949  14.521  0.3224 -0.0650 -0.1070
11731W        W27915  18.771  10.804  12.066 -0.2201  0.1988 -0.3333
11732W        W27916   8.146   8.728  13.360 -0.2319  0.3091 -0.2571
11733W        W27917  17.218   8.153   5.092 -0.2974 -0.0375 -0.1474
11734W        W27918  16.344   8.854   1.471  0.2648 -0.0659 -0.0395
11735W        W27919  18.366   2.901  11.222 -0.4441 -0.3978  0.1442
11736W        W27920   8.570  15.453  11.677  0.2207  0.3020 -0.0702
11737W        W27921  10.844  16.006  14.672  0.0992  0.0766  0.0120
11738W        W27922  10.190  13.361  13.597 -0.1844  0.0126 -0.2294
11739W        W27923   9.038  10.977  13.885  0.0460 -0.1126  0.1651
11740W        W27924  13.796   8.644   4.563  0.1701 -0.1509  0.2751
11741W        W27925  13.674   3.242  11.069 -0.1584 -0.1434 -0.0233
11742W        W27926  18.675   4.061   3.030  0.0083  0.3270 -0.1419
11743W        W27927   4.234   8.390   2.607 -0.1995 -0.2968  0.2687
11744W        W27928   7.827   0.763   2.589  0.0471  0.1309  0.0153
11745W        W27929   5.734   5.457   2.837  0.3140 -0.2342 -0.1314
11746W        W27930   1.945  11.519   5.502 -0.3128  0.0173  0.0865
11747W        W27931   9.280  16.703   2.903 -0.0645  0.1093  0.1331
11748W        W27932   7.768  14.200  10.639  0.2077  0.1234  0.2201
11749W        W27933   1.657   8.145   3.322 -0.0011 -0.0322  0.1132
11750W        W27934  16.091   6.977  11.199 -0.0797 -0.0861  0.3411
11751W        W27935  14.509   0.653  10.539 -0.2121  0.0251 -0.0288
11752W        W27936  15.162   8.049  14.334  0.1051 -0.1774  0.0654
11753W        W27937   9.668   0.182   3.235  0.0527 -0.0935  0.0268
11754W        W27938  15.895   9.530   0.700  0.0230 -0.0251  0.1009
11755W        W27939  11.640   6.400  13.712 -0.0545 -0.1003 -0.3303
11756W        W27940   1.846  13.585   4.379  0.0900 -0.2544  0.0080
11757W        W27941   1.215   5.292  11.717 -0.2363 -0.3079 -0.0480
11758W        W27942  17.003   6.498   1.192 -0.1288 -0.2247  0.0168
11759W        W27943  12.763  11.429   2.850 -0.0806 -0.0050  0.1751
11760W        W27944   8.387   3.779   1.831 -0.2647  0.0846 -0.0738
11761W        W27945  13.428  10.375  13.143 -0.3580  0.0707 -0.0814
11762W        W27946  16.608   6.424   4.688  0.1511  0.0422 -0.0035
11763W        W27947   0.839  11.799   4.223  0.2176  0.2572  0.2230
11764W        W27948   0.047  18.933  13.806 -0.0106  0.0391  0.4496
11765W        W27949   4.409   8.443   4.393 -0.3037 -0.2690 -0.2519
11766W        W27950   5.494   2.600  14.811  0.1583  0.2460  0.0497
11767W        W27951   5.648   2.490  12.079  0.2740 -0.0133 -0.6459
11768W        W27952   7.864  16.047  12.658  0.2193  0.0102  0.0110
11769W        W27953  14.974  17.299   9.907 -0.0140  0.0764  0.1878
11770W        W27954  18.544  13.623  11.753 -0.2693  0.1220 -0.0073
11771W        W27955   4.380  11.549  11.615 -0.0428  0.0275 -0.2103
11772W        W27956  11.263  14.246   1.194 -0.1965  0.0256  0.1368
11773W        W27957  19.017  12.251  12.515  0.0138  0.0050  0.0189
11774W        W27958  13.109  14.799  10.376 -0.2887 -0.0698 -0.2088
11775W        W27959   2.623   6.255  12.082 -0.1069 -0.1533  0.2080
11776W        W27960   2.944  14.083   3.161 -0.3571  0.0654 -0.1397
11777W        W27961  14.922   8.678  12.998  0.2191 -0.2457 -0.0647
11778W        W27962   6.746   5.508  13.246 -0.5758  0.0990 -0.1370
11779W        W27963   6.433  18.965  14.914  0.1050  0.2179 -0.1162
11780W        W27964  12.153   0.127  13.011 -0.4212  0.0480  0.2487
11781W        W27965   3.489   5.407  14.705  0.0326  0.0504  0.0109
11782W        W27966  11.945   0.361  13.408  0.0876  0.2506 -0.4023
11783W        W27967  18.138  11.088   1.266  0.1065 -0.2800 -0.1606
11784W        W27968   7.032  15.079  10.071 -0.4134 -0.1334  0.0265
11785W        W27969   9.228   3.087  14.371 -0.3828  0.3201 -0.1539
11786W        W27970   8.031   1.407   1.968  0.0492 -0.1277  0.3142
11787W        W27971  14.597  11.511  10.387  0.2699  0.4872 -0.1671
11788W        W27972   2.498   2.831  10.956  0.1594 -0.0084 -0.4057
11789W        W27973  11.061  11.584   0.828  0.0936  0.2647  0.1388
11790W        W27974  15.945  17.568   9.956  0.4122  0.2394  0.3399
11791W        W27975  18.627  15.604   3.692 -0.0212 -0.2529  0.1319
11792W        W27976  15.489  14.751  14.425  0.2274  0.3088  0.0205
11793W        W27977   1.154  10.145   1.239  0.0175  0.1192  0.0186
11794W        W27978  19.304  11.516  11.462  0.2179 -0.0706 -0.1133
11795W        W27979  18.458  13.233   1.346 -0.0025 -0.1032  0.2437
11796W        W27980  14.571  11.397  11.740 -0.1387  0.1640 -0.1328
11797W        W27981  13.750   2.886   3.230  0.0378 -0.1325 -0.1652
11798W        W27982   2.212  18.877   1.336  0.1557  0.2600  0.3023
11799W        W27983   9.843   5.042  11.605  0.2182 -0.0490 -0.0218
11800W        W27984  18.386   8.753   4.204  0.1039 -0.1231 -0.1200
11801W        W27985   9.941  16.506  14.705 -0.1063 -0.3147 -0.0028
11802W        W27986   8.783  11.836  14.553  0.1057  0.0580  0.2856
11803W        W27987  13.049  14.446   1.484 -0.0523  0.0817 -0.5328
11804W        W27988  12.098  11.679  11.499  0.3241  0.1478 -0.0683
11805W        W27989  19.041   9.851  13.980 -0.2771 -0.2128 -0.1554
11806W        W27990   7.108  11.278  13.594 -0.1327  0.3543  0.1057
11807W        W27991   6.595   5.693  14.577 -0.1596  0.0051 -0.1896
11808W        W27992  11.206   8.140  12.432 -0.1483 -0.0605 -0.2653
11809W        W27993   6.883  11.584  14.655 -0.0358 -0.1581  0.0276
11810W        W27994   6.753  14.180   5.608  0.0215 -0.0607 -0.0280
11811W        W27995  17.384  12.411  13.034 -0.0058 -0.3356 -0.1326
11812W        W27996   6.350  15.291  10.503  0.2116  0.1278  0.0689
11813W        W27997  19.153  19.021   3.853 -0.0180 -0.1143  0.1134
11814W        W27998   1.512  13.119   3.307  0.3175 -0.0735  0.0584
11815W        W27999  16.373  11.939  13.851  0.1545  0.1017  0.1998
11816W        W28000   4.502   9.155  14.778  0.2399  0.3170 -0.2767
11817W        W28001   0.566   3.511  14.249 -0.0696  0.3189 -0.0177
11818W        W28002  13.991  13.139   4.583 -0.1324 -0.0814  0.1861
11819W        W28003   1.184   4.090   2.727 -0.3750  0.0802 -0.1729
11820W        W28004  18.673  12.812  12.512  0.0984  0.0280  0.0958
11821W        W28005   5.340  14.733  11.537  0.0383  0.3206  0.0780
11822W        W28006   6.735   9.628  10.787  0.1353  0.1030  0.1386
11823W        W28007   6.454  16.957  14.222 -0.1873 -0.2093  0.2768
11824W        W28008   3.033  11.202  12.462  0.0370 -0.2078  0.3437
11825W        W28009   2.663   9.706   1.707 -0.0837 -0.1315  0.1750
11826W        W28010   9.768  16.964   9.819 -0.1334 -0.1548  0.0126
11827W        W28011  17.161  16.757  13.570 -0.2096  0.3477  0.1271
11828W        W28012  12.536   6.197  11.492 -0.3672 -0.4397  0.0291
11829W        W28013   7.328   2.880   3.877  0.2893  0.4088  0.3129
11830W        W28014  17.664  12.264   0.358  0.1308 -0.1896  0.0511
11831W        W28015   9.114  17.296   2.259 -0.2311 -0.0668 -0.2512
11832W        W28016  17.797   4.179  10.464  0.1492  0.1103 -0.3135
11833W        W28017  17.852  14.397   1.093  0.0110 -0.0026 -0.2288
11834W        W28018   2.207  16.959  13.784  0.3927  0.2832  0.0643
11835W        W28019   8.698   9.403   2.633  0.3125  0.0167 -0.0668
11836W        W28020  13.211  18.928  13.975  0.0388  0.1744  0.0542
11837W        W28021   7.746  13.944  10.161  0.0907  0.0245 -0.2242
11838W        W28022   4.335   9.746   5.689 -0.0214  0.0052 -0.5696
11839W        W28023  16.463   4.158   1.155  0.1561  0.1835  0.0662
11840W        W28024   0.897   5.893   0.717  0.3054  0.1228  0.0145
11841W        W28025   8.255   1.780  14.088  0.1340  0.0486  0.3241
11842W        W28026  16.219   2.850  14.141 -0.1088 -0.0135  0.1697
11843W        W28027  16.475  10.238   4.542 -0.0846  0.0964 -0.0284
11844W        W28028   4.725   8.974   0.963  0.0063  0.0378 -0.0706
11845W        W28029   3.764   7.215  11.977  0.2866 -0.1487  0.0476
11846W        W28030  16.576  15.772   0.893  0.1676  0.1994  0.0794
11847W        W28031  11.537  17.275  11.127  0.1164 -0.5919  0.1393
11848W        W28032   5.544   3.015   1.132 -0.2842 -0.2326  0.3226
11849W        W28033   7.931  13.346   4.816 -0.4120  0.2488  0.0130
11850W        W28034  12.538   1.706   9.286  0.1146 -0.0959  0.0708
11851W        W28035   0.093  13.747  11.622 -0.0071  0.3307  0.2822
11852W        W28036  12.251   5.594  14.832 -0.1370  0.3402  0.0493
11853W        W28037   1.390   3.154  14.399  0.2081  0.1468  0.1472
11854W        W28038   7.243  11.436   1.082  0.0873  0.0374  0.0913
11855W        W28039  11.389   4.838   1.285 -0.0561 -0.3234 -0.1713
11856W        W28040   4.669   2.929   1.737 -0.0779 -0.1134  0.0304
11857W        W28041   2.608   2.526   5.504  0.2021  0.1173  0.2902
11858W        W28042   5.635  14.100   0.577 -0.2411  0.3540  0.0875
11859W        W28043   7.792   0.865  13.940 -0.1259  0.0770  0.1270
11860W        W28044   0.413   6.542  14.407  0.1678 -0.0365 -0.0524
11861W        W28045   9.196   9.501  12.167 -0.2396 -0.2260  0.1163
11862W        W28046   0.048  10.234  13.119  0.1586 -0.0886  0.0050
11863W        W28047   9.128  19.142   1.989  0.0309  0.0743  0.0351
11864W        W28048  14.948  14.270  10.045 -0.1180  0.3037 -0.1300
11865W        W28049  16.757   1.288  10.272 -0.0785  0.3115  0.1332
11866W        W28050   0.278   6.862   2.417 -0.0626  0.1258 -0.0935
11867W        W28051  10.067   5.716  12.780 -0.0125 -0.2678  0.0386
11868W        W28052  11.916  10.488   1.230 -0.0579 -0.2084  0.0915
11869W        W28053   6.187   4.385  12.133  0.1030 -0.2243  0.0620
11870W        W28054   5.314   5.762   2.227  0.0323 -0.0961 -0.0802
11871W        W28055  16.078  16.417  13.642  0.1056  0.0544 -0.0083
11872W        W28056   2.353   8.039   3.050  0.0829  0.2485  0.2582
11873W        W28057   7.667   1.147   0.407  0.3059  0.4403  0.2472
11874W        W28058  10.343   8.785   2.352 -0.2838 -0.2406 -0.0103
11875W        W28059   3.478   7.257   1.107 -0.5209 -0.0245  0.4835
11876W        W28060  18.691  12.331  11.140  0.0465 -0.0222 -0.2808
11877W        W28061   7.172  19.142  10.620 -0.0080  0.3905 -0.0897
11878W        W28062   3.274   2.616   3.567 -0.4601  0.3103 -0.0732
11879W        W28063  18.515  16.787   4.106  0.1065 -0.0075  0.0872
11880W        W28064   5.414  17.722   9.888 -0.1880  0.1101  0.3051
11881W        W28065  10.023   8.081   3.879  0.5539 -0.1276  0.3838
11882W        W28066  13.057   9.896  14.150  0.0091 -0.0922 -0.0294
11883W        W28067   3.332  18.228   4.433 -0.2149 -0.0807  0.0861
11884W        W28068   0.505  13.871  11.937 -0.0670 -0.0437 -0.0380
11885W        W28069   9.249  10.022  11.323  0.0900 -0.0348  0.1423
11886W        W28070   2.768  11.938  13.526  0.0404  0.0135 -0.0243
11887W        W28071  10.926   0.883   3.288  0.0447  0.2301  0.0047
11888W        W28072  15.857  16.879  11.897 -0.2061 -0.4003  0.0090
11889W        W28073  11.332  12.423   1.544  0.2190 -0.1518 -0.1817
11890W        W28074   1.243  14.897  10.307 -0.0718  0.0179 -0.0072
11891W        W28075   5.653  13.195  14.593  0.2644  0.1116  0.2351
11892W        W28076   7.280   0.074   4.797 -0.0340 -0.3555  0.2540
11893W        W28077   2.985   0.331  13.235 -0.1621  0.0641  0.2731
11894W        W28078   9.274   4.118  14.508  0.1415  0.1316  0.1942
11895W        W28079  16.312  11.161  11.296  0.3470  0.0695  0.1036
11896W        W28080   3.783  10.081   2.102  0.1128  0.0306  0.0511
11897W        W28081   7.672   8.191   1.930  0.1903 -0.3010  0.1356
11898W        W28082  17.416   0.808   2.894  0.0006 -0.0591  0.0554
11899W        W28083  16.578   8.785  11.952  0.2793 -0.1083 -0.1179
11900W        W28084  18.522  15.172  13.340  0.3955  0.0820 -0.2339
11901W        W28085   4.945  15.101   3.374 -0.1539  0.1758  0.0597
11902W        W28086  14.820   5.044  13.296 -0.0061  0.0619 -0.0575
11903W        W28087  18.278  13.039   3.894 -0.1629  0.0200 -0.4406
11904W        W28088  17.795  13.447  10.557 -0.1239 -0.0088 -0.2189
11905W        W28089  16.600  13.140   1.075  0.0549  0.2163  0.0952
11906W        W28090  17.100   9.057  14.845 -0.1099 -0.0643 -0.5574
11907W        W28091  19.119  14.239   1.225 -0.0638 -0.0261  0.3817
11908W        W28092   6.800   9.181   0.982 -0.1389 -0.1573  0.0065
11909W        W28093   4.230   8.715   5.397 -0.1123  0.2560  0.0263
11910W        W28094   0.205   1.104   3.648 -0.0312  0.0295 -0.2049
11911W        W28095  18.621   3.866  14.305  0.1955  0.0174 -0.3172
11912W        W28096   0.269  11.846   4.071 -0.2419  0.0370  0.1523
11913W        W28097   9.071  11.826  13.331 -0.0903  0.0205 -0.1638
11914W        W28098   3.291   3.648   2.008  0.0387  0.1428 -0.0449
11915W        W28099  10.023  17.545   3.736  0.0950 -0.1346 -0.4274
11916W        W28100  11.746  18.372   5.117  0.0679 -0.0295  0.1180
11917W        W28101   0.646  10.208  10.565 -0.0435  0.2993 -0.0340
11918W        W28102   4.952   2.170  13.138  0.2152  0.0548  0.3381
11919W        W28103  13.717   5.911  12.945 -0.0355  0.0462  0.0466
11920W        W28104   5.300  14.750  12.882 -0.1099  0.2261  0.0590
11921W        W28105   3.584   6.641  12.718 -0.1686 -0.0221  0.1587
11922W        W28106  15.529  15.047  13.027 -0.0368  0.0407 -0.1083
11923W        W28107  10.996  16.293  10.554  0.1380 -0.0013  0.1228
11924W        W28108  19.105  15.955  10.581 -0.0126 -0.0904  0.1710
11925W        W28109  14.306  11.528  10.011  0.1364  0.2691  0.3214
11926W        W28110   4.537   9.857   3.143 -0.0575  0.1184  0.2765
11927W        W28111  14.586  10.807  12.951 -0.1629  0.3243 -0.1167
11928W        W28112  18.371  18.552   1.843 -0.0631  0.4450 -0.0358
11929W        W28113  15.944   5.575  13.659  0.0981 -0.1704 -0.0112
11930W        W28114   3.316   7.050   5.156  0.1738  0.1625 -0.1974
11931W        W28115  16.497  12.515  14.867  0.1360  0.0255 -0.0439
11932W        W28116   3.292   2.252   1.221  0.1313  0.0964 -0.0168
11933W        W28117  10.943   1.304  10.418  0.2362 -0.0537  0.3254
11934W        W28118  18.926   1.937  13.802 -0.0498 -0.2616  0.0634
11935W        W28119   6.594   7.499   4.346 -0.2209 -0.0605  0.0902
11936W        W28120  19.362   0.592   0.418  0.1884 -0.2998  0.1676
11937W        W28121   7.952   4.794  11.838  0.1217  0.2931  0.1177
11938W        W28122   5.450  17.785   4.567  0.1333  0.1238 -0.1492
11939W        W28123  17.246   4.207  14.020  0.0929 -0.1860 -0.0130
11940W        W28124   4.525  15.695   3.996  0.0091  0.3142  0.1100
11941W        W28125  18.790  11.542   4.948  0.0774  0.4436  0.1929
11942W        W28126   9.523   9.904   1.398  0.0270 -0.3224  0.1878
11943W        W28127   6.470  18.361  10.568  0.1393 -0.0585  0.0347
11944W        W28128   4.662   5.040  12.878  0.0024 -0.1559  0.2146
11945W        W28129  16.264   1.770   0.077 -0.1126  0.1796  0.1150
11946W        W28130   2.136  18.916   0.285 -0.0040  0.0288  0.0261
11947W        W28131   4.771  17.274   3.407 -0.3308 -0.0555 -0.1627
11948W        W28132  10.075   7.454  12.770 -0.3482 -0.1183 -0.0540
11949W        W28133   4.814  12.022   4.885  0.1648 -0.1732  0.1202
11950W        W28134  13.985  11.073  12.996 -0.3466 -0.0775 -0.1635
11951W        W28135   7.897   0.041   1.206 -0.1987  0.4824 -0.0344
11952W        W28136   2.848   9.543  14.470 -0.2395 -0.2411 -0.2681
11953W        W28137  12.610  16.789  11.516 -0.1050  0.1856  0.2231
11954W        W28138  15.217  12.966   1.809  0.2759 -0.1401  0.1024
11955W        W28139   3.443   6.095  11.736 -0.0187  0.1806 -0.0457
11956W        W28140   0.608  17.768   4.120  0.2156 -0.3760  0.0153
11957W        W28141  12.786   6.514   3.731 -0.3989 -0.0706 -0.1520
11958W        W28142   8.924   5.413   4.912  0.3830  0.2704 -0.5495
11959W        W28143   0.816   3.395  13.566 -0.2557 -0.0987 -0.2259
11960W        W28144   1.854   8.060  10.884  0.1072  0.2193 -0.0357
11961W        W28145  12.926   2.058   1.870  0.0669 -0.2308  0.1353
11962W        W28146  12.324  10.672  11.501 -0.3236  0.1309 -0.1386
11963W        W28147  16.765   0.584  11.004 -0.1104 -0.1250 -0.1169
11964W        W28148  12.308   1.640  14.895  0.2910 -0.0727 -0.0226
11965W        W28149  12.082  18.907   2.979 -0.2331  0.1834 -0.3240
11966W        W28150  15.453  10.608   4.131 -0.2031 -0.0904  0.1697
11967W        W28151  19.187  13.850  14.363  0.3464 -0.3018  0.0388
11968W        W28152  14.090  16.732   4.488  0.0143 -0.0785 -0.2410
11969W        W28153  18.330  12.749   3.343 -0.1760 -0.2313  0.0913
11970W        W28154  13.496  11.796   0.098 -0.1003 -0.0242  0.0277
11971W        W28155   7.473  10.181   4.836 -0.2216 -0.1094 -0.1841
11972W        W28156   7.358  12.314  11.745 -0.1136 -0.0511 -0.1132
11973W        W28157  17.029  15.025   2.913  0.1821 -0.1866 -0.4383
11974W        W28158   7.098   3.725  14.525 -0.1768 -0.0799 -0.1409
11975W        W28159   9.539   9.763  11.780 -0.1153  0.2992  0.3521
11976W        W28160   7.741  12.043   1.378 -0.3052 -0.3316  0.0933
11977W        W28161  19.237  16.576   2.136 -0.1655  0.0374  0.0349
11978W        W28162  10.765   1.964  14.712 -0.2778  0.0787 -0.0267
11979W        W28163   3.054  11.899   1.274  0.0267 -0.0333 -0.0399
11980W        W28164   7.102   3.217  12.583 -0.2398  0.0704  0.0669
11981W        W28165   2.123   3.624  12.913 -0.0885  0.0636 -0.1279
11982W        W28166   4.995   7.256   2.553  0.1838  0.1715  0.0140
11983W        W28167  16.190   0.582  10.945  0.0510 -0.0052 -0.1745
11984W        W28168  14.213   1.376  12.441  0.4049  0.2073  0.0651
11985W        W28169   9.962  18.057   3.599 -0.3508 -0.2020 -0.1824
11986W        W28170   4.088   2.008  10.974  0.0296  0.3913  0.0016
11987W        W28171  13.407  13.692  14.662 -0.0414  0.0255  0.0514
11988W        W28172   7.096  11.937   5.289 -0.1192 -0.0625  0.0642
11989W        W28173  13.781   7.493  14.600 -0.2025  0.0900 -0.1988
11990W        W28174  17.138  14.484   4.261  0.0490 -0.1099  0.1630
11991W        W28175   4.258   2.565  13.749 -0.0050  0.0402  0.1947
11992W        W28176   1.457  16.175  11.712  0.0219 -0.0844  0.0468
11993W        W28177   2.767  10.603  12.810 -0.2320 -0.3210  0.0492
11994W        W28178   2.019  17.020  10.118  0.1930 -0.0706 -0.2316
11995W        W28179  13.589  17.356  13.968  0.0084  0.0136 -0.1635
11996W        W28180   4.924   1.489  13.399  0.1170 -0.0782  0.0909
11997W        W28181  11.721  14.857   2.240 -0.0798 -0.0598 -0.3431
11998W        W28182   3.387  16.444  12.241  0.1950  0.1451 -0.0910
11999W        W28183   6.197  13.232  10.736 -0.0544  0.1931  0.3835
12000W        W28184  13.430  10.186   0.639 -0.1713  0.0281 -0.0516
12001W        W28185  12.209   3.934   2.311 -0.1397  0.1183  0.2636
12002W        W28186  13.230   1.428   3.733 -0.0606 -0.0429  0.3956
12003W        W28187   0.562  13.737  12.541 -0.0266 -0.2364  0.0089
12004W        W28188  17.186  11.991  14.876 -0.0148  0.1341  0.1786
12005W        W28189  17.039   3.699  13.758 -0.2840 -0.0494  0.0173
12006W        W28190   7.544   7.620  11.595  0.2252 -0.2015 -0.0997
12007W        W28191  19.029  17.958  14.258  0.0508 -0.1581 -0.2894
12008W        W28192  18.980   4.162  11.973 -0.1044 -0.1104  0.0057
12009W        W28193  19.306  17.953   2.128 -0.2710  0.0358 -0.0324
12010W        W28194   9.732   8.034   1.460 -0.4290  0.1796 -0.1576
12011W        W28195  17.115   4.781   1.963  0.0303 -0.1943  0.2047
12012W        W28196   1.056   8.930   3.615  0.3929  0.2329  0.1448
12013W        W28197  13.348   8.051   0.940  0.0339 -0.1492 -0.3017
12014W        W28198  14.538  17.059  12.444 -0.0244 -0.0505 -0.1164
12015W        W28199   0.523   7.853   1.537 -0.1897 -0.1124 -0.1497
12016W        W28200  16.643  15.836   2.798 -0.1228 -0.1184 -0.1144
12017W        W28201   9.796   8.191   2.948 -0.1781  0.0822 -0.2039
12018W        W28202   8.862  14.973   4.452 -0.0163  0.0612 -0.0735
12019W        W28203  17.196   4.905  11.120  0.0877 -0.1625  0.1419
12020W        W28204   5.271   9.820  13.459 -0.1024  0.3538 -0.1436
12021W        W28205  11.887   9.613   3.800  0.0310 -0.1012  0.2010
12022W        W28206  10.038  19.120   3.877 -0.6077  0.1114  0.3135
12023W        W28207  17.651  18.290   1.663  0.0488 -0.0067 -0.1119
12024W        W28208  18.097   1.031   1.679 -0.0164 -0.0515  0.1061
12025W        W28209   7.988  16.172  13.337 -0.1420  0.3655  0.1440
12026W        W28210   5.534  15.009   1.428 -0.0338 -0.1154 -0.0486
12027W        W28211  14.552  11.369   3.764  0.1295  0.0657 -0.0488
12028W        W28212  12.541  16.047  14.026  0.0174  0.1224 -0.1145
12029W        W28213   3.335   6.890  13.027 -0.0648 -0.0804  0.1689
12030W        W28214   2.908  14.702  12.822  0.2110  0.1843 -0.1532
12031W        W28215   5.219   3.610   0.244 -0.0085  0.0547 -0.1633
12032W        W28216   2.111   8.905   3.982  0.0132  0.2828  0.3127
12033W        W28217  10.402   8.753  13.302 -0.0437 -0.2159  0.1594
12034W        W28218   8.678   8.416  11.729 -0.2550  0.0943  0.0397
12035W        W28219   3.569  10.921   2.719 -0.1613 -0.0076 -0.1291
12036W        W28220   7.092   5.171  12.001 -0.0989  0.0415  0.1012
12037W        W28221   3.157   3.445   2.648 -0.2570 -0.4281  0.4347
12038W        W28222   0.019   9.695  13.204  0.1993  0.0539  0.0185
12039W        W28223   0.707  11.350   3.359 -0.0289  0.3391  0.0944
12040W        W28224  11.949  11.938  10.131 -0.0167  0.1755 -0.4814
12041W        W28225  12.627  11.629  14.796  0.3308  0.0943 -0.2477
12042W        W28226   8.440  11.736  11.788  0.1376 -0.1712 -0.0386
12043W        W28227   8.705   8.562   4.482  0.5309 -0.0663  0.1686
12044W        W28228  18.488  16.580  13.983  0.0670 -0.0708 -0.0847
12045W        W28229  16.561  14.240   3.120 -0.3012  0.1192  0.2614
12046W        W28230   6.944  13.230  14.088  0.1522 -0.2042 -0.0821
12047W        W28231   5.022  10.136  14.188 -0.0619  0.0497  0.1465
12048W        W28232  18.514  14.114  13.820 -0.1141  0.0528 -0.4137
12049W        W28233   1.679  15.800   2.015  0.1702 -0.0275  0.0498
12050W        W28234   3.629  13.960  13.993 -0.0194 -0.2752 -0.2245
12051W        W28235   3.838   4.097  11.351 -0.2205 -0.2209  0.4240
12052W        W28236   1.775  10.806   4.549  0.0595  0.0979  0.0469
12053W        W28237   4.418   2.088  12.324 -0.1053  0.0636 -0.0637
12054W        W28238   4.040   2.660  12.443  0.0716  0.2171 -0.3690
12055W        W28239   6.456   1.515   3.259 -0.2861 -0.2983 -0.0133
12056W        W28240   6.761  14.559   3.683  0.2980 -0.0925  0.1630
12057W        W28241   6.234  17.190   1.677 -0.3402 -0.1215 -0.0267
12058W        W28242   5.054  15.354   0.180 -0.0466 -0.1766 -0.1572
12059W        W28243   0.679  13.992  14.147  0.0068  0.1620  0.1734
12060W        W28244   1.902  13.008  11.298  0.4685  0.0726  0.2105
12061W        W28245   0.208  18.041  13.838  0.0827  0.1756 -0.0906
12062W        W28246   4.193   7.922   1.921 -0.1121 -0.1020  0.1454
12063W        W28247  15.980  10.524   0.631  0.0614 -0.2619 -0.1850
12064W        W28248  11.971  18.865   1.819  0.0577  0.1108 -0.0028
12065W        W28249  17.093   0.979   9.828 -0.0049  0.0836 -0.4433
12066W        W28250   3.284  13.586  14.110  0.2061  0.2197 -0.0838
12067W        W28251  10.776   7.502   4.017 -0.3527 -0.2438  0.0600
12068W        W28252  11.802  14.080   5.279 -0.0251 -0.1728  0.0922
12069W        W28253   5.715  11.110   1.438 -0.2185  0.1853  0.0432
12070W        W28254   8.664  10.397  13.061 -0.1040 -0.1226  0.3351
12071W        W28255  12.111   2.457  14.609  0.1571  0.2860  0.1254
12072W        W28256   6.048  10.174  11.557 -0.0770  0.1634  0.1258
12073W        W28257  10.065  18.221  12.019  0.0536  0.1627  0.0380
12074W        W28258   5.103   6.831   1.134  0.1084 -0.0289  0.2373
12075W        W28259   2.544  16.152   3.679 -0.0305  0.2071 -0.0031
12076W        W28260   2.821  16.686   3.792 -0.0258  0.0127  0.2064
12077W        W28261   8.257  11.741   0.327 -0.0784 -0.2023  0.0107
12078W        W28262  19.338  16.080  13.069 -0.1293  0.3156 -0.0046
12079W        W28263   1.522  18.340   2.509 -0.0254  0.0472  0.2007
12080W        W28264  16.194   6.769  10.304 -0.0469 -0.2238  0.2686
12081W        W28265   3.006   5.028  13.929 -0.2695  0.0493  0.1219
12082W        W28266   9.580  13.738  14.438  0.0007 -0.0413 -0.1821
12083W        W28267  13.040   5.933   4.034  0.2397 -0.0464  0.1176
12084W        W28268   9.963  10.392   0.119  0.1608 -0.1118 -0.1221
12085W        W28269  10.657   5.691  10.720 -0.1454 -0.0949 -0.2462
12086W        W28270  17.952  15.384  11.194 -0.1958  0.0528  0.1583
12087W        W28271   0.203  18.529   2.612 -0.0959  0.1479 -0.2531
12088W        W28272   4.426   4.224   4.615  0.1659 -0.0151 -0.1786
12089W        W28273   0.156  10.466   3.690  0.0544 -0.1336 -0.1603
12090W        W28274  14.123  19.296   4.132  0.1606  0.4914 -0.3177
12091W        W28275  15.331  11.928   1.592 -0.0388  0.2184  0.0697
12092W        W28276  18.259  16.860   0.919 -0.1129  0.2138 -0.0866
12093W        W28277   0.030  13.642  10.290 -0.1002 -0.2516  0.1364
12094W        W28278   6.772  11.171   5.350  0.3607  0.0306 -0.0070
12095W        W28279   3.923  12.295  13.655  0.0810  0.1559 -0.2776
12096W        W28280   4.867   1.182  12.207  0.0480 -0.3608 -0.0859
12097W        W28281   8.257   0.719   4.277  0.1460  0.1502  0.1837
12098W        W28282   8.456   8.378  14.212 -0.0685  0.2501  0.0085
12099W        W28283   6.990  14.486   0.562  0.2423 -0.2781  0.1489
12100W        W28284  16.834   8.079  12.387  0.0694 -0.0481 -0.1966
12101W        W28285   7.966  16.133  10.048 -0.3122  0.1249 -0.2386
12102W        W28286   4.671   3.921  12.066  0.1860  0.2069 -0.1753
12103W        W28287  16.675   1.524  11.290 -0.2534 -0.1116 -0.0075
12104W        W28288  11.645  18.031   1.028  0.1764  0.0227  0.1875
12105W        W28289  14.034   5.088   4.657  0.3952  0.0641  0.0508
12106W        W28290   5.320   1.353   0.892 -0.2659  0.1156  0.2803
12107W        W28291  12.099   5.084  13.886  0.1085 -0.3374  0.1407
12108W        W28292   1.766  15.749  11.934 -0.0074 -0.3183  0.0116
12109W        W28293   0.983  10.334   2.778 -0.0074  0.1791  0.0712
12110W        W28294  13.311   7.662  14.504  0.1248 -0.0338 -0.1295
12111W        W28295  12.490  15.499  11.836  0.2173  0.2976 -0.1062
12112W        W28296  16.538  17.604   4.109  0.1576 -0.0056  0.0590
12113W        W28297  11.221   4.639  10.442 -0.2729 -0.1044  0.0259
12114W        W28298   2.445   3.893   0.109 -0.0478 -0.0971 -0.0594
12115W        W28299  16.557  17.221   3.686 -0.2765 -0.0332  0.0974
12116W        W28300  17.792  13.417   0.134 -0.0657  0.0855 -0.0406
12117W        W28301   9.343   8.481  14.227  0.0474  0.0548 -0.0256
12118W        W28302   9.852  16.852   0.123 -0.2839 -0.0593  0.1680
12119W        W28303   2.940  18.543  13.092 -0.2040  0.0478 -0.1071
12120W        W28304  13.897   0.858  14.043 -0.2831 -0.1554 -0.2621
12121W        W28305   3.835   0.805  12.227  0.3613  0.1748  0.1527
12122W        W28306  10.446   5.592  14.487 -0.1649 -0.1122  0.4312
12123W        W28307   3.048  17.872   1.606 -0.0629 -0.1348 -0.1290
12124W        W28308   5.587  15.078  13.745  0.0699  0.2153  0.2313
12125W        W28309  14.140   6.812  12.918 -0.0684 -0.1929 -0.5030
12126W        W28310   2.018   7.793   3.344 -0.3005 -0.0570 -0.0227
12127W        W28311  17.926   3.694   1.923 -0.1616  0.0271  0.2332
12128W        W28312  15.998  12.867  11.433 -0.1261  0.2317 -0.2347
12129W        W28313  18.096  18.411  13.431  0.1069  0.1223  0.2927
12130W        W28314   1.190  10.336  10.594  0.5625 -0.1138 -0.0270
12131W        W28315   3.991   1.596  13.721 -0.0327  0.2427  0.1107
12132W        W28316   4.106   1.492   4.769 -0.0853 -0.1284 -0.1329
12133W        W28317  10.049   5.307   0.062 -0.1683 -0.0820  0.1557
12134W        W28318   7.096  16.313  11.849  0.2077  0.0815 -0.2187
12135W        W28319  15.881   0.983  10.723  0.1426 -0.0093  0.1696
12136W        W28320   3.069  16.319   4.570 -0.2698 -0.2133 -0.1343
12137W        W28321  10.075  18.747  11.921  0.0469  0.1157 -0.2051
12138W        W28322   3.844   6.809  14.301  0.1809  0.1107 -0.3333
12139W        W28323   5.182   4.981   1.231 -0.1042 -0.0378  0.0223
12140W        W28324  15.657  10.965  12.043 -0.1074  0.1858 -0.1524
12141W        W28325   5.978   9.855  13.975 -0.0262  0.0684  0.0701
12142W        W28326   7.610   8.880   1.432  0.3385 -0.0055 -0.1582
12143W        W28327   3.259  18.100   3.273 -0.1606  0.1048 -0.4197
12144W        W28328   4.542  12.218  10.239 -0.1106 -0.0876  0.0336
12145W        W28329  13.234  13.101   4.094  0.1824  0.2542 -0.0179
12146W        W28330   7.317  13.835   1.793 -0.3229  0.0603 -0.0599
12147W        W28331  14.419   1.680  12.001 -0.1076  0.3109 -0.0662
12148W        W28332  13.161   4.007   0.423  0.0099  0.0852  0.0803
12149W        W28333   3.285  15.911  12.141 -0.1479  0.3446 -0.3436
12150W        W28334   7.313   9.299  11.271 -0.0796  0.0643 -0.0297
12151W        W28335  18.596   0.152   0.964  0.0031  0.0450 -0.2147
12152W        W28336   6.920   5.030  14.360  0.0344  0.1071 -0.1924
12153W        W28337  14.406  12.963   3.276 -0.0078 -0.0180 -0.3818
12154W        W28338  13.467   6.566   2.928  0.0389 -0.1696  0.2261
12155W        W28339  18.338  15.709  10.972  0.2012  0.0378  0.1037
12156W        W28340   5.126  13.959  14.277 -0.1810 -0.1503  0.2202
12157W        W28341   4.348   2.469  11.999  0.2402 -0.0612  0.2448
12158W        W28342   7.265   5.405  13.435 -0.0004 -0.3796 -0.0553
12159W        W28343  18.070   3.711  12.708 -0.3333 -0.2985 -0.0502
12160W        W28344  12.920   5.716  12.827 -0.2777  0.1273  0.1163
12161W        W28345   9.448  13.172   4.516  0.0432 -0.0787  0.0652
12162W        W28346  18.908   7.586   4.242 -0.1253  0.2734 -0.0647
12163W        W28347   7.027  12.392   4.232  0.0590  0.1659 -0.0745
12164W        W28348  10.547   0.936  12.528 -0.1764  0.2442  0.1077
12165W        W28349   2.486  12.100  11.344 -0.0099  0.1191  0.0838
12166W        W28350  13.520   6.459   4.394 -0.1487  0.3317 -0.0993
12167W        W28351   3.043   7.114   1.741 -0.1962 -0.1802 -0.2388
12168W        W28352   6.769   3.504  14.130 -0.1376 -0.1166  0.1782
12169W        W28353  18.370   4.679  13.026  0.1348  0.1542  0.0815
12170W        W28354  18.511  16.586   4.609  0.3487 -0.0452 -0.1776
12171W        W28355   7.390   1.942  11.226  0.0120  0.1558 -0.0743
12172W        W28356  10.094  18.992  14.909  0.4213 -0.2432  0.0032
12173W        W28357   3.429   9.847  11.622  0.0409  0.0356  0.1075
12174W        W28358   0.490   2.642   1.857  0.1200 -0.2979 -0.4876
12175W        W28359   0.727   3.524  12.609  0.1470  0.1173  0.0378
12176W        W28360  10.806  17.182   3.112 -0.1550  0.1271 -0.1628
12177W        W28361  16.104   5.725  14.320  0.0046 -0.0313 -0.0061
12178W        W28362  15.105   7.322   1.389  0.0032  0.0623  0.0817
12179W        W28363  19.348  11.086   1.522  0.0527  0.2845  0.1279
12180W        W28364  19.226   8.168   2.821 -0.3420 -0.1668 -0.1371
12181W        W28365  15.904  12.180   2.402 -0.4463 -0.2167  0.0696
12182W        W28366   5.262  16.362   0.152  0.0197 -0.0625 -0.4747
12183W        W28367   1.870   6.843  12.599  0.0499  0.1237 -0.0524
12184W        W28368   2.613   2.856   0.972  0.3088 -0.0101  0.0373
12185W        W28369  12.990  10.332   0.519 -0.2007 -0.3118 -0.2097
12186W        W28370   0.348   5.602  13.209 -0.1758  0.0682  0.0489
12187W        W28371   7.816  12.234   0.943  0.0955  0.0537  0.2618
12188W        W28372   4.604  10.106  14.592 -0.0488  0.2362 -0.0077
12189W        W28373   4.824   1.844  12.688  0.0193 -0.3058  0.0086
12190W        W28374  16.077  14.189   2.727 -0.1500 -0.0532  0.2056
12191W        W28375  14.540   5.330  10.484  0.1056 -0.1062 -0.2080
12192W        W28376  18.737   3.755   4.233  0.0873  0.1414 -0.3201
12193W        W28377   5.386   8.753   3.214  0.1496 -0.1246  0.1101
12194W        W28378   4.270  16.646   0.513  0.4050 -0.3602 -0.0207
12195W        W28379   6.992   0.859   0.522  0.1655 -0.1921 -0.1888
12196W        W28380  15.365   5.910  11.073  0.0284 -0.2270  0.7530
12197W        W28381  11.418  13.570  14.374 -0.4330  0.1379 -0.2610
12198W        W28382  12.329   7.566  13.676  0.3311 -0.0141 -0.4974
12199W        W28383  11.135   1.482   2.993 -0.2284  0.2772  0.5527
12200W        W28384  15.791   5.999   1.742  0.1876  0.1239 -0.1905
12201W        W28385  18.106  12.242   0.664 -0.1314  0.1268 -0.3092
12202W        W28386   3.944  17.136   4.192  0.1759 -0.0226 -0.2331
12203W        W28387  12.584  19.097   2.808  0.3253 -0.1864  0.1776
12204W        W28388  16.036  10.797   2.574 -0.2840  0.0719 -0.4122
12205W        W28389  17.194  17.443  11.866 -0.1595 -0.0728  0.1305
12206W        W28390   0.757  16.983  14.734 -0.2822 -0.1723 -0.0526
12207W        W28391   8.012   9.397   5.131 -0.1951 -0.0044 -0.2239
12208W        W28392   7.459  15.940  14.469  0.2888  0.1640 -0.0091
12209W        W28393   9.602  16.233  10.300  0.2745  0.0274 -0.3067
12210W        W28394  18.317   3.432  14.146 -0.1354 -0.0488 -0.0380
12211W        W28395   1.757   9.272   3.079  0.2170 -0.2286 -0.0480
12212W        W28396  18.886   5.926   5.105  0.0644  0.0059 -0.2224
12213W        W28397   9.682   7.787  13.159 -0.0235 -0.0243  0.0495
12214W        W28398   6.508   4.029  11.471  0.1984  0.1182  0.1945
12215W        W28399   4.277   6.509  13.304 -0.0793  0.1626 -0.1538
12216W        W28400  15.109   7.889  10.660  0.3176  0.3195 -0.1720
12217W        W28401   8.449   0.234   0.131 -0.0678  0.1829  0.2030
12218W        W28402   4.169  13.824   2.322 -0.0193  0.2620 -0.2511
12219W        W28403  10.745   0.243   4.239 -0.1822  0.1341 -0.1335
12220W        W28404  16.662   0.743  12.821  0.0181 -0.0136 -0.1075
12221W        W28405   2.752  16.264  11.511  0.2423 -0.0673 -0.3650
12222W        W28406  16.096  14.418   1.462  0.0258 -0.1959  0.1089
12223W        W28407  13.343  13.028  10.524  0.1376 -0.3340 -0.1069
12224W        W28408   7.718  13.734   3.691 -0.0102  0.2300  0.0523
12225W        W28409   8.490  18.107   4.229  0.0641  0.2733  0.1358
12226W        W28410   1.036   0.906  11.806  0.0297  0.1525  0.1713
12227W        W28411  18.206   5.879  12.915 -0.4632 -0.0045 -0.0026
12228W        W28412   1.726  15.442  11.192  0.2489 -0.0522  0.2473
12229W        W28413  16.106  12.380  12.934  0.0046 -0.0691  0.4129
12230W        W28414   6.621   9.285   5.216  0.2546  0.0258  0.3853
12231W        W28415  13.315   1.556   3.259  0.0607 -0.5563 -0.4047
12232W        W28416   4.053   2.156   0.567 -0.0858 -0.2402 -0.0753
12233W        W28417   7.055   6.012  14.933 -0.0610  0.0310  0.0443
12234W        W28418  11.335   2.419   5.253 -0.1467 -0.1806 -0.0100
12235W        W28419   6.467  13.611   3.335  0.1521 -0.0935  0.0845
12236W        W28420  14.133  10.938   2.150 -0.1727  0.1262  0.3346
12237W        W28421  10.963   0.751   1.526  0.3441 -0.0452  0.0409
12238W        W28422  16.300   4.037  13.887 -0.2242  0.0602 -0.2885
12239W        W28423   1.082  15.556   0.810 -0.0516  0.1126  0.2180
12240W        W28424   5.115  16.375   4.293  0.2886 -0.0446  0.2178
12241W        W28425   9.191  13.215  13.297 -0.0267 -0.2595 -0.2378
12242W        W28426   5.231  14.637  13.558 -0.1885  0.3065  0.0144
12243W        W28427   5.122  13.342   5.196  0.3778 -0.1020 -0.1050
12244W        W28428   2.931  17.460  12.777  0.1066  0.0319  0.4468
12245W        W28429  18.789   3.007  14.706 -0.1286 -0.0432  0.1769
12246W        W28430  16.460   8.633   5.483  0.2039  0.0566 -0.1735
12247W        W28431  13.071   3.387   3.025  0.0438  0.1884 -0.1292
12248W        W28432   3.228   1.926   1.606 -0.0032 -0.0537  0.1924
12249W        W28433  16.937   8.492  12.089 -0.0412  0.2955 -0.3704
12250W        W28434   6.292   7.476   6.018  0.0724 -0.1887  0.0055
12251W        W28435   7.107  15.167   2.257  0.0590 -0.2201  0.0038
12252W        W28436   2.676  11.509   4.709  0.2454 -0.1678  0.2477
12253W        W28437   2.121  15.057   3.322 -0.2757 -0.2612  0.0438
12254W        W28438   5.017   8.752   5.509  0.1502 -0.3553 -0.1467
12255W        W28439   6.204   8.442  14.175 -0.2563 -0.0118 -0.2421
12256W        W28440   7.148  13.773  12.780 -0.0844 -0.1882 -0.1815
12257W        W28441   2.805  11.721   5.149 -0.0942 -0.3867 -0.2691
12258W        W28442   1.669   2.105   2.190  0.0522  0.0231  0.0165
12259W        W28443   9.339  17.243  10.964  0.1891  0.0398  0.1273
12260W        W28444  15.784   9.321   3.337  0.1339 -0.0749  0.1214
12261W        W28445  17.749   3.539  11.335  0.1587 -0.1464  0.0791
12262W        W28446  18.452  18.316  10.722  0.2223 -0.1634 -0.0804
12263W        W28447   8.377   6.798   1.785 -0.2470 -0.0101  0.1035
12264W        W28448  10.947   8.571   3.930 -0.0669  0.0379 -0.2585
12265W        W28449  18.807   5.950   4.638 -0.0496  0.0885  0.0155
12266W        W28450   5.332   1.956  12.582  0.2251 -0.1735 -0.1182
12267W        W28451   3.148  19.037   3.684 -0.2175 -0.1701 -0.3318
12268W        W28452   3.108   6.477   1.114  0.2910  0.2520 -0.0755
12269W        W28453  12.303  11.941  12.649  0.0123 -0.2907  0.2058
12270W        W28454   6.003  10.827  14.222  0.2243 -0.2754 -0.1820
12271W        W28455  13.316   1.766  14.694 -0.3313  0.2026 -0.0478
12272W        W28456   3.887  16.623   4.017  0.3651  0.2061  0.0351
12273W        W28457  11.270   8.756   9.216  0.1600  0.2124  0.1849
12274W        W28458   1.972  12.007   5.726 -0.1054 -0.2184  0.1434
12275W        W28459   7.506  10.328  14.441 -0.1032  0.1259  0.2946
12276W        W28460   4.514  10.383  13.545  0.0848 -0.2376 -0.1377
12277W        W28461   7.283  15.758  10.576 -0.1515 -0.1975  0.2090
12278W        W28462  13.859   2.079  13.979  0.1005  0.0873 -0.2194
12279W        W28463   1.946  12.874  11.833  0.0847 -0.0436  0.1901
12280W        W28464   4.811   7.595   3.517  0.5747 -0.0727 -0.1645
12281W        W28465  15.934   1.477  10.727 -0.2006 -0.2632 -0.1005
12282W        W28466   2.968   7.300   1.235 -0.2232 -0.1617 -0.3470
12283W        W28467  13.459   9.493  14.329  0.2608 -0.1269  0.2434
12284W        W28468  16.583   9.220  13.714 -0.1109 -0.3245  0.2607
12285W        W28469  18.183   5.585   3.145  0.1950  0.2932 -0.2915
12286W        W28470   9.410  16.349   0.523 -0.0796 -0.2385  0.2651
12287W        W28471  15.920   3.738  14.089 -0.3266 -0.0936 -0.0425
12288W        W28472  12.869   9.745  11.889 -0.0093 -0.0054  0.1146
12289W        W28473   9.898   7.398  13.557  0.2429  0.1324 -0.1680
12290W        W28474  19.268   5.262  13.437 -0.1401 -0.0018  0.3193
12291W        W28475  13.779  18.552   3.535 -0.0251 -0.0185 -0.1461
12292W        W28476  10.112  10.449   4.144 -0.3641  0.0493 -0.1187
12293W        W28477   8.190  18.238   3.692 -0.1834 -0.3286 -0.2868
12294W        W28478   6.294   2.802  14.762 -0.1921  0.4609  0.0017
12295W        W28479   3.032   8.042   3.511  0.1983 -0.1902  0.0359
12296W        W28480  12.859   8.244   3.905 -0.1200  0.0421 -0.1449
12297W        W28481  10.204  18.480   2.510 -0.0104 -0.4806  0.0968
12298W        W28482  13.618   9.229  13.679 -0.0162 -0.1650  0.0909
12299W        W28483   7.792  10.385  11.512  0.0213 -0.2543  0.0568
12300W        W28484  15.986   2.962   1.923 -0.2142  0.0105 -0.1535
12301W        W28485   3.421   9.309   5.470  0.0310  0.2723  0.0629
12302W        W28486   5.413   6.207   3.252 -0.0673 -0.0022 -0.2348
12303W        W28487  16.463   0.257   1.986  0.2719  0.2492 -0.0649
12304W        W28488   0.555   9.742  14.391  0.1062 -0.2794 -0.1083
12305W        W28489   4.679   3.847   1.488  0.0355  0.0919  0.0920
12306W        W28490  17.723   8.459  11.498 -0.3058  0.1079  0.3528
12307W        W28491  13.556   7.396  11.745 -0.0530  0.0181 -0.2193
12308W        W28492  15.772   1.438   9.902 -0.0681  0.0700  0.1871
12309W        W28493   6.354   9.049   4.243 -0.0804  0.1229  0.0431
12310W        W28494   6.394   4.186  14.313 -0.0510  0.0827 -0.0136
12311W        W28495  13.037   8.222  13.577 -0.1352  0.0340  0.4447
12312W        W28496  10.760  16.534   0.441 -0.2097  0.1837 -0.3845
12313W        W28497   8.253   8.458  12.018  0.1752 -0.0720  0.1445
12314W        W28498  18.521  11.312   4.543  0.0596 -0.3461  0.4457
12315W        W28499  14.997  18.137  13.793 -0.0063  0.2314  0.0728
12316W        W28500  13.532   3.379   3.362 -0.3207  0.1046 -0.0296
12317W        W28501   5.873  10.459   2.953  0.3375  0.2127  0.0628
12318W        W28502  10.383  18.387   8.915  0.2252  0.0272  0.0434
12319W        W28503  19.177   4.029  14.790  0.0848 -0.3749 -0.0035
12320W        W28504   3.707  19.275  11.406  0.1590  0.0623 -0.1792
12321W        W28505   1.395   7.273   3.876  0.0393  0.1125  0.1368
12322W        W28506  13.589  15.631   2.576 -0.0548  0.1537 -0.0903
12323W        W28507  13.815  10.932  10.762 -0.0063 -0.0753 -0.2117
12324W        W28508   5.088  17.284   3.914 -0.1215  0.1035 -0.1992
12325W        W28509  17.377   3.429   4.403 -0.2026 -0.0830 -0.2820
12326W        W28510  11.513  13.131  12.782  0.2575 -0.1224  0.0282
12327W        W28511  19.237   1.471  10.920 -0.0455 -0.3978  0.1179
12328W        W28512   2.156  14.404  11.857 -0.0066  0.1670 -0.0916
12329W        W28513  12.244  18.090  13.970  0.0792 -0.4277  0.1877
12330W        W28514   5.230   7.668   4.521  0.1666 -0.2177 -0.0556
12331W        W28515   9.030  14.331  14.378 -0.3487 -0.1912  0.0296
12332W        W28516   4.859  14.217   4.460 -0.1353 -0.2669  0.0720
12333W        W28517   7.026  18.951  11.135  0.2013  0.2034 -0.4870
12334W        W28518  12.731  13.361   1.095 -0.0870 -0.0336 -0.1200
12335W        W28519   2.634   0.049  14.172  0.1333 -0.0921 -0.1722
12336W        W28520  18.150  13.646  12.167 -0.0817 -0.0331 -0.2218
12337W        W28521   3.077   1.848   3.863  0.2550  0.1652 -0.0376
12338W        W28522  11.461   7.022   9.136 -0.0039  0.1602  0.4187
12339W        W28523   4.600   6.267   2.918 -0.2909 -0.1670  0.1899
12340W        W28524   8.071   2.612  14.456  0.0039  0.0657 -0.0005
12341W        W28525  19.268   0.642   3.796  0.0464 -0.2730  0.2316
12342W        W28526  16.587  16.965  13.588 -0.1788 -0.2076  0.4675
12343W        W28527   0.870  15.093   4.916  0.0677 -0.0651  0.1881
12344W        W28528   7.105  15.263  13.806  0.1510  0.1982  0.2277
12345W        W28529  10.758   3.520  11.779  0.4111 -0.1403 -0.0821
12346W        W28530   4.633   2.168   3.701  0.0674  0.0815 -0.3558
12347W        W28531  14.495   6.911   5.163  0.0871 -0.0856  0.0399
12348W        W28532   0.242   7.648  11.777  0.2772  0.1333 -0.1427
12349W        W28533  16.152  12.986   1.252  0.2066  0.1705  0.0159
12350W        W28534   6.160   2.033  12.482  0.0825  0.1888 -0.1279
12351W        W28535  18.408  11.805  14.580  0.6797  0.0895 -0.1740
12352W        W28536  15.305   5.913  14.310 -0.1440 -0.0122  0.1371
12353W        W28537  17.656   8.527   2.924  0.0281 -0.0990  0.2394
12354W        W28538  10.882  15.941   2.383  0.1134 -0.0497 -0.0238
12355W        W28539  12.429  12.348  13.141 -0.0942 -0.1193  0.0536
12356W        W28540  14.038  10.127   0.738  0.2018 -0.1002 -0.0835
12357W        W28541   6.775  15.390   2.621 -0.0399 -0.2548  0.1311
12358W        W28542   8.566   9.847   1.157  0.0409 -0.3381 -0.2310
12359W        W28543   0.474   7.983   2.053 -0.1709 -0.2196 -0.1504
12360W        W28544  14.466  14.773   9.856 -0.1153  0.0719 -0.2560
12361W        W28545  18.003  15.159   0.426  0.0176  0.0347  0.1353
12362W        W28546   1.756  17.906   3.200  0.1055 -0.2309 -0.0275
12363W        W28547  18.657   0.304  10.337  0.0800  0.2890 -0.1329
12364W        W28548   2.722  13.640   0.769  0.1116  0.0663  0.1725
12365W        W28549  11.007  15.460   2.716  0.2242 -0.2255 -0.3186
12366W        W28550  15.133   1.693  10.309 -0.2309  0.1093 -0.0800
12367W        W28551   3.858  18.207  11.502  0.2756 -0.1312  0.1547
12368W        W28552  16.777  10.515   4.995 -0.0116 -0.0943  0.0663
12369W        W28553  16.049  18.192   1.774  0.1397 -0.1703  0.0483
12370W        W28554   4.301   6.759  10.111 -0.2022  0.2119  0.2417
12371W        W28555   4.527   7.757  14.094  0.0645  0.0029 -0.0824
12372W        W28556  13.646  19.022   3.444 -0.0893  0.2982 -0.1950
12373W        W28557  11.277  12.447   0.433  0.0144 -0.2316  0.2516
12374W        W28558  14.256   5.198   3.100 -0.1335 -0.2108 -0.2899
12375W        W28559   0.568  17.494  14.831  0.0751  0.0533 -0.2003
12376W        W28560  11.465   9.402  12.536 -0.1592 -0.0808  0.0522
12377W        W28561  14.676  12.678   4.339 -0.1488  0.0928  0.1654
12378W        W28562  13.259  10.048  10.622  0.0899  0.3476 -0.0070
12379W        W28563   9.534   2.300  12.504  0.1758 -0.2100 -0.2144
12380W        W28564   2.093   4.085  11.960  0.0055  0.1378 -0.1346
12381W        W28565   1.729   4.525  14.295 -0.0789  0.5235  0.0708
12382W        W28566  14.830  12.867   0.520  0.3456  0.0417 -0.1883
12383W        W28567  14.603   7.749  10.494  0.1195  0.0206 -0.1860
12384W        W28568  18.688  13.071   0.482  0.0106  0.1096  0.2702
12385W        W28569   8.710   8.231   1.379 -0.3725 -0.2467  0.0006
12386W        W28570   2.537  10.739  10.104 -0.0800 -0.1036 -0.2137
12387W        W28571  14.571   8.038  13.712  0.0977 -0.0832 -0.0205
12388W        W28572   1.670   9.435  12.718 -0.1400 -0.1220 -0.0138
12389W        W28573  12.905  18.056   3.676 -0.0489  0.0522  0.3692
12390W        W28574   0.556   9.937   3.404  0.1489 -0.1432 -0.0294
12391W        W28575  19.248   2.885   3.333 -0.3496  0.2336  0.1783
12392W        W28576  18.509  19.358   2.364 -0.2128 -0.0715 -0.2100
12393W        W28577   8.971  16.883  10.777  0.0532  0.1279 -0.0592
12394W        W28578   0.896   0.288   4.045  0.0815 -0.1713 -0.1894
12395W        W28579  14.003   5.943  11.307  0.2729 -0.1210 -0.2912
12396W        W28580   2.378  15.549  12.606  0.2120  0.2073 -0.2963
12397W        W28581  12.530   2.927  14.072 -0.0465  0.3536 -0.2110
12398W        W28582   8.399  19.253  11.447 -0.1351 -0.2420 -0.1291
12399W        W28583  14.607   5.908  10.460 -0.2863  0.2445 -0.0556
12400W        W28584   2.736   0.132  14.924 -0.0371 -0.0762  0.1243
12401W        W28585   1.656  16.027   5.465  0.3271 -0.1972  0.1702
12402W        W28586  14.130  16.928  11.516 -0.2494  0.0596 -0.2218
12403W        W28587   5.752  14.356   2.001  0.2223  0.1943 -0.1638
12404W        W28588  10.141   2.624  13.814  0.0979  0.1630  0.2298
12405W        W28589  15.679  12.852   1.149 -0.0621  0.2200  0.1246
12406W        W28590   7.879  18.403  14.941 -0.0023 -0.2912  0.1952
12407W        W28591   7.448   4.491   1.924  0.1935  0.0533  0.0069
12408W        W28592  14.700  17.305   1.007 -0.1121 -0.1468  0.0805
12409W        W28593  17.004  18.950  10.630  0.0132 -0.1142 -0.1810
12410W        W28594   5.357  18.566  11.995 -0.0381 -0.1634  0.1152
12411W        W28595   7.022  16.833   1.585 -0.1352  0.1308 -0.0766
12412W        W28596   7.771   4.525   4.308 -0.0464  0.2071 -0.0439
12413W        W28597  15.282   8.676   2.540  0.0574 -0.2340 -0.4477
12414W        W28598  16.781   3.191   9.197 -0.2575 -0.0390  0.3603
12415W        W28599   2.491  16.436   4.106 -0.3813  0.1560 -0.0157
12416W        W28600  16.268  14.353   3.768 -0.2781  0.4294 -0.0966
12417W        W28601   3.208   4.959  13.460  0.1042 -0.3122  0.1985
12418W        W28602   1.726  14.613  11.118  0.1673 -0.0478  0.0466
12419W        W28603  13.432  12.203  12.033  0.1186 -0.1481  0.1211
12420W        W28604  12.131   0.084   3.667  0.2037  0.2781 -0.3435
12421W        W28605   4.207   9.630  14.671 -0.0129 -0.0509  0.0446
12422W        W28606  16.804   9.999   4.913  0.1965  0.0398  0.1778
12423W        W28607  17.855  17.213  11.622 -0.1017  0.1128 -0.2772
12424W        W28608   0.911   5.094   4.325 -0.1353 -0.2514  0.1291
12425W        W28609  15.580  18.063   0.284  0.0051 -0.1788 -0.3725
12426W        W28610  13.295  15.169   2.430  0.0257  0.1070 -0.2379
12427W        W28611  11.226   1.229  13.277 -0.0852 -0.0190 -0.3876
12428W        W28612   1.901  13.224  14.239  0.1952 -0.1049 -0.0671
12429W        W28613  12.297  14.742  11.969  0.1001  0.0134 -0.2904
12430W        W28614   6.653  15.868  14.796  0.0362  0.0881 -0.3984
12431W        W28615  10.614  18.159   2.384 -0.3196  0.0908 -0.0151
12432W        W28616  10.588   7.309  14.092  0.3079  0.0152 -0.2282
12433W        W28617  10.773   2.101  14.211 -0.2024 -0.2790  0.0182
12434W        W28618  14.514  12.605   2.589  0.0835 -0.3766 -0.1973
12435W        W28619  11.686   1.221   0.232  0.0296 -0.1402 -0.1152
12436W        W28620  17.369  18.038   3.039  0.0123  0.5454  0.2233
12437W        W28621   4.889  13.083   4.652  0.3970 -0.2764 -0.2633
12438W        W28622   4.885   2.829   1.274 -0.0686  0.1004  0.1805
12439W        W28623   3.966  10.873   0.901  0.1222  0.0259  0.1350
12440W        W28624  14.298   6.018  10.925 -0.3665 -0.2957  0.3513
12441W        W28625   9.806  11.438  14.147  0.2632 -0.1553  0.0037
12442W        W28626   5.528   2.016   5.393  0.0107  0.0458  0.1775
12443W        W28627   0.955  10.026   3.893 -0.0462 -0.1392 -0.0157
12444W        W28628   3.034   5.096   4.792 -0.0124  0.3056 -0.0438
12445W        W28629   6.899  13.578   1.741 -0.0407 -0.1781  0.0148
12446W        W28630  16.387   7.344  11.083  0.0216 -0.0864  0.0715
12447W        W28631   5.391   1.880  14.367 -0.0819  0.2182 -0.2146
12448W        W28632  11.586  15.454  11.188  0.1195  0.0627  0.1764
12449W        W28633  16.870   2.443   1.726  0.0774  0.1060  0.2660
12450W        W28634   3.500   8.704   2.303 -0.2481 -0.0689 -0.0413
12451W        W28635   6.453  16.899   1.372 -0.2623  0.2698 -0.0112
12452W        W28636  15.520   4.700   1.513 -0.0972 -0.1130  0.3937
12453W        W28637   1.487  16.604   3.245  0.1220 -0.4887 -0.1121
12454W        W28638  13.047   3.335  13.855 -0.0271  0.0626  0.1378
12455W        W28639   9.999   7.753  14.901  0.0149 -0.1571  0.0083
12456W        W28640   6.469   2.677  12.982  0.0936 -0.0812  0.3502
12457W        W28641   6.570  17.256  14.708 -0.0638 -0.2978  0.1374
12458W        W28642  12.169   8.224  12.404  0.0311  0.0652  0.2629
12459W        W28643  14.992   8.595  11.110  0.3855  0.2807  0.0583
12460W        W28644   0.707  14.235   4.512  0.2854 -0.0460  0.0682
12461W        W28645   3.372   1.051  11.902 -0.2302 -0.0547 -0.3750
12462W        W28646   3.625  11.454   2.663  0.0807 -0.0234  0.0180
12463W        W28647   3.162   2.647  14.675  0.1143  0.1676 -0.4554
12464W        W28648  10.904   3.694   5.067  0.1001 -0.1667 -0.1691
12465W        W28649  12.638  13.762  13.339  0.1239 -0.2273 -0.2481
12466W        W28650   9.977   9.994  14.586  0.3371 -0.5428  0.0849
12467W        W28651  12.568  10.957  13.519  0.0754 -0.1878 -0.1171
12468W        W28652  18.424   7.166  12.588  0.1035 -0.2170  0.0653
12469W        W28653   2.741  19.019   3.954  0.5010 -0.0359  0.2328
12470W        W28654  11.959  14.091   0.100  0.0115  0.0309  0.0002
12471W        W28655   8.838  14.859  14.626 -0.2437  0.3168 -0.1607
12472W        W28656   8.044  12.477  14.210 -0.3435 -0.0496  0.1783
12473W        W28657  16.706  17.095   1.093 -0.0255  0.0581  0.0592
12474W        W28658   0.191   2.730   3.647  0.2128  0.1637 -0.0260
12475W        W28659  12.491  10.250   0.635 -0.0128 -0.1867  0.1961
12476W        W28660   3.209  17.319  12.365 -0.3045  0.0906  0.0433
12477W        W28661  10.727  13.411  13.537  0.1747  0.1542 -0.0796
12478W        W28662   9.025   8.812  12.666 -0.3589 -0.0526 -0.1755
12479W        W28663  15.737   0.463   1.068 -0.0595  0.0573  0.1532
12480W        W28664   1.087   8.174  12.437 -0.2538 -0.2455 -0.0112
12481W        W28665  13.673  15.355   2.148 -0.0135 -0.2348 -0.2916
12482W        W28666   8.653  18.642  11.732  0.2551  0.1096  0.1129
12483W        W28667   7.107  19.300  14.732  0.2897 -0.1448 -0.2106
12484W        W28668   2.090  17.735   4.067 -0.0243  0.1078 -0.0861
12485W        W28669  10.416   0.007  10.397  0.1419 -0.0791 -0.0176
12486W        W28670   8.584  18.227  13.218  0.1323  0.0531 -0.0836
12487W        W28671   5.862  18.686  12.073 -0.4370 -0.3089  0.2775
12488W        W28672  17.884   1.587  14.377 -0.2783  0.2518  0.4628
12489W        W28673   0.286  10.902  10.906 -0.2589 -0.0160  0.2417
12490W        W28674   1.058  12.065   3.842 -0.0897 -0.2363 -0.4034
12491W        W28675  15.654   8.218   3.387 -0.0842  0.1617  0.0165
12492W        W28676  10.545  13.544   2.444 -0.0098  0.0327  0.0698
12493W        W28677  16.484   5.493   1.860  0.1827  0.0997  0.0267
12494W        W28678  11.760  14.221   2.597  0.0883  0.0103  0.2808
12495W        W28679  14.383  15.065  13.832 -0.1390 -0.3112  0.0326
12496W        W28680  11.638  17.075  11.706 -0.0266 -0.1030 -0.0144
12497W        W28681  17.064  16.950   9.118 -0.1354 -0.1590  0.2342
12498W        W28682  18.807  14.226  11.741 -0.0456  0.1109 -0.1901
12499W        W28683   3.717   3.851   1.438  0.0426  0.3875  0.1973
12500W        W28684   0.663  10.382   1.961 -0.0595 -0.1569 -0.0366
12501W        W28685  18.455   4.601   3.558  0.1033 -0.1619  0.2989
12502W        W28686   1.216  13.266   2.907 -0.0270 -0.0458 -0.0538
12503W        W28687  16.054  14.905   0.630 -0.2960 -0.0819 -0.1067
12504W        W28688  15.281   2.275  13.320  0.2448  0.0557  0.3622
12505W        W28689   3.034  11.965  10.925 -0.1147 -0.0136  0.0123
12506W        W28690   1.562  17.328   5.694 -0.0218  0.1012  0.0629
12507W        W28691  11.413  14.230   0.624  0.2274 -0.0615 -0.1656
12508W        W28692   6.977   0.189   2.302  0.0423 -0.1770 -0.4718
12509W        W28693   0.830   2.446   2.134  0.1758  0.1012  0.0678
12510W        W28694   4.697   0.609  14.093 -0.1872  0.1107 -0.1379
12511W        W28695  11.033  18.792   0.544 -0.1881 -0.1958 -0.0551
12512W        W28696  12.028  10.363   0.726  0.0771 -0.0539 -0.0695
12513W        W28697   1.825  14.137   5.667 -0.2879 -0.2016 -0.0044
12514W        W28698   2.151  18.414  12.061  0.0078  0.1088 -0.0056
12515W        W28699  13.416   8.512  12.898  0.1233  0.2114 -0.1376
12516W        W28700  15.113   5.435   1.093  0.1083 -0.2958 -0.3559
12517W        W28701   7.424  12.965   1.848  0.0105  0.3131 -0.0667
12518W        W28702  12.331   8.522   4.078 -0.1061 -0.2484 -0.1875
12519W        W28703  16.393   2.663   1.700  0.0263 -0.1440 -0.2910
12520W        W28704   7.205   1.315   0.613  0.1636 -0.0553  0.0798
12521W        W28705  15.470  13.274   0.940  0.2397 -0.2476 -0.0311
12522W        W28706   4.580  14.378   2.745  0.1113 -0.3048  0.0178
12523W        W28707  10.256  15.486   3.518  0.0520 -0.1498  0.2864
12524W        W28708   0.316  10.717   1.768  0.1586 -0.1584 -0.1270
12525W        W28709   8.600   3.096   3.005 -0.0660 -0.2587  0.2785
12526W        W28710   5.375   1.314  13.238 -0.1642 -0.2979  0.0522
12527W        W28711   5.251  12.939   9.757  0.3536 -0.1134  0.1084
12528W        W28712  14.023   3.518  12.794 -0.1954  0.0160 -0.1478
12529W        W28713  18.230  11.305  14.405 -0.2932 -0.1248  0.0648
12530W        W28714  17.075   8.061   0.742 -0.2939  0.0309  0.2095
12531W        W28715  15.548  19.157   0.252  0.2767 -0.0375 -0.2952
12532W        W28716   4.845   5.512   2.146  0.1350 -0.1150 -0.0349
12533W        W28717   2.354   4.017   5.468 -0.0840 -0.4315 -0.4230
12534W        W28718  10.952   4.244   1.237 -0.0512  0.1488  0.1021
12535W        W28719   4.140   4.306  13.846 -0.2662  0.1944  0.0864
12536W        W28720  17.255   1.382  13.624  0.2754 -0.1793  0.0435
12537W        W28721  17.063  14.939   1.390  0.3869  0.5880 -0.1871
12538W        W28722   0.011  16.465  14.287 -0.2285  0.3073  0.0477
12539W        W28723  17.708  15.388  12.575  0.0293 -0.1962 -0.0305
12540W        W28724   2.456  12.059  14.438  0.1030  0.1615 -0.1429
12541W        W28725  10.637   7.447  11.474  0.4069 -0.1950 -0.4942
12542W        W28726   2.347   9.000  11.276 -0.1379  0.0345  0.1840
12543W        W28727  17.620  12.206   3.649  0.0053  0.1257 -0.0724
12544W        W28728   5.681  17.636  12.359 -0.3136 -0.6275 -0.0151
12545W        W28729   0.049   3.971   5.504  0.1867  0.0184  0.0552
12546W        W28730  19.343   4.302  12.322 -0.0626  0.1189 -0.1688
12547W        W28731  10.963  14.904  13.547  0.1315 -0.0043  0.2288
12548W        W28732   0.716  14.124   1.144  0.1666 -0.1804 -0.0687
12549W        W28733  19.020   7.193  11.896  0.0091  0.2247  0.0554
12550W        W28734  15.614   9.648  10.258  0.3713 -0.2053 -0.2383
12551W        W28735   6.451   4.415   4.883 -0.1599 -0.0278 -0.1166
12552W        W28736   2.871   3.749  13.563 -0.3087 -0.3244  0.1959
12553W        W28737  18.487   6.834  14.950 -0.3076 -0.1613 -0.1193
12554W        W28738  14.209   3.436  14.206 -0.0201 -0.0605 -0.1115
12555W        W28739   6.982   3.636  11.903 -0.2018  0.1961 -0.2082
12556W        W28740   5.610   3.254   0.372  0.1118 -0.0159 -0.2646
12557W        W28741   8.998  15.356   0.684  0.4825  0.2677 -0.0703
12558W        W28742   8.046   7.758  14.326  0.1568  0.1612  0.1493
12559W        W28743   2.951   4.533  13.132 -0.0712 -0.5684  0.0427
12560W        W28744  12.652   4.259   4.915  0.1627 -0.0115  0.0069
12561W        W28745  14.076   4.616  12.913 -0.0945  0.2712  0.4576
12562W        W28746   3.037   6.900   2.239  0.0398 -0.5396  0.1964
12563W        W28747  15.336   9.355   1.894 -0.2645  0.0271  0.1678
12564W        W28748   6.785   0.594  11.393 -0.0142 -0.1868  0.0710
12565W        W28749   7.921   5.272   0.388  0.0706  0.0457  0.2876
12566W        W28750   4.105   8.451   0.995 -0.1262  0.0211 -0.2240
12567W        W28751   1.125   7.922   0.391  0.0201 -0.2917 -0.2155
12568W        W28752   7.331   3.343  13.057  0.0623 -0.1530  0.0077
12569W        W28753   9.754   0.180   4.267 -0.2625 -0.2057 -0.2162
12570W        W28754  14.642  12.139  13.834 -0.0331  0.3657 -0.0374
12571W        W28755  15.688  14.722   3.259 -0.0889 -0.0685  0.1637
12572W        W28756  13.494   4.105   4.282  0.0697  0.2272 -0.1591
12573W        W28757   1.961   1.409   2.603  0.0487  0.1443  0.1618
12574W        W28758   3.816  16.432   0.262 -0.0859 -0.1173  0.2055
12575W        W28759   3.130   2.975   4.401 -0.1011 -0.2275  0.2649
12576W        W28760  16.959   0.966   3.083  0.2098 -0.1679 -0.0957
12577W        W28761   0.793   7.628   0.717  0.3339  0.0943 -0.3545
12578W        W28762  18.334  16.124  10.424  0.0898 -0.1067 -0.0357
12579W        W28763  15.280  16.636   1.962  0.1040 -0.2183 -0.2683
12580W        W28764   9.441  18.185   1.853 -0.0717 -0.0227  0.2247
12581W        W28765  18.771  13.531   5.170  0.0099  0.1102 -0.2828
12582W        W28766   2.853  11.354   0.370 -0.1618 -0.0047  0.0780
12583W        W28767   5.378   6.190  13.979 -0.3161 -0.3844 -0.0425
12584W        W28768  13.907   3.594   3.720  0.1024  0.1662 -0.0031
12585W        W28769   6.175  17.210  11.169 -0.1455  0.1535  0.0877
12586W        W28770  17.778   4.372  14.073 -0.4903 -0.1332  0.1393
12587W        W28771   6.676   9.591   0.674 -0.0805  0.1879 -0.1144
12588W        W28772  15.228  18.944  12.501  0.1198  0.3142  0.1375
12589W        W28773   7.821  10.092   1.802 -0.1569 -0.0857  0.0209
12590W        W28774  11.180   9.432  14.528  0.0233  0.3999 -0.0487
12591W        W28775   5.502  15.604   3.802 -0.0447 -0.3084 -0.0909
12592W        W28776  11.094  13.822   0.956 -0.3535 -0.1258  0.2904
12593W        W28777   5.961  19.368  11.464 -0.2344 -0.1234 -0.2772
12594W        W28778   0.133   0.281  12.082 -0.0627  0.3407  0.2104
12595W        W28779  12.677   7.388   1.217  0.0292  0.0455 -0.2110
12596W        W28780   7.512  11.996   4.304 -0.0807 -0.1174  0.0110
12597W        W28781   0.482  16.321   0.795 -0.1918  0.3541 -0.0325
12598W        W28782   4.717   0.351  12.045 -0.2331 -0.3115 -0.1196
12599W        W28783  16.020   2.253  11.296 -0.2130  0.2833  0.0068
12600W        W28784   8.749   5.876  11.483  0.0229  0.0691 -0.1433
12601W        W28785   9.377   7.159   2.349 -0.0729 -0.2880 -0.0143
12602W        W28786   8.078  17.089  10.057  0.0604 -0.2977 -0.1952
12603W        W28787   5.555  17.779  13.054  0.0765  0.0662 -0.0669
12604W        W28788   0.122  11.973   2.132  0.0137 -0.3220  0.1222
12605W        W28789  10.859   3.386   4.648 -0.2012  0.0530 -0.1209
12606W        W28790   8.499   9.929   2.692  0.0078 -0.3071 -0.1001
12607W        W28791  10.426   7.848   3.799  0.4066  0.1809 -0.0762
12608W        W28792  10.649   9.211   4.441  0.1867  0.0017 -0.1037
12609W        W28793   9.911   6.412   2.884 -0.2537  0.0445 -0.0679
12610W        W28794  10.452  14.968   2.807  0.1440  0.0015  0.1193
12611W        W28795  14.139   8.887  10.241 -0.2252 -0.0106  0.0001
12612W        W28796   8.967   7.394   2.348  0.2406 -0.0261 -0.0580
12613W        W28797   4.865  18.867   4.240  0.2115 -0.1862 -0.0773
12614W        W28798   8.926   2.897  14.046  0.0808  0.3279 -0.4103
12615W        W28799   6.338   7.064   5.110  0.2038 -0.0094 -0.2317
12616W        W28800   5.115  15.491   2.138  0.0830 -0.1662 -0.0944
12617W        W28801  11.782   7.938  12.944  0.4180  0.1903 -0.2041
12618W        W28802   8.527   2.745  10.817 -0.2611  0.1433  0.0564
12619W        W28803   3.382   7.307  11.673  0.0041  0.3331 -0.1240
12620W        W28804  10.420  14.627   9.140  0.2622  0.1302 -0.2898
12621W        W28805  10.554   5.948  12.086 -0.2987 -0.1768  0.2324
12622W        W28806  16.252  15.540   3.084  0.1401 -0.4162 -0.0754
12623W        W28807  11.611   4.729  14.705 -0.0237  0.2740  0.0025
12624W        W28808  14.540   0.863   2.543 -0.1802 -0.0046  0.2704
12625W        W28809  12.874   1.751  14.945 -0.2402 -0.0348 -0.1764
12626W        W28810  12.277   5.186  13.356  0.1073  0.0637 -0.1012
12627W        W28811  12.770  14.808  10.945 -0.1274 -0.0390  0.1228
12628W        W28812   6.053   7.260   1.162  0.3297 -0.1230  0.3642
12629W        W28813  10.213  14.895  14.099 -0.1312  0.0549  0.2629
12630W        W28814   5.339  10.204   1.576  0.1771  0.3010  0.0215
12631W        W28815   3.110   9.619   5.607  0.0691  0.3484  0.0539
12632W        W28816   0.692   1.303  11.852  0.3360 -0.0191  0.0931
12633W        W28817  15.795  17.762   1.758  0.0871 -0.2559 -0.1235
12634W        W28818   1.859  18.051  10.360 -0.0360  0.3126  0.0078
12635W        W28819  10.626  16.341   5.200  0.1791  0.0151 -0.0962
12636W        W28820   6.791  16.548   0.028  0.1628  0.2878  0.3903
12637W        W28821  12.630   4.986  13.025 -0.0685  0.2696  0.1848
12638W        W28822   0.068  12.044   0.704  0.0686 -0.0618 -0.2147
12639W        W28823  17.396   2.096  11.186  0.2591 -0.3732  0.1974
12640W        W28824  17.715  11.579   4.042  0.0672  0.3180 -0.1054
12641W        W28825   1.097   4.425  12.803 -0.2333  0.0100 -0.0675
12642W        W28826   1.784   1.000  12.222 -0.2514  0.0505 -0.0955
12643W        W28827   3.796   4.796   1.888 -0.0499 -0.1420 -0.0422
12644W        W28828  13.999   8.775  12.396  0.1302  0.1320 -0.1001
12645W        W28829  15.860   6.414  12.438  0.2426 -0.0030 -0.1058
12646W        W28830   9.449   5.128   5.589 -0.2810 -0.0918  0.0126
12647W        W28831  13.111  17.084  10.839 -0.2037 -0.0893 -0.0855
12648W        W28832  11.901   4.732  14.291  0.1719  0.0990  0.1439
12649W        W28833  10.015   3.158   1.205  0.1272  0.2681 -0.0869
12650W        W28834  15.688   8.045   1.749  0.0533 -0.4200 -0.2302
12651W        W28835  12.849  12.053  13.030  0.1002 -0.0775  0.2313
12652W        W28836   4.201  13.453   0.784 -0.1415  0.1289 -0.1858
12653W        W28837   1.464  17.964   0.628  0.3496 -0.1121  0.0509
12654W        W28838  15.759   3.795  11.746  0.1366 -0.3504  0.2373
12655W        W28839   5.059  14.169  13.821  0.0518 -0.2218  0.2931
12656W        W28840  17.214  10.521  10.299  0.1705 -0.3948  0.0810
12657W        W28841   7.210  15.144   1.229  0.3070  0.0626  0.2192
12658W        W28842  10.407  16.118   2.272 -0.1485  0.3781 -0.0964
12659W        W28843   3.682  18.787   0.519  0.2725  0.3465 -0.1180
12660W        W28844  11.509  17.180  14.287 -0.0955 -0.1190  0.2166
12661W        W28845  15.253   1.700  12.224 -0.1339 -0.2307  0.2668
12662W        W28846   0.299   9.266  13.177 -0.1166  0.2341  0.0317
12663W        W28847   4.109   6.366   1.469  0.0850  0.0468 -0.1595
12664W        W28848  11.574  11.010  12.106  0.0019 -0.0779  0.0270
12665W        W28849   4.342   5.987   1.667  0.0579 -0.0077  0.1577
12666W        W28850  16.729  16.713   1.788  0.0219  0.0907 -0.2753
12667W        W28851   5.430  14.668   3.979  0.2481  0.0852 -0.3539
12668W        W28852   5.991  10.140   5.824 -0.1125 -0.0290  0.0929
12669W        W28853   9.283   7.294   4.796  0.3698  0.2891 -0.2432
12670W        W28854   8.054  16.085   2.721  0.0110  0.0068  0.1383
12671W        W28855  14.094  10.545   2.914  0.1275  0.0894 -0.0324
12672W        W28856   0.794  15.206   9.490 -0.0501 -0.0786  0.0870
12673W        W28857  18.487   7.504   0.668 -0.1084 -0.3567 -0.1720
12674W        W28858  14.703   2.604  11.973 -0.0470 -0.2322  0.0172
12675W        W28859   6.226   5.426  12.625 -0.1391  0.0091 -0.1782
12676W        W28860   1.842  12.022   0.643 -0.0067 -0.0731 -0.0417
12677W        W28861  14.980   0.754   1.535  0.2563  0.0270 -0.0857
12678W        W28862  14.709  11.713   3.428  0.0157  0.0535 -0.0494
12679W        W28863  18.098   1.006   0.779 -0.3174  0.0118 -0.1118
12680W        W28864  10.856  18.559  13.207 -0.1942  0.1031  0.2498
12681W        W28865   7.815   3.058   0.066  0.0438  0.0845  0.4387
12682W        W28866  18.713   6.167  10.764 -0.1281 -0.1869 -0.1443
12683W        W28867  10.111   5.663   3.604 -0.2150 -0.4436 -0.0200
12684W        W28868  17.048   9.818   0.533 -0.4417  0.0565  0.1352
12685W        W28869   3.650   8.827  11.792 -0.1202 -0.1106 -0.2425
12686W        W28870   3.007  13.659   5.586 -0.3501 -0.1581  0.0785
12687W        W28871  11.058   3.476  13.193  0.2109 -0.2336 -0.0541
12688W        W28872   2.237  13.349   4.188  0.2411  0.1706  0.1546
12689W        W28873   6.189   4.467   1.031 -0.0971 -0.1465 -0.2777
12690W        W28874  16.462  10.749   1.478 -0.0703 -0.0125  0.1914
12691W        W28875   3.004   2.424  10.924 -0.0827  0.0406  0.1318
12692W        W28876  10.651  16.645  12.096 -0.0901  0.2531  0.3855
12693W        W28877  14.861  11.360   1.958  0.1692  0.0523 -0.1332
12694W        W28878  10.702  14.614  10.661  0.1508  0.2492  0.1964
12695W        W28879   1.720   0.970   1.057 -0.1113  0.0142 -0.1872
12696W        W28880   6.632   4.398  13.874  0.3564 -0.0591  0.4248
12697W        W28881  14.143  10.593   0.972 -0.0306 -0.1413  0.0977
12698W        W28882   8.981   8.372  12.146  0.1214 -0.2537 -0.0638
12699W        W28883   6.009   5.294  13.116  0.1005 -0.1117 -0.3825
12700W        W28884  15.063   7.557   5.001  0.0185 -0.0252 -0.2354
12701W        W28885  17.971   6.358   4.409 -0.0642 -0.0380  0.0461
12702W        W28886   2.581  14.874   0.721 -0.2801 -0.0069  0.2233
12703W        W28887   2.308  11.166   9.990 -0.4133 -0.1599 -0.2817
12704W        W28888   7.237  17.958  12.696 -0.0662  0.3253  0.0361
12705W        W28889   7.754  12.793  12.586 -0.4605 -0.0935 -0.2723
12706W        W28890   1.795  11.236  13.213 -0.1469 -0.0980 -0.1707
12707W        W28891   8.653   8.719  13.142  0.0439  0.2858  0.2414
12708W        W28892   0.018  13.408   4.757 -0.4391 -0.2914  0.2051
12709W        W28893  10.303   9.181  14.927  0.2587  0.3145 -0.0788
12710W        W28894  17.315  17.524  12.361 -0.0532 -0.4148  0.2464
12711W        W28895  12.380   4.660   4.753  0.3752 -0.1531  0.0202
12712W        W28896  14.617  18.356  12.588  0.0003 -0.0278 -0.0004
12713W        W28897  18.548   5.033   0.787 -0.1944 -0.1027  0.1259
12714W        W28898  18.548   1.553  13.955  0.0382  0.0811 -0.2814
12715W        W28899   6.923   9.504   2.997 -0.4357  0.0764 -0.1919
12716W        W28900   2.763  11.916   5.593 -0.0127 -0.2218 -0.0190
12717W        W28901  14.521   6.185   9.677 -0.0358  0.2780 -0.0295
12718W        W28902  16.492  13.707  14.506  0.4551  0.1472  0.1978
12719W        W28903  13.771  19.189  12.938 -0.1275 -0.0741  0.0401
12720W        W28904  18.738  18.691  10.315  0.0056 -0.0432  0.0373
12721W        W28905  10.094   5.741   0.909  0.0726  0.0556 -0.1756
12722W        W28906   4.040   9.181   5.999 -0.0221  0.1431  0.0759
12723W        W28907  18.382   3.323   3.003  0.0523  0.2138  0.0857
12724W        W28908   9.935  14.866   2.789  0.1201  0.0313 -0.2956
12725W        W28909  15.750   3.324  12.954  0.1301 -0.1869 -0.2144
12726W        W28910  13.256  12.127  14.747 -0.1237 -0.2124 -0.1167
12727W        W28911   7.280   0.264   5.662  0.0684  0.0416  0.0571
12728W        W28912  17.964   2.783  13.117  0.0369 -0.2033  0.0272
12729W        W28913  14.238   4.373   2.770 -0.1194 -0.0578  0.0522
12730W        W28914   2.716   5.209  11.694  0.4907  0.1317 -0.2930
12731W        W28915   7.099   3.702  10.368  0.1431  0.0130  0.1276
12732W        W28916   7.938   7.333   4.585  0.0207  0.4571 -0.2137
12733W        W28917   7.871  11.061   3.280 -0.0068  0.0179 -0.0371
12734W        W28918  19.232   0.553  13.834 -0.0213 -0.1995 -0.4726
12735W        W28919   0.353  14.477   1.900  0.1523 -0.2064  0.0475
12736W        W28920   5.986  17.919   3.550 -0.2030  0.1943  0.1449
12737W        W28921  18.049  11.215  11.611  0.0375 -0.1024 -0.1470
12738W        W28922  15.303   8.595  14.241  0.0912  0.0525  0.0913
12739W        W28923  16.667   7.888   1.558  0.3026  0.0947  0.0598
12740W        W28924  11.756   5.166   1.106 -0.4809 -0.1499 -0.2660
12741W        W28925   1.020  13.077   0.753 -0.0107 -0.3021 -0.1030
12742W        W28926   0.969   4.944   0.562 -0.0461 -0.0400 -0.2548
12743W        W28927  16.690   8.424  10.803  0.0217  0.1213  0.4732
12744W        W28928  10.031  16.869   4.807 -0.1923 -0.0662 -0.1017
12745W        W28929   7.426   8.909  10.809 -0.0780  0.0634 -0.0499
12746W        W28930  11.479   3.238   3.512 -0.3588 -0.1645 -0.1474
12747W        W28931   8.391   6.599   2.812  0.1485 -0.2050  0.2644
12748W        W28932   4.288  17.722   5.338  0.1589  0.3995 -0.0502
12749W        W28933   3.336  11.274  12.046 -0.0364 -0.0015  0.1781
12750W        W28934   4.510   6.662   1.369 -0.0509 -0.0720 -0.0629
12751W        W28935  17.639   1.384  11.118 -0.0998  0.0667  0.1877
12752W        W28936   8.130   1.929  11.520  0.3122 -0.2247  0.0791
12753W        W28937  12.589   5.408   0.950 -0.3670  0.2399 -0.0427
12754W        W28938   0.985  10.990   2.496 -0.1354 -0.0750  0.1689
12755W        W28939   4.431   9.111   2.200 -0.1405 -0.3061  0.0035
12756W        W28940   0.592  18.100  10.840  0.1782  0.1546  0.0926
12757W        W28941  18.666   3.727  12.033 -0.2538 -0.3561  0.2971
12758W        W28942   2.958   7.926   4.170 -0.2898 -0.1141  0.1068
12759W        W28943  16.579   4.493   3.038  0.0993 -0.1001  0.1362
12760W        W28944  14.292  14.909   4.412  0.0992  0.1930 -0.1750
12761W        W28945  18.650   0.245  14.840  0.0209  0.2854  0.2569
12762W        W28946   8.754  14.516  12.421 -0.0117 -0.0214 -0.0992
12763W        W28947  13.405  14.409   1.891  0.3382 -0.1544 -0.1706
12764W        W28948  14.135   7.020  10.775 -0.0850  0.0068 -0.1628
12765W        W28949  12.317   4.479  13.906 -0.2470  0.1973 -0.1132
12766W        W28950   2.636   1.942  12.355 -0.3186 -0.0680  0.2593
12767W        W28951   1.372  10.189  10.072  0.1195  0.0501  0.0346
12768W        W28952  15.854  16.034  14.333  0.2878 -0.3133  0.0990
12769W        W28953   6.206   2.070  14.220 -0.0525  0.1201  0.0685
12770W        W28954  18.409   3.486  14.664  0.2316  0.0862  0.2235
12771W        W28955   9.556   4.407  12.033  0.0340 -0.1472  0.1782
12772W        W28956  10.701   4.871   2.466 -0.2941 -0.0191 -0.1024
12773W        W28957   1.931   6.849   0.300 -0.1894 -0.1091  0.1363
12774W        W28958   3.329   5.450   5.047  0.0945 -0.0742  0.2388
12775W        W28959  13.773  11.495   3.305 -0.1083 -0.0384 -0.1237
12776W        W28960   0.584  16.697   4.350  0.0814  0.3270 -0.0386
12777W        W28961   4.045  14.890  13.492 -0.0247  0.0161  0.0482
12778W        W28962  18.134   1.413  13.571  0.0664  0.3988  0.4757
12779W        W28963  16.394   8.926   5.006  0.3130 -0.2080  0.1433
12780W        W28964   1.790   1.862   9.856 -0.0181 -0.3434 -0.0318
12781W        W28965   0.418  16.191  14.037  0.2245 -0.2818 -0.1251
12782W        W28966  12.535  15.620   3.595  0.0490 -0.2272  0.2548
12783W        W28967  10.947   3.043  13.852  0.0585 -0.3332 -0.0126
12784W        W28968   9.229   8.136   1.910  0.2278 -0.1202 -0.0845
12785W        W28969   4.077   8.927  14.741 -0.1652  0.1339  0.1726
12786W        W28970  13.380   2.993  13.589 -0.2021  0.2778 -0.3857
12787W        W28971  10.531   6.478  12.268  0.0394  0.2008  0.3254
12788W        W28972   6.852  16.788  13.872 -0.4043 -0.0390  0.2479
12789W        W28973   6.291   1.063   0.682  0.1459 -0.1456 -0.1280
12790W        W28974  11.402  18.960  10.803  0.4284 -0.3188 -0.1335
12791W        W28975   0.501  16.326   1.671  0.0039 -0.1650 -0.1464
12792W        W28976   2.064   5.205   1.400  0.0472  0.3138  0.0824
12793W        W28977  18.587  14.794   1.200 -0.2355  0.0402  0.0845
12794W        W28978  16.871   6.520   4.202  0.1965  0.0262 -0.3649
12795W        W28979   6.879  13.982  10.664 -0.0378  0.0025  0.0273
12796W        W28980  14.625  15.310   2.033  0.3433 -0.0775 -0.1578
12797W        W28981  11.186  18.349   2.893  0.0516 -0.0210  0.0548
12798W        W28982   6.819  12.864  12.582 -0.0370  0.1633 -0.1163
12799W        W28983   0.609   2.159   4.766 -0.0869 -0.4166 -0.1494
12800W        W28984   2.698   8.530   2.354  0.0064  0.1648  0.0811
12801W        W28985   9.178   3.788   2.105 -0.1147  0.2939 -0.4153
12802W        W28986  14.789   7.260  14.437 -0.0999  0.1266 -0.0846
12803W        W28987   9.895  14.128  12.055  0.3796  0.0294  0.0704
12804W        W28988  18.437   9.704   4.624 -0.0282  0.0462 -0.1203
12805W        W28989  11.688   9.334  14.447  0.2976  0.0549 -0.0214
12806W        W28990  14.821  17.964   3.923 -0.3066 -0.2376 -0.1052
12807W        W28991  14.626  18.103   0.667  0.0547  0.1540 -0.1390
12808W        W28992   6.044   4.040  12.649  0.3240  0.1247  0.1408
12809W        W28993  11.188   4.520   2.602 -0.0736 -0.0079  0.0497
12810W        W28994  11.231   6.138  11.471 -0.2270 -0.0190  0.3697
12811W        W28995  19.192   8.340   0.196  0.1023  0.2993  0.2010
12812W        W28996   6.694  10.959   0.303  0.0933 -0.2307 -0.2192
12813W        W28997  18.296   9.772   1.787  0.2495  0.0800  0.2112
12814W        W28998  15.122  16.127  13.797  0.0024  0.0365 -0.1454
12815W        W28999   8.157   5.019   3.450  0.0544 -0.3467  0.1172
12816W        W29000   7.865   4.872  13.195 -0.1097 -0.2360  0.1103
12817W        W29001   9.078  16.598  12.343  0.1780 -0.2402  0.0400
12818W        W29002   2.309   2.272   4.209  0.2404 -0.1085  0.2211
12819W        W29003   4.655  15.512   3.515 -0.3588 -0.0660  0.0045
12820W        W29004  14.449   2.324   3.578  0.0881 -0.0870  0.2492
12821W        W29005  17.215  16.566   1.934  0.4052 -0.0860  0.5520
12822W        W29006   3.415   7.242   4.695  0.2817  0.1524  0.0839
12823W        W29007  14.605  10.868   2.980  0.0313  0.0578  0.2346
12824W        W29008   9.418  18.726   3.475 -0.3581 -0.2794  0.0561
12825W        W29009   0.198  15.336  14.517 -0.0545  0.1438 -0.2609
12826W        W29010   5.424   9.067   5.439 -0.0985  0.3525  0.0771
12827W        W29011  11.662  15.994  14.624 -0.2938  0.3408  0.1179
12828W        W29012  18.235  17.116   2.202 -0.0153  0.0741 -0.0905
12829W        W29013  15.659  14.632   5.315 -0.1576 -0.2377 -0.0373
12830W        W29014  17.573  18.836  12.967 -0.1194  0.1737 -0.1089
12831W        W29015   2.770   5.280  14.720 -0.1879 -0.0104  0.3852
12832W        W29016  14.991   5.986   3.425 -0.0788  0.0418  0.1844
12833W        W29017   1.236   3.992   3.270 -0.4870  0.1555 -0.1233
12834W        W29018   8.112   2.356   1.797  0.1211 -0.1067 -0.1353
12835W        W29019  17.070   6.630   2.331 -0.1379 -0.1149  0.2894
12836W        W29020   6.820   5.518   1.365 -0.1040  0.0767 -0.1178
12837W        W29021  17.988   8.185   5.824  0.0926  0.2556  0.0979
12838W        W29022  12.923   4.679  13.180  0.2838  0.3193  0.3716
12839W        W29023  10.164  14.778   0.849 -0.1688 -0.1373  0.0818
12840W        W29024  12.674   7.760   1.576  0.2501  0.3254 -0.1551
12841W        W29025   3.936   5.105  14.121  0.0349 -0.3306 -0.5183
12842W        W29026   0.826  10.058  13.510  0.1120 -0.2857 -0.4490
12843W        W29027  13.062  10.029  13.158  0.4186 -0.1669  0.3775
12844W        W29028   9.898   4.137   0.354  0.0438 -0.1098 -0.1952
12845W        W29029   3.200  16.485  11.744  0.1450 -0.3700  0.1790
12846W        W29030  10.171  10.136   4.507 -0.0545  0.1395  0.2161
12847W        W29031  18.014  11.983   4.209 -0.3271  0.0388 -0.0344
12848W        W29032   5.422   8.557   5.802 -0.1852  0.0298 -0.0670
12849W        W29033  12.029   0.182  14.813 -0.0475 -0.0193 -0.1221
12850W        W29034  11.486  12.303  12.303  0.1311  0.1234 -0.0237
12851W        W29035  15.193  13.843   9.905 -0.0803  0.0252 -0.4582
12852W        W29036   4.232   7.652  11.212  0.1172 -0.2444 -0.3412
12853W        W29037  16.147  12.396   3.096  0.2817  0.0482 -0.2018
12854W        W29038   9.548  13.515   0.008  0.0719 -0.2426 -0.2927
12855W        W29039   7.631   7.417  14.149 -0.0348 -0.0110 -0.0448
12856W        W29040  15.450   1.449   4.491  0.0609 -0.0474  0.4128
12857W        W29041   5.891   7.893  10.389 -0.0335 -0.0636  0.2786
12858W        W29042  12.050  15.399   2.570 -0.0235 -0.0513  0.3511
12859W        W29043  11.045   0.652  14.233  0.1442  0.0695  0.1113
12860W        W29044   3.043  11.341  14.119  0.0856 -0.0715 -0.0035
12861W        W29045   4.557  14.533  11.094 -0.3470  0.0798  0.1381
12862W        W29046  13.697   5.623  14.198 -0.0106  0.0845 -0.0842
12863W        W29047   8.235  13.858   5.088  0.2901 -0.0278  0.1743
12864W        W29048  10.115   6.297   4.390  0.1171 -0.2984 -0.2373
12865W        W29049  11.408  11.212   3.969 -0.1125  0.0530  0.1504
12866W        W29050  15.634   5.451  11.239 -0.1033  0.0848 -0.0132
12867W        W29051   4.746   5.647   5.635  0.0659  0.1170  0.0643
12868W        W29052  16.777   2.609   3.822 -0.1058  0.0296 -0.0896
12869W        W29053  18.253   7.115   0.408 -0.1239 -0.0018  0.2223
12870W        W29054   0.890   9.580   4.765  0.0746  0.1309  0.2211
12871W        W29055  14.914   8.708   0.838  0.1473  0.3312 -0.2833
12872W        W29056  14.918  16.224   1.885  0.3087  0.1334 -0.0357
12873W        W29057  16.133  17.672  13.528 -0.1464  0.0273  0.0892
12874W        W29058  14.452   2.062   0.576  0.1183 -0.1416 -0.1711
12875W        W29059  17.499   5.961   5.243  0.5149 -0.0128  0.4101
12876W        W29060   4.536   0.889   0.827  0.1294 -0.0898  0.0775
12877W        W29061   6.120   9.753  13.421 -0.2676 -0.0765  0.2714
12878W        W29062   4.608   1.949   0.443 -0.1424 -0.1113 -0.1224
12879W        W29063   3.222  14.721  11.254 -0.0596  0.1789  0.1195
12880W        W29064  10.771  14.147   2.404  0.0079  0.2242  0.2641
12881W        W29065  13.919  11.830  11.429 -0.1767  0.2084  0.1011
12882W        W29066  16.114   9.875  14.938  0.2969 -0.3327 -0.1307
12883W        W29067   4.222   5.111   4.436 -0.1974  0.1481  0.1030
12884W        W29068   5.450   0.788  10.451  0.2587 -0.0931  0.0019
12885W        W29069  19.106  12.412  13.006 -0.1844 -0.0237 -0.3317
12886W        W29070   2.378   0.388   3.208 -0.0213  0.0831 -0.0367
12887W        W29071  17.029  12.761   2.918 -0.1138 -0.1013 -0.1194
12888W        W29072   7.969  10.778   4.860  0.0053 -0.1198  0.1805
12889W        W29073  19.236  11.643   0.933  0.0764 -0.3765 -0.2047
12890W        W29074  15.599  14.024  10.337 -0.0832 -0.1549 -0.0194
12891W        W29075  17.859   5.447  11.075  0.3005 -0.0007 -0.2312
12892W        W29076   9.931   4.995   1.788  0.1365  0.2583  0.4011
12893W        W29077  13.162   5.800   2.515  0.0794  0.1995 -0.0489
12894W        W29078  17.891  10.565   0.601 -0.2738 -0.1234 -0.0671
12895W        W29079  11.390  18.205   3.740  0.0195  0.3726  0.1715
12896W        W29080  18.732   5.301  10.093 -0.1646  0.2593 -0.2942
12897W        W29081  18.678   5.450   3.269  0.2619  0.1499 -0.0549
12898W        W29082   9.183   0.611  13.543 -0.0664  0.0439  0.0756
12899W        W29083  13.716  13.134   5.232 -0.1453  0.0025 -0.0971
12900W        W29084   3.848   8.059   4.689 -0.1657 -0.0935 -0.3243
12901W        W29085   5.208  11.096   3.648  0.3351 -0.1326 -0.1580
12902W        W29086   6.853  10.915   4.365 -0.2072  0.5109  0.3808
12903W        W29087   4.338  15.924  10.913 -0.0214 -0.0881 -0.0595
12904W        W29088   2.697   1.597   1.993  0.1454  0.1414  0.2168
12905W        W29089   3.171  14.827   0.204  0.0314 -0.2298 -0.0359
12906W        W29090   0.512  10.896   1.124  0.2252 -0.0398 -0.0741
12907W        W29091  14.501   0.286  12.685 -0.2386  0.1894 -0.4547
12908W        W29092   2.536  15.066  12.206  0.0274  0.2617 -0.1518
12909W        W29093   9.645  13.839   5.177 -0.2017  0.2452  0.0196
12910W        W29094   2.862  11.850  11.597  0.0430  0.0867 -0.2625
12911W        W29095  14.976  19.093  13.778 -0.3145 -0.0123  0.0323
12912W        W29096   6.978  18.676  10.670  0.0445  0.2674  0.2679
12913W        W29097  13.503   1.158  13.487  0.2560 -0.2416 -0.0476
12914W        W29098  10.704  10.560   4.163 -0.0897  0.0389 -0.1774
12915W        W29099  13.993   0.786   1.664 -0.0384 -0.2033  0.1778
12916W        W29100  16.556  14.764  12.050  0.1613  0.2777  0.0879
12917W        W29101  14.763  10.976   2.451 -0.1875 -0.0683 -0.1869
12918W        W29102   1.493  16.179  14.434 -0.1416 -0.2988 -0.0048
12919W        W29103  10.629   3.411  12.321  0.2594 -0.1556  0.1954
12920W        W29104   6.254  15.999   4.857  0.0856 -0.0892  0.0301
12921W        W29105   4.332  17.300  10.931 -0.1620 -0.0125 -0.1693
12922W        W29106   6.618  13.036   5.057 -0.1732 -0.0791 -0.0259
12923W        W29107   9.270  14.648  10.751 -0.1505  0.1373  0.2097
12924W        W29108   8.909   0.453  12.885 -0.2037  0.1041 -0.3792
12925W        W29109  13.496   2.416  12.735 -0.0244 -0.0784  0.0088
12926W        W29110   2.438   2.356   3.319 -0.2151 -0.2062  0.1135
12927W        W29111   1.947  15.848   9.967  0.1601 -0.2504 -0.1245
12928W        W29112  14.724  16.977  13.020 -0.0865 -0.0297  0.0536
12929W        W29113   5.160   2.853  13.934  0.1108 -0.0915  0.0719
12930W        W29114   6.832   3.576  10.805 -0.0609 -0.1265 -0.5671
12931W        W29115   5.432   7.236  14.771  0.0262  0.2282  0.0552
12932W        W29116   1.466  16.459  14.883  0.1463  0.0009 -0.1632
12933W        W29117  16.235  17.478   3.156 -0.0461 -0.3343  0.0221
12934W        W29118  11.615  15.626  10.612 -0.2762 -0.1946  0.3486
12935W        W29119   1.543   5.039  12.079 -0.0561  0.0568 -0.3764
12936W        W29120  10.861   7.443   0.972  0.0902 -0.0894 -0.2585
12937W        W29121  11.543  16.752  11.159  0.2088  0.2479 -0.0626
12938W        W29122  14.474  15.444  11.706  0.0539  0.1654  0.3125
12939W        W29123   1.634  12.306  13.150 -0.2992 -0.1528 -0.0888
12940W        W29124   3.137   3.252  11.656 -0.0575 -0.1384 -0.0373
12941W        W29125   7.816  17.967   3.633 -0.0694 -0.0180  0.0509
12942W        W29126   7.954   7.585   5.057 -0.0422 -0.0600 -0.0123
12943W        W29127   8.633   3.693  11.773  0.1302 -0.0019 -0.1395
12944W        W29128  17.551  18.012  12.392  0.1121  0.2901  0.0351
12945W        W29129   5.118   4.678   2.451 -0.0291  0.3329 -0.1399
12946W        W29130  13.885  11.471   0.426 -0.2910  0.0838 -0.0761
12947W        W29131   7.112  16.887   3.185 -0.0635 -0.1136 -0.4402
12948W        W29132  14.003  13.113  10.609  0.1680  0.1749 -0.0304
12949W        W29133  17.095   3.822  12.615 -0.3140  0.1126  0.0087
12950W        W29134   1.177   0.343   1.531  0.0907  0.0918 -0.0511
12951W        W29135  15.205   8.624   2.019 -0.2165 -0.0342 -0.1546
12952W        W29136  17.786   2.279  12.641 -0.0265 -0.2043 -0.1038
12953W        W29137  18.705   3.399   0.148 -0.1678  0.2884 -0.1556
12954W        W29138  17.339  14.185   3.486  0.0107  0.1611 -0.2814
12955W        W29139  12.519   0.190  12.192  0.0608  0.1696 -0.0474
12956W        W29140   2.072   7.317   1.003 -0.3135 -0.2661  0.1205
12957W        W29141   3.591  17.257  14.811 -0.1614 -0.0281  0.2152
12958W        W29142  15.450  17.950  13.977 -0.0716  0.3004 -0.3149
12959W        W29143  17.796   5.890   0.303 -0.1195 -0.1275 -0.3991
12960W        W29144  16.447  13.589   0.171  0.1989 -0.3380 -0.1890
12961W        W29145   8.221   2.618   3.125  0.1207 -0.1130 -0.0611
12962W        W29146  12.449   3.331  13.722 -0.1556 -0.1072  0.1445
12963W        W29147   5.361   7.139  13.185 -0.0127 -0.0307  0.1600
12964W        W29148  16.011   1.043  12.134  0.0801  0.0299 -0.2106
12965W        W29149  14.888  16.386  12.736  0.2503  0.0608 -0.0209
12966W        W29150   5.230  16.318  12.378  0.2727  0.0049  0.0317
12967W        W29151  10.262  12.196  11.677  0.1781  0.0322 -0.4010
12968W        W29152   9.651  17.166   3.911  0.2072 -0.1432 -0.1192
12969W        W29153  18.055   1.435   4.134  0.3168 -0.3425  0.3309
12970W        W29154   5.095  11.083  14.153  0.0815 -0.5872  0.2280
12971W        W29155   0.199   5.223   5.184 -0.1922  0.0449  0.0701
12972W        W29156  13.325  13.606   1.473  0.0091 -0.3438 -0.2082
12973W        W29157  11.745   1.472   4.459 -0.3388 -0.0800  0.2354
12974W        W29158  10.209  10.723  14.173 -0.0204  0.0244 -0.0535
12975W        W29159   8.441  13.128   1.044  0.1441  0.1682 -0.2977
12976W        W29160   4.290   4.753  14.041 -0.0389  0.1505 -0.2632
12977W        W29161  10.496  17.954  13.117 -0.1227 -0.1736  0.5404
12978W        W29162  10.287   7.758   9.603 -0.1204 -0.0159 -0.0523
12979W        W29163  11.757  14.047   3.204  0.1755  0.2217 -0.0939
12980W        W29164   1.885   6.170   0.511  0.4062  0.0280 -0.1815
12981W        W29165   4.217  16.046  12.727  0.0202 -0.0837 -0.4395
12982W        W29166   7.330  17.907   3.593  0.2819 -0.1897 -0.0762
12983W        W29167  11.838   4.069  10.983  0.0790  0.2780 -0.2282
12984W        W29168  12.391  15.928  11.600  0.0965  0.2022 -0.0628
12985W        W29169   7.663   9.991  13.287  0.3673 -0.0201 -0.1023
12986W        W29170   4.198  13.924   3.574 -0.3305  0.0453  0.2342
12987W        W29171   2.267   2.793  14.561  0.1378 -0.3196 -0.0878
12988W        W29172   6.991   4.379   1.705 -0.2919  0.0077 -0.1314
12989W        W29173  13.627  16.963   4.718 -0.2023 -0.3170  0.3184
12990W        W29174   7.650  15.829  11.469 -0.1504 -0.0924 -0.0859
12991W        W29175   5.476  17.199   2.930  0.2915 -0.1986  0.0736
12992W        W29176   9.195   2.028   0.392  0.1674  0.4252  0.1404
12993W        W29177   4.058  14.648   5.095  0.0406  0.0119  0.0126
12994W        W29178  16.386  16.728   2.965  0.1451  0.1106 -0.1036
12995W        W29179   6.266  14.898   0.798 -0.2535 -0.0480 -0.1960
12996W        W29180   0.871  13.984   5.957  0.0760 -0.2250 -0.0210
12997W        W29181   0.527   0.590  14.836 -0.2115 -0.1643  0.2753
12998W        W29182  13.744  14.774   0.452 -0.0417  0.0703  0.0824
12999W        W29183  15.662   8.360   5.196  0.2193 -0.0067 -0.2584
13000W        W29184  19.292  11.858  10.402 -0.1031 -0.0530 -0.0504
13001W        W29185  18.675  14.220  10.618 -0.1145  0.0494  0.1755
13002W        W29186  13.342   5.112  11.174  0.3174 -0.1634  0.2883
13003W        W29187   1.625   4.046  14.014 -0.0086 -0.0179  0.1893
13004W        W29188  18.069   2.453   2.776 -0.4014 -0.0677  0.1345
13005W        W29189  16.335   7.337   4.128 -0.0758  0.1640 -0.0236
13006W        W29190  12.213  14.285   3.478  0.1137 -0.2846 -0.1855
13007W        W29191   3.118   5.733  14.560 -0.0696  0.1233  0.0734
13008W        W29192  12.437   2.427  13.757 -0.1220 -0.1315  0.3836
13009W        W29193  13.750   7.813  11.511 -0.0144  0.0559  0.0791
13010W        W29194  15.322  12.094   4.194  0.2327  0.1624  0.0345
13011W        W29195  17.646  16.485   5.072 -0.0847 -0.4499  0.0957
13012W        W29196   6.802   4.607  11.152 -0.0557  0.0750  0.1792
13013W        W29197   4.017   0.201  14.054  0.2413 -0.0783 -0.1205
13014W        W29198  10.445   9.626   4.239  0.2448 -0.1854  0.0310
13015W        W29199  10.278  14.542   0.002 -0.0021  0.0982  0.0527
13016W        W29200  17.965   5.518  13.775  0.1298 -0.1385  0.1208
13017W        W29201   3.216   4.728  14.290  0.2228  0.1607 -0.0276
13018W        W29202  10.529  12.720   9.959  0.1622  0.0402 -0.1262
13019W        W29203   3.388  13.368   4.548  0.0765 -0.0886  0.2033
13020W        W29204   7.199   4.454  12.703 -0.2742  0.2754  0.0512
13021W        W29205  12.189   6.880  11.327  0.0667  0.0362 -0.0124
13022W        W29206  13.291   8.094  11.352 -0.0818  0.1526  0.0527
13023W        W29207   1.701   3.621   1.225  0.0058  0.0232 -0.3462
13024W        W29208  11.726  15.460  13.141 -0.0937  0.0287 -0.2157
13025W        W29209  12.567  13.251   2.678 -0.0535  0.1861  0.1307
13026W        W29210  15.707   0.297  12.443 -0.2286 -0.0193  0.0533
13027W        W29211   6.785  17.280   3.233 -0.3197  0.1414 -0.1526
13028W        W29212   4.387  16.281   4.858  0.0946 -0.1414  0.1085
13029W        W29213   1.145   5.994   3.137  0.3144  0.2494  0.0569
13030W        W29214   8.684   8.041  11.322 -0.3133  0.1957  0.1117
13031W        W29215   4.986   8.880  10.737 -0.1578  0.1032  0.0652
13032W        W29216   8.309   5.142  13.397  0.0298 -0.1542 -0.1320
13033W        W29217   5.464  16.248  14.193  0.0646 -0.1670 -0.0302
13034W        W29218   9.965   4.458   4.566 -0.4388  0.0421 -0.1759
13035W        W29219   8.598   4.346   3.202 -0.0767  0.4423 -0.1414
13036W        W29220   2.924   8.031  14.849 -0.1088 -0.0708 -0.0532
13037W        W29221  14.758   6.435  13.196  0.1446  0.2382  0.0758
13038W        W29222  12.157   2.402   1.965 -0.0440  0.0574  0.1636
13039W        W29223   3.305  17.694  14.921  0.0126 -0.0307  0.0135
13040W        W29224  12.368  12.625  14.231  0.0928 -0.0572  0.1248
13041W        W29225  10.584   5.556  12.526  0.1354  0.0544 -0.3127
13042W        W29226   6.952  16.974  12.918  0.0698  0.1866  0.3497
13043W        W29227   1.043   0.633   0.131 -0.2716 -0.1361 -0.1145
13044W        W29228   6.990   9.432  12.089 -0.0028  0.0223  0.1849
13045W        W29229  14.623  14.884   9.392 -0.1446  0.1924 -0.0169
13046W        W29230  15.095   6.230   2.453 -0.1228  0.2259  0.4317
13047W        W29231   1.374  17.714  12.059 -0.3160  0.1434 -0.2253
13048W        W29232   0.291  17.817   1.442 -0.0163 -0.1814  0.0697
13049W        W29233  18.351   9.261  11.418  0.0557  0.0433 -0.1099
13050W        W29234  14.318   9.603   1.304 -0.1925  0.1805  0.0763
13051W        W29235   0.832  11.266  13.515 -0.0819  0.1936 -0.0689
13052W        W29236   9.175   1.399  10.502 -0.0334  0.2332 -0.2350
13053W        W29237  17.688   8.109   0.522 -0.3109  0.0206 -0.1711
13054W        W29238   7.162   1.227  10.727  0.0122  0.2037 -0.2091
13055W        W29239  11.120   2.334   2.390  0.1083  0.3299  0.3477
13056W        W29240   8.457  15.319   4.964 -0.2984 -0.0222 -0.0408
13057W        W29241   9.023  15.129   1.119 -0.1756 -0.1031 -0.4478
13058W        W29242   9.503  14.422   4.265 -0.1755 -0.0986  0.1354
13059W        W29243   0.960   0.083  10.929 -0.0545 -0.1193 -0.3266
13060W        W29244  18.676   3.437   1.083 -0.1176 -0.2477  0.0026
13061W        W29245   8.407  15.110   3.693 -0.1322  0.1062  0.2360
13062W        W29246  11.358  10.117  10.523 -0.1103 -0.0631 -0.2278
13063W        W29247   0.116  18.341   3.084 -0.0863  0.1196  0.2262
13064W        W29248   0.128  16.388   1.180 -0.1849  0.2730  0.0781
13065W        W29249  12.459   0.487  13.304 -0.0088 -0.1382  0.0343
13066W        W29250   0.216  19.147  10.649  0.2632 -0.1351 -0.1242
13067W        W29251   1.226  12.933   3.808 -0.1064 -0.0140 -0.0661
13068W        W29252   5.175  11.798  13.850  0.1627  0.2195 -0.0086
13069W        W29253   5.073  18.169  12.071 -0.0508  0.3592 -0.3532
13070W        W29254  16.515   4.895  14.812  0.2928 -0.2025 -0.3205
13071W        W29255  17.260   3.530  13.313 -0.0742 -0.3842 -0.1053
13072W        W29256  18.877   8.770  10.661 -0.3963  0.1115 -0.1057
13073W        W29257   5.044  10.824  13.683 -0.0307  0.1228 -0.0532
13074W        W29258   9.877  16.381   4.873  0.1340 -0.1059 -0.3077
13075W        W29259  10.642  13.001   1.524  0.3678  0.2434 -0.4393
13076W        W29260  13.832   8.281   3.787  0.4691 -0.0153 -0.0467
13077W        W29261   6.728  10.810  12.570 -0.0687  0.2221  0.0187
13078W        W29262  14.096  17.591  14.290  0.0308 -0.3298 -0.0329
13079W        W29263  13.205  18.466  12.267  0.0511  0.3054 -0.0950
13080W        W29264  17.475  12.958   2.987  0.1609 -0.2441  0.4063
13081W        W29265  12.934  11.201  14.933 -0.0068 -0.2542 -0.0568
13082W        W29266  12.225  19.333   4.506  0.0745  0.1910 -0.0156
13083W        W29267  19.366   0.521  14.781  0.3749  0.1745 -0.5058
13084W        W29268  14.977   4.593   1.623 -0.0910 -0.1017 -0.3046
13085W        W29269   9.918  10.099  10.943 -0.1548 -0.2469  0.2536
13086W        W29270   5.324   8.481  12.989 -0.1569 -0.1613  0.0597
13087W        W29271  13.883   3.073   0.522 -0.0731 -0.2448  0.1397
13088W        W29272   9.475   5.083   2.344  0.1857  0.2681 -0.0929
13089W        W29273  15.477  11.809  10.842  0.0553 -0.1533  0.0392
13090W        W29274   1.452   9.769   5.461 -0.0481 -0.2711 -0.3664
13091W        W29275   5.720   8.184   4.603 -0.0565 -0.1365 -0.0374
13092W        W29276   1.639  17.316  11.156 -0.0800 -0.1093 -0.0997
13093W        W29277   3.993  11.098   2.800 -0.1792  0.1074  0.2381
13094W        W29278  14.257  17.145   2.625  0.1095 -0.2255  0.0219
13095W        W29279  14.049  16.261  12.667  0.1615 -0.0884 -0.1950
13096W        W29280   1.565   0.908  12.722  0.1775 -0.1247  0.2085
13097W        W29281   2.377   9.748  14.299 -0.1424 -0.0051  0.1093
13098W        W29282  15.114   2.791   0.192  0.0908 -0.2629  0.1762
13099W        W29283   5.676   4.294   0.702 -0.0358  0.2169  0.2122
13100W        W29284  16.199  16.918   9.127  0.0317  0.1624 -0.3555
13101W        W29285  18.876   7.189   0.549  0.0090  0.1681 -0.0613
13102W        W29286   4.475   0.189  14.215 -0.1157  0.2475 -0.2767
13103W        W29287   9.474  11.116  14.475 -0.3199 -0.1728  0.4804
13104W        W29288   5.885   0.178   0.375  0.2499  0.0840 -0.0640
13105W        W29289  14.543  16.165  12.454 -0.0367 -0.3165 -0.2571
13106W        W29290  10.748  14.865  14.530 -0.0980 -0.4094  0.3539
13107W        W29291  10.179   6.655  12.610 -0.2027  0.2022 -0.2420
13108W        W29292   0.112  18.985   2.424  0.1225  0.1117 -0.0023
13109W        W29293   2.232  19.370  13.795  0.0171 -0.2820 -0.1144
13110W        W29294  17.985   4.042   0.506  0.1034 -0.1054  0.1852
13111W        W29295  14.522   2.612   0.934  0.0932  0.2970  0.2299
13112W        W29296   3.571  16.377  13.236 -0.3504 -0.0929 -0.0939
13113W        W29297   3.192   8.602  12.155  0.3465  0.0622  0.2068
13114W        W29298  11.218   3.559  10.766  0.1101  0.0155  0.1951
13115W        W29299   2.709   1.164  12.537 -0.0455 -0.0659 -0.1126
13116W        W29300  11.316  12.812  10.246 -0.0548 -0.0571 -0.3270
13117W        W29301  10.731   3.260  14.267  0.0889  0.0975  0.1202
13118W        W29302  17.166   8.903   0.413 -0.0565  0.2296 -0.2365
13119W        W29303  16.720  15.733  12.158  0.0189  0.0959 -0.1473
13120W        W29304   8.582  10.382   3.436  0.1543  0.1552  0.0236
13121W        W29305  12.680   1.380  11.393  0.0670  0.3852 -0.0277
13122W        W29306   0.949  16.727  10.559  0.1261 -0.0901  0.1077
13123W        W29307   8.983  14.546   4.297  0.0018 -0.0483  0.0454
13124W        W29308   6.102  10.274   3.827  0.0341 -0.1213  0.1454
13125W        W29309  19.138   9.330   1.333 -0.2417 -0.1575  0.0940
13126W        W29310   0.876  14.299   1.577 -0.2716 -0.1358 -0.0122
13127W        W29311   3.279   8.561   0.785  0.0935 -0.1912  0.1011
13128W        W29312   2.618   3.834   0.780 -0.4275 -0.0428  0.0642
13129W        W29313  13.082  15.014   1.497 -0.1664 -0.0123  0.1632
13130W        W29314   2.242  12.001   3.145  0.1490 -0.1327  0.0043
13131W        W29315  18.679  17.788  13.913  0.2605 -0.1041 -0.2302
13132W        W29316  13.988  12.036   1.282 -0.0035  0.1599  0.1295
13133W        W29317  10.853   6.783   3.114 -0.0279  0.0233 -0.1906
13134W        W29318   5.490  17.743   0.090  0.1203  0.1816  0.0268
13135W        W29319   1.934   2.925  11.927  0.1607  0.0952  0.0342
13136W        W29320  12.503  11.761   9.708 -0.1842  0.0761 -0.1934
13137W        W29321  16.049   3.722  11.279 -0.0697  0.0669 -0.0185
13138W        W29322  16.175  17.821  11.645  0.2027  0.0859  0.0728
13139W        W29323  10.782   4.305  11.473 -0.0870  0.2468 -0.0238
13140W        W29324   2.320  12.055   1.462 -0.0807 -0.0912  0.2454
13141W        W29325   6.654   6.384  11.647  0.1195  0.1846 -0.4160
13142W        W29326   2.547   9.926   4.651 -0.1064  0.1185  0.0453
13143W        W29327  10.176  17.791   9.753  0.0474 -0.1912 -0.3696
13144W        W29328   5.354  11.113   4.431 -0.0323  0.0006 -0.0606
13145W        W29329  17.516  12.061   3.133 -0.2874  0.3856 -0.0489
13146W        W29330   8.141   0.483   2.880  0.0020 -0.0122  0.2988
13147W        W29331   7.834  18.161   0.429  0.0150 -0.0223  0.0803
13148W        W29332  14.109   3.183   9.925 -0.0960 -0.0026  0.1462
13149W        W29333   2.456   5.811  12.015 -0.1021  0.0866  0.3029
13150W        W29334   7.356  16.904  12.559 -0.1160  0.0863 -0.0641
13151W        W29335  13.754  16.538   1.772  0.1920  0.0706 -0.3137
13152W        W29336   2.937   2.128  14.640 -0.1934 -0.0174  0.0969
13153W        W29337   2.585  14.792  14.097  0.1334 -0.2796 -0.0560
13154W        W29338   9.001  10.381   9.255 -0.0611 -0.0742 -0.1797
13155W        W29339  14.730   9.980   2.526 -0.4871  0.0470 -0.1464
13156W        W29340   8.098   2.259  13.932  0.0455  0.2341  0.3041
13157W        W29341   2.494   7.460  12.206  0.1407  0.0056  0.0726
13158W        W29342  17.628  13.662  10.999  0.3429  0.0912 -0.1721
13159W        W29343   5.434  12.063  12.014 -0.3422  0.1957  0.0659
13160W        W29344   6.599   2.861  12.551  0.3022 -0.0042  0.0031
13161W        W29345   6.749  16.948   3.602 -0.4662 -0.0372 -0.1384
13162W        W29346  14.544  13.751  13.834 -0.1748 -0.1879 -0.1638
13163W        W29347  12.582   8.218  12.078 -0.0377 -0.0337 -0.0760
13164W        W29348   0.058  16.534   4.597  0.1898 -0.0043  0.2011
13165W        W29349  10.845   8.423   1.002  0.4072 -0.0119  0.0864
13166W        W29350   1.638   3.703  12.613  0.2693 -0.1541  0.1362
13167W        W29351  10.754  12.552   4.169 -0.2250  0.1728 -0.1503
13168W        W29352   2.562   8.315   0.974  0.1936  0.1748 -0.0880
13169W        W29353   9.572  18.942  10.268 -0.2822 -0.0825  0.2131
13170W        W29354   4.858  17.934   3.634  0.0939  0.2206  0.1433
13171W        W29355   1.735   0.260  14.855 -0.0456  0.0680  0.2298
13172W        W29356   0.726  11.512   0.521 -0.2130 -0.1595  0.3771
13173W        W29357  11.386   6.189  10.236  0.0881  0.1888 -0.1398
13174W        W29358   9.090   3.621  13.405  0.3270  0.3771  0.0498
13175W        W29359  18.850   2.635   4.078 -0.0006 -0.0627  0.3830
13176W        W29360   7.073  16.946   8.966  0.2559  0.1413  0.1028
13177W        W29361  14.870  17.512   1.448  0.0416  0.0075  0.2612
13178W        W29362   7.917  12.421   9.876 -0.0308  0.0623 -0.1505
13179W        W29363   3.685   3.345  11.694 -0.0102  0.0016  0.1378
13180W        W29364  19.262  17.880  10.601 -0.1238  0.0733  0.1461
13181W        W29365  10.790   1.374   4.725  0.0798  0.2719 -0.1265
13182W        W29366   5.358   8.732  12.215  0.0043 -0.2187 -0.0018
13183W        W29367  11.354   1.546   5.400 -0.1779  0.0349  0.0192
13184W        W29368  10.585  18.167   4.294 -0.1976  0.0136  0.0877
13185W        W29369   1.155  10.907   5.346 -0.1773 -0.0889  0.0155
13186W        W29370   1.528   5.748   3.265 -0.1659 -0.2184 -0.3801
13187W        W29371   1.456   6.573   3.663 -0.2725  0.0677 -0.1249
13188W        W29372   3.827   1.140   5.043  0.1591 -0.0376 -0.0778
13189W        W29373   8.587   6.803  11.261  0.2447 -0.1020  0.0943
13190W        W29374   7.513  10.709   4.926 -0.0289  0.0106  0.1410
13191W        W29375  15.020   3.453   0.871 -0.1240  0.0102 -0.1404
13192W        W29376  18.235  14.418  12.914  0.1333  0.1848 -0.1351
13193W        W29377  18.597   1.517   2.206  0.1940 -0.2404 -0.1550
13194W        W29378  17.778  11.886   0.721 -0.0698  0.1216 -0.3268
13195W        W29379   1.998   2.310  10.919  0.3419 -0.0895 -0.1363
13196W        W29380  12.769   8.677   1.646 -0.3193 -0.2687 -0.0203
13197W        W29381  13.899  11.227  11.184 -0.1656 -0.2809 -0.1432
13198W        W29382  17.259   2.510  12.184 -0.2177 -0.0816  0.0319
13199W        W29383   7.464   4.144   5.703  0.1002 -0.1555 -0.1638
13200W        W29384   5.886  18.049   0.122 -0.0093  0.0048  0.0568
13201W        W29385  13.639   9.043   3.282  0.2651 -0.0873 -0.0301
13202W        W29386   6.850  17.786   4.272 -0.2622  0.1542  0.2625
13203W        W29387   5.014  14.518   4.790 -0.5602 -0.2826 -0.0955
13204W        W29388   4.275   5.413  12.859  0.2037 -0.0377 -0.2242
13205W        W29389  16.242   6.126  11.472  0.0958  0.1251  0.1079
13206W        W29390   0.403  17.995   5.322 -0.0809 -0.1985  0.2173
13207W        W29391  18.602   3.710  11.535 -0.1069  0.4113 -0.0907
13208W        W29392  14.875  10.049   4.437  0.0900 -0.3973  0.1485
13209W        W29393   9.368  11.601   5.437  0.1297 -0.2749 -0.0438
13210W        W29394  12.541  10.835  12.751 -0.0233  0.0390  0.1316
13211W        W29395   2.452  12.980   2.910 -0.4359 -0.0035 -0.0152
13212W        W29396  11.732   1.898  12.599 -0.2495 -0.0241  0.0500
13213W        W29397   3.617  14.701   4.595  0.0912  0.3286 -0.1138
13214W        W29398   2.916   4.591   4.041 -0.0957 -0.3331 -0.1193
13215W        W29399  18.831  14.694   4.740 -0.2771 -0.2111 -0.2195
13216W        W29400  18.589  19.133  13.924  0.1620  0.1130 -0.0039
13217W        W29401   5.417  14.302  12.710  0.1049 -0.2361 -0.1634
13218W        W29402   3.727  12.140   1.204 -0.6235 -0.2193 -0.0191
13219W        W29403  10.400   5.148  14.710 -0.0369 -0.0762  0.0494
13220W        W29404   2.966   4.981   1.950  0.2599 -0.2378 -0.4330
13221W        W29405  15.393  13.638   9.419  0.2420 -0.0282 -0.4255
13222W        W29406  14.120  19.267  12.609 -0.1364 -0.0331 -0.0651
13223W        W29407   7.612   3.118   9.710  0.1455  0.0565  0.1608
13224W        W29408  16.595  15.590  11.683 -0.1061  0.2162 -0.5240
13225W        W29409  13.721   3.528  14.470 -0.0652 -0.0726 -0.2398
13226W        W29410  11.008  14.225   4.715 -0.1488 -0.1003  0.2237
13227W        W29411  17.354  14.133   3.974  0.0681  0.1705  0.1976
13228W        W29412  15.362  11.616  13.606 -0.2581 -0.0402 -0.1646
13229W        W29413   3.650  18.023  13.099 -0.0876  0.1044  0.4017
13230W        W29414   0.779   1.496  13.624 -0.0675 -0.0027 -0.2680
13231W        W29415   3.798  18.768   1.025 -0.1791 -0.0150  0.2686
13232W        W29416  19.034  13.024  13.820  0.0253  0.0632 -0.1340
13233W        W29417  10.970   8.908  11.033 -0.0621 -0.2513  0.0879
13234W        W29418   7.641   9.330   3.941 -0.2869 -0.0056  0.0978
13235W        W29419   6.761   5.408  12.735 -0.2978  0.0483 -0.1914
13236W        W29420  18.521   2.594   5.091 -0.1108  0.0969 -0.0082
13237W        W29421  13.606  15.806  13.423 -0.2961 -0.1784  0.3324
13238W        W29422   8.032  16.877   3.101 -0.0118  0.0597  0.2253
13239W        W29423  14.222   3.286   0.170 -0.0675  0.4842 -0.0192
13240W        W29424  15.651   2.695  11.209  0.0159  0.4505 -0.0095
13241W        W29425  10.777   8.660  14.072  0.0057 -0.0784 -0.2374
13242W        W29426  10.721   9.161  14.204  0.1725  0.3006 -0.2996
13243W        W29427   1.647   8.685   1.251 -0.0461 -0.0195 -0.2803
13244W        W29428   3.153  11.319   1.211  0.0964  0.0290  0.0647
13245W        W29429  13.689   9.004  12.796 -0.1233 -0.0571  0.0364
13246W        W29430   8.924   1.753   3.734  0.0386 -0.0556  0.0567
13247W        W29431   0.981  11.877   3.307  0.2905 -0.0108 -0.0070
13248W        W29432   6.535  15.485  14.468  0.3764  0.0791 -0.1670
13249W        W29433  14.672  15.059  14.493 -0.0556 -0.1219  0.0832
13250W        W29434   9.726   5.409   4.791 -0.1276  0.1927  0.2072
13251W        W29435  13.903   7.916   1.254  0.2513 -0.1413  0.2982
13252W        W29436  15.873  16.924  13.567 -0.0225  0.1019 -0.3296
13253W        W29437   2.769   3.794  14.461 -0.0417  0.1747  0.0629
13254W        W29438   2.241   2.105  12.056  0.0768 -0.1013 -0.1833
13255W        W29439  18.815   4.715  14.781 -0.0412 -0.0699  0.3745
13256W        W29440  14.386   1.486   4.145  0.1766 -0.4153  0.2946
13257W        W29441   3.953  10.114  12.883 -0.0645 -0.1547  0.1720
13258W        W29442   3.560  16.010   0.406 -0.1842  0.1388  0.0575
13259W        W29443   3.437  11.065  14.299 -0.0755 -0.1427 -0.0193
13260W        W29444   0.622  16.368  10.858  0.3112 -0.0814  0.0946
13261W        W29445   1.500   1.121  11.773  0.1848  0.0852 -0.0556
13262W        W29446   0.827  16.639   0.994  0.3338  0.2285 -0.3694
13263W        W29447   0.087  15.122   1.222  0.0577 -0.2013  0.1614
13264W        W29448  18.603   4.755  13.925  0.2867 -0.0930  0.1869
13265W        W29449   0.014   5.568   3.910 -0.1184  0.0560  0.4020
13266W        W29450  16.798  15.034   0.285 -0.0978 -0.2516  0.3948
13267W        W29451  16.944   7.212   4.818  0.2357 -0.0908 -0.4570
13268W        W29452   9.783   8.416  13.936  0.1646 -0.0816  0.1417
13269W        W29453  18.232  14.313  13.388 -0.0438 -0.1404  0.1245
13270W        W29454   5.307   8.232  13.952  0.1352  0.1251 -0.0851
13271W        W29455  15.643   3.541  14.455  0.1599  0.0908  0.1152
13272W        W29456   0.727   2.271  13.912 -0.0308 -0.0385 -0.2630
13273W        W29457  16.944   6.367  13.239  0.2673  0.3987  0.0848
13274W        W29458  18.178   0.253  12.483 -0.0157  0.3394  0.3577
13275W        W29459   9.790   5.738   0.217 -0.0408 -0.0174  0.0939
13276W        W29460  16.213  19.008  12.347 -0.0842  0.1123 -0.1127
13277W        W29461   4.758  11.669   3.892 -0.1527  0.1821 -0.6348
13278W        W29462   2.202  17.365   4.370  0.2444 -0.1308  0.2731
13279W        W29463   5.844  13.461  13.939  0.1482 -0.1543  0.3170
13280W        W29464   4.063  14.273  12.896 -0.1145  0.0844 -0.0744
13281W        W29465   1.171   3.826  13.961  0.4768 -0.0218 -0.0202
13282W        W29466   3.743   1.296  10.721  0.1209  0.0431  0.4808
13283W        W29467   0.277  16.337  12.692 -0.1403  0.0187  0.0290
13284W        W29468   8.247   8.975   4.855 -0.0540  0.1847 -0.2770
13285W        W29469   8.318   6.179  12.980  0.0391  0.1292 -0.0886
13286W        W29470   9.941  15.968  14.329 -0.4093 -0.0961 -0.1752
13287W        W29471   1.050   4.050   1.114  0.0917  0.0386 -0.1557
13288W        W29472   1.832   6.132   5.478  0.3388 -0.0606 -0.0316
13289W        W29473  14.924   2.939   2.921 -0.1202  0.3828 -0.0549
13290W        W29474  14.761  11.746  11.405 -0.1873 -0.0787 -0.0161
13291W        W29475   0.643   6.279   3.468 -0.3378 -0.2329 -0.1017
13292W        W29476   0.897  15.249   0.382 -0.1562 -0.0615  0.1517
13293W        W29477  18.558   9.932  14.057 -0.3603 -0.0748  0.0289
13294W        W29478  16.146  12.858  12.779  0.2523  0.0567  0.1721
13295W        W29479  14.135   9.637   3.277 -0.3079  0.0036  0.0208
13296W        W29480  16.342  11.993   2.893 -0.1964  0.2545 -0.0827
13297W        W29481   5.746   8.862  11.875 -0.1134  0.0090  0.0689
13298W        W29482   4.660  11.482  10.673 -0.1234  0.1410  0.0511
13299W        W29483   1.513  18.078  10.799 -0.2701  0.5008  0.0719
13300W        W29484   8.533  15.436  13.346 -0.1889 -0.1008 -0.0768
13301W        W29485   1.615  17.083   3.159  0.2116  0.2715  0.1806
13302W        W29486  14.242   5.779  10.179 -0.1003 -0.0932  0.1177
13303W        W29487  12.169  19.354   1.513 -0.0531  0.2910  0.1331
13304W        W29488  13.210   2.749   4.171 -0.0881  0.1905  0.3945
13305W        W29489  18.019  10.486  10.849  0.1295  0.0784  0.0712
13306W        W29490   4.802  10.114   0.718  0.2775 -0.1354 -0.2168
13307W        W29491   6.734   0.826   3.796 -0.0999  0.3026  0.1154
13308W        W29492   7.143   9.458   0.696 -0.2308 -0.1400 -0.2772
13309W        W29493   2.047   5.991  12.372  0.2465 -0.4342 -0.2668
13310W        W29494  14.870  12.146   1.463  0.5856 -0.3738  0.2288
13311W        W29495  14.571   8.678  13.703 -0.1102 -0.1187 -0.0023
13312W        W29496  14.376   3.043  14.709 -0.2333 -0.4145 -0.0799
13313W        W29497  11.723   5.131  11.522  0.1636  0.4045  0.4589
13314W        W29498   2.461  16.886   1.948 -0.2916  0.1613  0.2097
13315W        W29499   0.334   9.343  10.976  0.1733 -0.2730 -0.0146
13316W        W29500  15.125   1.137   0.620 -0.2844 -0.1199  0.1859
13317W        W29501  18.264   3.356  11.324 -0.1898 -0.1917 -0.3439
13318W        W29502   1.010   6.635  13.502  0.1027  0.1159  0.0342
13319W        W29503   7.301   3.816  11.545 -0.1486  0.0464 -0.4247
13320W        W29504   5.932  14.990  13.377  0.2666  0.2112  0.1414
13321W        W29505   4.735   7.270   1.009 -0.2173  0.0650  0.0281
13322W        W29506  15.888   9.895  14.141  0.2733  0.2404  0.1175
13323W        W29507   0.080   1.759   1.636 -0.1926 -0.2360 -0.1947
13324W        W29508  12.955   2.983  14.262  0.1755 -0.2707  0.0458
13325W        W29509  11.001   8.716  10.091  0.0996 -0.1412 -0.0001
13326W        W29510  17.429  16.770   0.450 -0.2968  0.2372 -0.2515
13327W        W29511   3.066   5.075   2.672 -0.1755 -0.2567  0.1390
13328W        W29512   2.580  14.253  11.505  0.0754 -0.1598 -0.0413
13329W        W29513   5.453  13.644   4.934 -0.2790  0.0629  0.0104
13330W        W29514  16.190  11.095  10.755 -0.1411 -0.3843  0.0538
13331W        W29515  14.658  16.719   9.397  0.0617  0.2004  0.2615
13332W        W29516  11.903   2.743   3.441  0.1866  0.2565  0.2538
13333W        W29517   1.604  14.183  10.711 -0.1983 -0.1893  0.0340
13334W        W29518   9.462   1.169   2.462 -0.0529 -0.0669  0.0180
13335W        W29519   1.960  12.109   3.572  0.0261  0.2607 -0.0826
13336W        W29520  17.280   3.016  10.799 -0.1735  0.2234  0.2490
13337W        W29521  19.214   8.359  12.627  0.2120 -0.2247  0.7643
13338W        W29522   6.039   1.555  12.464 -0.0043  0.0826 -0.1792
13339W        W29523  15.929   5.999   0.762  0.0705  0.3606 -0.2631
13340W        W29524   4.826  15.506  11.651  0.0992 -0.4818  0.0774
13341W        W29525  16.026   8.716   5.263  0.1107  0.1129 -0.2487
13342W        W29526  18.972   7.034  11.422  0.1362 -0.0919 -0.2414
13343W        W29527  18.050  13.328   4.278 -0.0940 -0.0346  0.0852
13344W        W29528  17.840   5.828   1.650 -0.0230 -0.0613  0.3803
13345W        W29529  11.671  11.013  11.021  0.0874  0.0839  0.2421
13346W        W29530   0.565   1.377   0.847 -0.2809  0.0605  0.4889
13347W        W29531  18.126  18.628  13.908 -0.0416 -0.2225 -0.0521
13348W        W29532  15.299   7.522  13.486  0.0282  0.2906 -0.0244
13349W        W29533  11.839   0.628   0.984 -0.4038  0.0812  0.2660
13350W        W29534   5.704   5.445   4.960  0.0525 -0.1063 -0.1081
13351W        W29535  14.086  17.827   3.044 -0.1087 -0.1456  0.1098
13352W        W29536   2.657  17.200  12.309  0.3958  0.5853  0.1998
13353W        W29537   9.527  17.624  14.605  0.1812 -0.3135  0.2702
13354W        W29538   6.605   9.751   5.049 -0.0035  0.0978  0.0379
13355W        W29539   2.752   4.879  14.444  0.1787  0.2584 -0.2559
13356W        W29540  11.743   8.523   2.982 -0.4019  0.0948 -0.0989
13357W        W29541   8.893   2.470   0.606 -0.1204 -0.1443  0.1719
13358W        W29542   1.605   2.910   2.221  0.2888 -0.0501 -0.0227
13359W        W29543  14.062   6.748  11.859  0.1265  0.0369  0.0704
13360W        W29544   6.195  17.640  13.186 -0.0722  0.0446 -0.0251
13361W        W29545   2.779   3.407  14.938 -0.4279 -0.0728 -0.1692
13362W        W29546  15.425  15.672   3.178 -0.1805  0.0102  0.1353
13363W        W29547  12.679  10.223   1.094 -0.0782 -0.2519  0.0087
13364W        W29548   5.841   3.813   2.883  0.1072 -0.0126 -0.2363
13365W        W29549   0.809  13.494  14.008  0.2759  0.0127  0.1598
13366W        W29550  15.018   8.416   3.264  0.2711  0.1940  0.2285
13367W        W29551   2.742  15.373  13.820 -0.1061 -0.0643 -0.1265
13368W        W29552   2.590   9.379   0.804  0.0644 -0.1676  0.2252
13369W        W29553   5.431  19.202   2.365 -0.1040 -0.3600 -0.0438
13370W        W29554   3.510   6.482  11.434  0.3999 -0.0315 -0.4356
13371W        W29555   8.423  11.356   0.655 -0.0146  0.2481 -0.1223
13372W        W29556  14.641  15.473  12.834  0.2996 -0.0760  0.1787
13373W        W29557  17.259   6.946  12.124 -0.0525  0.0872 -0.0274
13374W        W29558  16.689  13.034  14.563 -0.2949 -0.2491  0.1230
13375W        W29559   9.671   3.749  11.094 -0.1710 -0.2229 -0.0235
13376W        W29560   2.415  14.738  12.752 -0.2346  0.0484 -0.0705
13377W        W29561  18.280  17.003   0.206 -0.0669 -0.1977 -0.1914
13378W        W29562   8.145   8.317  10.687  0.1014 -0.1366 -0.0102
13379W        W29563  18.091   9.984  12.237 -0.1340  0.3190 -0.2484
13380W        W29564   7.941   1.757  12.491  0.1159 -0.0633  0.5056
13381W        W29565  17.343  16.874  14.853 -0.0470  0.0748 -0.1077
13382W        W29566   8.848  14.791   5.314  0.4285 -0.0930  0.2422
13383W        W29567  14.373   2.944  14.055  0.0592  0.0696  0.1232
13384W        W29568  13.799   8.285  11.392 -0.0471 -0.2911 -0.1912
13385W        W29569  17.470   4.581  13.708  0.0776 -0.4475  0.2122
13386W        W29570  15.105   3.178   2.357  0.1299 -0.4850 -0.2341
13387W        W29571  10.245  17.709   3.228  0.0982 -0.3060  0.0345
13388W        W29572  11.655  15.501   2.915  0.0977  0.0517 -0.0630
13389W        W29573  12.402  12.850   2.412 -0.1013 -0.3791  0.1848
13390W        W29574   1.437  18.189  11.947 -0.1519  0.2977  0.0309
13391W        W29575  12.416   0.366   3.269 -0.2666  0.4224 -0.0265
13392W        W29576   4.172   4.130  10.995  0.0676 -0.3349  0.2470
13393W        W29577  15.748   9.196  12.094  0.2268 -0.0500  0.0912
13394W        W29578   7.457  11.865   0.399 -0.0371 -0.0203 -0.0243
13395W        W29579   7.753   5.685   3.750  0.1282  0.1978 -0.1611
13396W        W29580  13.177   2.991   3.331 -0.1627 -0.0293  0.0936
13397W        W29581   5.393  13.704  11.881 -0.1560 -0.3679  0.0106
13398W        W29582  12.801  12.744   4.146 -0.1121  0.2487  0.2051
13399W        W29583  17.451   4.198  10.090 -0.0069 -0.1473  0.2260
13400W        W29584  12.953  10.430  10.811 -0.0959 -0.0957  0.3695
13401W        W29585  16.251   3.414  12.261 -0.0141 -0.2297 -0.1632
13402W        W29586   5.114  15.631  14.538  0.1549 -0.2799  0.2101
13403W        W29587  17.831  18.141   1.163 -0.0781 -0.3917  0.0647
13404W        W29588   7.071   4.998   2.857  0.0638  0.0069 -0.0471
13405W        W29589  11.685  18.221  11.111  0.2823 -0.1890  0.0794
13406W        W29590   5.230  15.515   3.248  0.2474 -0.2454  0.3371
13407W        W29591   4.719  15.763  13.829  0.0519 -0.0002  0.1956
13408W        W29592   4.782   3.851  14.492 -0.0188 -0.1387 -0.4397
13409W        W29593   1.437   0.650  14.667 -0.0316  0.2018 -0.0836
13410W        W29594  12.958   9.726   2.630  0.1869  0.0861 -0.0678
13411W        W29595   9.347   5.846   4.054 -0.0806 -0.0167  0.0230
13412W        W29596   2.907  14.466   1.759  0.3840 -0.0913 -0.0060
13413W        W29597  16.350   0.423   1.279  0.1992 -0.0824  0.4972
13414W        W29598  12.410   4.724  13.434  0.0744  0.2268  0.2571
13415W        W29599   8.938  12.333  11.059  0.0313  0.2134  0.1937
13416W        W29600  11.394   5.368   1.429 -0.0634 -0.1439 -0.2550
13417W        W29601  11.311  13.652  14.865  0.1528  0.3576  0.1183
13418W        W29602  12.976   3.862  12.239 -0.4080 -0.4136  0.2875
13419W        W29603   0.842   9.122   2.064  0.1462  0.1956  0.0684
13420W        W29604  13.836   2.051   1.927  0.3432 -0.2496  0.1196
13421W        W29605   3.015   0.049  14.505  0.2354  0.2520  0.2606
13422W        W29606   9.150  12.035   0.252  0.0522  0.0165  0.1933
13423W        W29607  12.999   3.284  11.787  0.1402 -0.0464  0.2438
13424W        W29608   5.527  12.776  13.030 -0.4451 -0.1816 -0.0463
13425W        W29609   1.600  15.002   2.454  0.0206 -0.1398 -0.0383
13426W        W29610  13.939   5.662   0.043  0.3050 -0.1143 -0.2680
13427W        W29611  15.452  13.662   3.682  0.2317  0.0059 -0.0504
13428W        W29612   7.487  16.432  11.402 -0.1363  0.0738 -0.0783
13429W        W29613  15.787   5.187  11.724 -0.2620  0.1032  0.0664
13430W        W29614   8.329  16.665  14.185  0.1713  0.1209  0.0469
13431W        W29615   9.035   2.647  12.400 -0.3849 -0.1380 -0.3333
13432W        W29616   7.395  18.407  11.136 -0.3511  0.0839  0.0771
13433W        W29617   0.236  18.643   1.627  0.3511 -0.5633 -0.3847
13434W        W29618   6.900   7.913   1.480  0.1907 -0.0465 -0.3896
13435W        W29619  16.932  12.130  13.405  0.3194  0.0941 -0.3451
13436W        W29620  10.819   7.999  10.242  0.1035 -0.4860 -0.3680
13437W        W29621   3.923   0.890  11.722 -0.2174 -0.1659 -0.0626
13438W        W29622  17.794  13.631   4.606  0.0576 -0.0402 -0.0541
13439W        W29623   9.278   8.581   2.229  0.1103 -0.1949  0.4028
13440W        W29624  16.115   7.027   3.833  0.2677 -0.4111  0.4617
13441W        W29625  12.820   6.078  13.159  0.1396  0.0701 -0.3816
13442W        W29626  17.677   1.338  13.866 -0.0127 -0.0401 -0.2066
13443W        W29627   2.681  10.439  11.317  0.0781  0.0309  0.1758
13444W        W29628   4.390   1.614   3.045 -0.1620 -0.1808 -0.0208
13445W        W29629  11.559   9.831  10.163  0.0642 -0.0837  0.0515
13446W        W29630  11.117  18.283   0.403  0.2080 -0.2329  0.1582
13447W        W29631  18.719  13.152  10.054  0.0267  0.1648 -0.1877
13448W        W29632   0.290   4.811   5.496 -0.2879 -0.1654 -0.1046
13449W        W29633  18.240  18.122  13.826  0.0282 -0.2609 -0.1211
13450W        W29634  15.158  17.556  12.262  0.0020 -0.3695  0.0386
13451W        W29635  10.324   9.872   2.051 -0.3053 -0.1089  0.0160
13452W        W29636  15.396  17.977   0.710  0.1494  0.1238 -0.1500
13453W        W29637  10.155  18.331  10.159  0.0729  0.3511 -0.0772
13454W        W29638  16.157   2.120   4.169  0.0163 -0.3941  0.1260
13455W        W29639   3.446  15.973  13.560 -0.2460 -0.0232 -0.3517
13456W        W29640  17.474  17.058  12.539 -0.3034  0.1018 -0.0642
13457W        W29641   3.524   0.439  10.721  0.0608 -0.2923  0.4307
13458W        W29642   8.391  19.315   2.375  0.2850  0.0485 -0.4291
13459W        W29643  18.423   6.883  11.149 -0.2046  0.1506  0.2177
13460W        W29644   1.762  19.205   4.036  0.0055  0.0535 -0.1100
13461W        W29645   8.351  13.156  11.654 -0.0037 -0.0199  0.2838
13462W        W29646  12.880   9.795   1.351  0.1262  0.3716  0.4449
13463W        W29647  10.897   2.571  11.550  0.3347 -0.0377  0.0808
13464W        W29648   8.634  16.796  12.136 -0.0579 -0.2966 -0.2687
13465W        W29649  14.658  10.850  12.290 -0.0392  0.3730 -0.0075
13466W        W29650  17.243   4.316  12.679 -0.1679 -0.2210 -0.1554
13467W        W29651   7.860   5.654  10.250  0.1389 -0.0317 -0.0327
13468W        W29652   0.324   3.098   0.004 -0.1601  0.1521  0.0765
13469W        W29653  11.609  10.839  12.578  0.0806 -0.1814  0.0754
13470W        W29654   3.443  14.936   3.616 -0.1678  0.0279  0.2355
13471W        W29655   6.486   0.870  14.335  0.2790 -0.0197 -0.3211
13472W        W29656   2.702   7.766   5.539  0.2547  0.3046 -0.0061
13473W        W29657  10.161   2.117  11.114  0.2561  0.1820  0.3129
13474W        W29658   8.613   3.326  12.797 -0.0526 -0.1567  0.0980
13475W        W29659  13.899   4.903  14.645 -0.1609 -0.1303 -0.0254
13476W        W29660  18.133   4.963  12.575 -0.0334  0.1352  0.0434
13477W        W29661   1.769   5.904   4.169 -0.1760 -0.0485  0.0107
13478W        W29662   7.207  16.678   3.729  0.0682  0.2294  0.0695
13479W        W29663   0.613   6.743  12.721 -0.2972  0.2478  0.1528
13480W        W29664  12.017  16.834   3.816 -0.1740 -0.2066  0.0954
13481W        W29665  11.308   9.528  10.449 -0.0179 -0.0956 -0.3518
13482W        W29666   9.716   3.387  11.538  0.1271  0.0630  0.0160
13483W        W29667   5.041  10.276  10.201  0.0213 -0.0835  0.0331
13484W        W29668   6.243  13.555   3.726  0.3582  0.1721  0.0194
13485W        W29669  15.942  18.711   0.729  0.1636 -0.0302 -0.0309
13486W        W29670   7.060  18.978   2.960 -0.0417  0.2417  0.1064
13487W        W29671  19.119  11.892   5.128 -0.2907 -0.0579  0.2375
13488W        W29672  10.953   8.808   4.436 -0.0909  0.1222  0.0704
13489W        W29673  18.580   3.544   1.537 -0.0481 -0.0265 -0.1384
13490W        W29674  18.215   3.922  13.527  0.0049 -0.1354  0.1335
13491W        W29675  18.865  17.354   4.316 -0.0689  0.0002  0.4898
13492W        W29676   1.008   4.618   5.025 -0.0414  0.3566  0.3037
13493W        W29677   9.113  11.361   3.454  0.2479  0.5689 -0.0476
13494W        W29678   6.946  13.779   3.230  0.2058  0.0328 -0.1729
13495W        W29679  15.456   0.638   2.418 -0.2356 -0.1243 -0.2497
13496W        W29680   6.611   5.202  10.125  0.5330 -0.1627 -0.3038
13497W        W29681  14.976  15.038   0.653  0.2978  0.0627  0.2113
13498W        W29682  19.357  16.911   1.301 -0.0272  0.2597  0.0694
13499W        W29683  18.516   7.175   3.274 -0.0254 -0.0794 -0.1836
13500W        W29684   4.413   3.265   0.884  0.1696 -0.1950  0.0142
13501W        W29685   4.273  12.903  11.102  0.2719  0.0223 -0.2018
13502W        W29686   0.773   7.991  13.625 -0.1228  0.3241  0.0274
13503W        W29687   0.474  14.749  11.764 -0.0737  0.1806  0.1566
13504W        W29688  14.785   6.563  10.962 -0.0821  0.2382  0.2443
13505W        W29689   3.426   5.074   1.021 -0.1341  0.0022 -0.1019
13506W        W29690  13.277  14.836   1.095 -0.3104 -0.2552  0.2755
13507W        W29691   5.379   1.130  11.219 -0.0261 -0.2320 -0.0950
13508W        W29692   1.854  13.535   2.332  0.1771  0.0045  0.2058
13509W        W29693  18.411   7.423  13.611 -0.2616 -0.2751 -0.0289
13510W        W29694  17.642  13.783   2.555  0.2469 -0.0386  0.1505
13511W        W29695  15.939   1.761   3.696 -0.1939  0.1398  0.2627
13512W        W29696   7.329   0.943  14.039  0.0967  0.3139  0.0474
13513W        W29697  10.389   6.527  14.802 -0.1606  0.2605  0.2541
13514W        W29698   6.410   9.965  12.598  0.2084  0.0859 -0.2197
13515W        W29699   8.401   9.098   5.759  0.3066 -0.2775  0.2138
13516W        W29700   7.907   5.493   4.217  0.0302  0.2149  0.0602
13517W        W29701   0.364   5.354   1.197 -0.0257  0.1694  0.1140
13518W        W29702  16.662   3.541   4.525  0.1813 -0.1405 -0.4812
13519W        W29703  14.762  17.893  10.220 -0.0484  0.1879 -0.1169
13520W        W29704   8.141  10.124   0.411  0.0938 -0.2346  0.0169
13521W        W29705   1.772   1.473  14.499  0.2122 -0.2032 -0.2257
13522W        W29706   0.783  11.967  12.850  0.4317 -0.1513  0.1240
13523W        W29707  14.259   2.661  14.426  0.0735 -0.1611 -0.0642
13524W        W29708  10.485   3.592   4.362  0.0980 -0.1245 -0.1435
13525W        W29709  15.178  14.083  13.655 -0.0478  0.4206  0.1176
13526W        W29710  10.637   1.420   3.288  0.4299  0.1087  0.2269
13527W        W29711  18.495   7.295   4.928 -0.2463  0.0813  0.1538
13528W        W29712   0.119  13.534   0.482 -0.2760 -0.2973 -0.1195
13529W        W29713   8.827   3.393  14.195 -0.0524  0.1036  0.1556
13530W        W29714  14.112   3.870  14.409 -0.1039 -0.4094  0.0660
13531W        W29715  11.825   1.237  10.364  0.3173  0.2634  0.0281
13532W        W29716  15.087  17.072   1.837 -0.0030  0.1674 -0.1822
13533W        W29717  12.290   9.547   2.559 -0.1606 -0.3802 -0.1570
13534W        W29718  14.989   6.679  12.486  0.0220  0.1364 -0.0568
13535W        W29719  13.657   7.003   1.338 -0.0497 -0.2003  0.0316
13536W        W29720  18.363   2.215   0.280  0.1716  0.0093  0.2215
13537W        W29721   4.676  14.824   3.042  0.0498  0.0169  0.2446
13538W        W29722   1.936   1.377  11.881  0.0336  0.0817 -0.0198
13539W        W29723   3.095  10.018  14.520  0.1291 -0.2088 -0.0009
13540W        W29724  10.584  18.769   0.286  0.2064  0.2690  0.0665
13541W        W29725  15.561   1.169  11.045  0.1988 -0.1965  0.0364
13542W        W29726   6.689   9.002  13.685 -0.1497  0.0006  0.0155
13543W        W29727   5.876   8.473   1.017 -0.1850 -0.0548  0.1196
13544W        W29728   3.453   5.507  13.434  0.4010 -0.2161 -0.1274
13545W        W29729   6.634   5.730   4.852 -0.1820 -0.0105 -0.4270
13546W        W29730   7.945   6.032   5.151  0.5023  0.1653 -0.0822
13547W        W29731   0.371   0.237  13.086 -0.3362  0.3081  0.2330
13548W        W29732  10.982   2.478  12.282 -0.1188  0.0526 -0.1014
13549W        W29733   1.460   2.013  13.719 -0.0421  0.2477 -0.1298
13550W        W29734  16.257  17.448   0.319  0.0923  0.3275  0.0759
13551W        W29735   9.606   8.138   3.642 -0.1554 -0.2208  0.1273
13552W        W29736   8.652   5.246  13.006 -0.1756 -0.0673 -0.3103
13553W        W29737   7.757  17.535  11.330 -0.0209  0.1114 -0.4364
13554W        W29738   6.744  17.147   4.851 -0.1875  0.0302 -0.0381
13555W        W29739  16.983   0.923   1.029 -0.3233 -0.1144 -0.1200
13556W        W29740  13.103  19.111   4.117 -0.2041  0.1816 -0.0061
13557W        W29741   8.936  11.908  11.810  0.2237  0.5803 -0.0302
13558W        W29742  13.822   2.061  10.724 -0.2277 -0.1562  0.1620
13559W        W29743  11.522   3.357  11.112 -0.2456  0.0679  0.3790
13560W        W29744   0.050   9.962  14.319  0.1964 -0.0450  0.1354
13561W        W29745   4.877  14.836  12.661  0.0914 -0.0956 -0.3012
13562W        W29746  16.164  13.034   1.832 -0.2353 -0.2174 -0.4475
13563W        W29747  17.126  15.911   0.661 -0.2233 -0.1458 -0.0352
13564W        W29748   2.484   7.124  11.196 -0.1690 -0.0060 -0.1002
13565W        W29749   1.207  10.118  11.363 -0.0375 -0.1882  0.0698
13566W        W29750   8.763   3.671  13.783 -0.2224  0.3125  0.0391
13567W        W29751   6.741   5.943   1.108  0.0523 -0.3774  0.1033
13568W        W29752   2.816  18.868   2.221  0.1397 -0.1703 -0.0254
13569W        W29753   5.616   2.342  14.336 -0.1094  0.1977  0.0388
13570W        W29754   3.627   1.913   4.664  0.2750 -0.1540  0.0079
13571W        W29755   5.370  10.049   4.474  0.0489  0.0957 -0.0888
13572W        W29756  13.120   0.750   0.564 -0.2877 -0.0207  0.0863
13573W        W29757   6.629  17.416   2.767 -0.3107  0.1524  0.0370
13574W        W29758  15.964   5.307  14.080 -0.1175  0.1822 -0.1174
13575W        W29759  12.585  19.140   0.481 -0.1449 -0.0692 -0.0594
13576W        W29760  18.640   6.487   3.151 -0.3050  0.2108  0.1062
13577W        W29761  10.781  13.500  12.441 -0.0301  0.0977  0.1591
13578W        W29762  11.468   9.089  10.944  0.0332 -0.1534 -0.0822
13579W        W29763   0.070  19.167   4.317  0.3257 -0.0029  0.0517
13580W        W29764  12.718   9.085  11.831 -0.6443  0.0396  0.0592
13581W        W29765  12.751  16.167  12.654 -0.2105  0.1105 -0.2182
13582W        W29766  16.770   5.456  13.474 -0.2789 -0.0491 -0.0654
13583W        W29767   6.160   7.648   3.028  0.2676 -0.1196 -0.0553
13584W        W29768   6.074  10.497   2.173 -0.0711  0.1497  0.2995
13585W        W29769   4.706   5.318   1.613  0.2468  0.3506  0.0979
13586W        W29770  12.324  18.333   5.036  0.2586  0.1911  0.0693
13587W        W29771   4.951   4.163   4.638 -0.0157 -0.1469  0.2690
13588W        W29772  16.558   3.099  13.734 -0.6273  0.1001 -0.0641
13589W        W29773   9.345   5.600   5.106  0.1553 -0.0928 -0.1078
13590W        W29774   6.315   7.952   0.600  0.1561  0.3532  0.1641
13591W        W29775  11.008  13.921  12.776  0.1633 -0.2314  0.0408
13592W        W29776   9.519  14.834   5.801  0.0213  0.1039 -0.3136
13593W        W29777  11.614   7.198  10.988 -0.2988 -0.0083 -0.1376
13594W        W29778   4.673   2.862  13.976 -0.0480  0.3993  0.0843
13595W        W29779  18.404   6.605   0.505 -0.1106 -0.1311 -0.4360
13596W        W29780   1.468   5.310  12.601 -0.1094  0.1857 -0.1006
13597W        W29781  18.587   2.281  13.287 -0.0225  0.0965 -0.0156
13598W        W29782   9.057  10.426   4.200  0.0057 -0.1893  0.0525
13599W        W29783  10.639   5.880   5.668  0.0894  0.1352  0.3861
13600W        W29784  17.624  15.459   1.877 -0.3340 -0.0407 -0.1145
13601W        W29785  19.312   2.245  13.048 -0.0322 -0.0185 -0.0904
13602W        W29786  16.895   9.569  10.334 -0.1976  0.2419 -0.0300
13603W        W29787   0.706  12.244  11.419  0.5326  0.0367  0.2043
13604W        W29788   3.673  13.023   2.495  0.1374  0.0085 -0.4041
13605W        W29789   2.343  16.573   1.497 -0.0009 -0.0750  0.1497
13606W        W29790  10.264  14.902   2.378  0.2493 -0.0685  0.1368
13607W        W29791   8.081   2.635   0.242 -0.2762 -0.4872 -0.1140
13608W        W29792   2.007   9.028  10.935  0.1691 -0.0781 -0.0684
13609W        W29793  16.305   2.684   4.104 -0.1198 -0.0076  0.1704
13610W        W29794  15.781  14.670  14.877 -0.2643 -0.1754 -0.2224
13611W        W29795   3.908  16.984   0.387 -0.0572  0.1842 -0.3823
13612W        W29796   3.154   1.696   1.207  0.2140 -0.2158  0.2331
13613W        W29797  15.571  11.654   4.430 -0.0802 -0.0596  0.2040
13614W        W29798  18.137  18.410   2.541 -0.0569 -0.1744 -0.2237
13615W        W29799  16.723   4.577  11.054  0.2678  0.3109 -0.2612
13616W        W29800   5.570   5.130   5.354 -0.0437 -0.0725 -0.1291
13617W        W29801   6.980   6.555  14.910  0.1265  0.1277  0.0625
13618W        W29802   8.607  15.880   4.941 -0.0604  0.1055 -0.0316
13619W        W29803   3.545   4.636   2.644  0.1702 -0.4690 -0.4485
13620W        W29804  12.124   7.354  11.736  0.2658  0.0547  0.1156
13621W        W29805  14.217  15.411  11.278 -0.0082 -0.1789 -0.1284
13622W        W29806   3.208   3.079   3.302 -0.1640  0.1873 -0.1054
13623W        W29807   6.885   9.704   1.129 -0.0397 -0.1275  0.0771
13624W        W29808  13.646  11.195   9.011  0.1024  0.1915  0.1698
13625W        W29809   4.869   0.697   4.654 -0.1073 -0.3110  0.0747
13626W        W29810   8.657  13.296   2.519  0.1149  0.0045  0.0745
13627W        W29811  13.481   0.179   1.811 -0.2262 -0.1814  0.0740
13628W        W29812   7.635  17.957   9.710  0.0274  0.0505  0.3047
13629W        W29813  17.162   7.237   1.189 -0.5292 -0.2079 -0.2899
13630W        W29814   3.839   8.197   3.697  0.4323 -0.1715  0.0683
13631W        W29815   5.854  13.782  14.676  0.2060  0.0375 -0.2188
13632W        W29816   3.212   0.970   3.338 -0.0822 -0.2537  0.3974
13633W        W29817  13.671  16.432  13.481  0.3113 -0.0422  0.0577
13634W        W29818   9.239  11.635  14.352  0.1077 -0.1321  0.3619
13635W        W29819  19.218  14.582   4.440 -0.4725  0.3146  0.0499
13636W        W29820   9.522  18.969   5.244  0.0478  0.0729 -0.1205
13637W        W29821   2.898   8.393   1.478 -0.0276  0.0369 -0.3068
13638W        W29822  19.133   7.219  14.328 -0.0968 -0.2519  0.1006
13639W        W29823   0.346   0.813  11.180  0.1878  0.1319  0.3305
13640W        W29824  14.462  16.043   1.081 -0.1133  0.3370 -0.0387
13641W        W29825  12.770  10.805   0.198  0.1992  0.0192 -0.1562
13642W        W29826   7.522   8.794  11.457  0.1672 -0.0727  0.0305
13643W        W29827   0.359  15.473   9.603 -0.1223  0.2490  0.1101
13644W        W29828  10.273   2.921   0.576  0.2073  0.1367  0.4639
13645W        W29829   2.125   8.253   6.054  0.2940 -0.0980 -0.1380
13646W        W29830  12.356  10.181   2.699  0.0212  0.0792 -0.1351
13647W        W29831   0.007  10.826   0.982 -0.0545  0.0588  0.1861
13648W        W29832   1.878  12.774  13.833 -0.0721  0.0135 -0.0792
13649W        W29833  12.935  14.535   1.940 -0.2854  0.1932 -0.2169
13650W        W29834   4.798  17.548   4.607 -0.1578 -0.2393  0.1597
13651W        W29835  16.017  10.017  10.632 -0.3753 -0.1309  0.0741
13652W        W29836  16.274   2.426  11.716  0.1785 -0.3538 -0.0806
13653W        W29837   3.740  18.489  10.302 -0.1893  0.1185 -0.1025
13654W        W29838   6.121   3.145  14.222  0.2641  0.0821 -0.1920
13655W        W29839  16.198   6.599   2.929 -0.0160 -0.0176 -0.3650
13656W        W29840  10.423   6.543  11.308 -0.1097 -0.0423  0.2174
13657W        W29841  11.079   8.697  11.574  0.0044  0.0247  0.0744
13658W        W29842  18.356   6.336   1.524  0.0673 -0.1107  0.3880
13659W        W29843   4.169   8.409  12.547  0.1114 -0.0432 -0.0922
13660W        W29844   2.052   5.869  13.719 -0.1464  0.0582  0.1908
13661W        W29845  15.251  16.158   4.263  0.0656  0.2710  0.5001
13662W        W29846  14.318  14.434  11.521 -0.1407 -0.1490 -0.3928
13663W        W29847  10.717  10.918  14.139 -0.2300 -0.4165  0.3446
13664W        W29848  14.393  14.087   4.576 -0.4503 -0.0007  0.4966
13665W        W29849   9.965  11.483  12.348  0.1359 -0.0603  0.0979
13666W        W29850   5.201  14.451   0.262 -0.0449 -0.0767 -0.1503
13667W        W29851   4.070   9.691   1.165  0.1407 -0.3776 -0.2476
13668W        W29852  11.389  17.042  12.524 -0.0797  0.0081 -0.0870
13669W        W29853   5.643   9.816   0.285  0.0920 -0.0576  0.0783
13670W        W29854  18.319   9.122   1.875  0.1560  0.0364  0.2799
13671W        W29855  18.556   7.831   2.065 -0.0820 -0.0884 -0.0889
13672W        W29856  19.041   2.524   4.986  0.0519  0.2248  0.0278
13673W        W29857  16.269   5.200   1.287  0.0848 -0.1442 -0.1035
13674W        W29858  16.019  14.447  10.393  0.1389 -0.0552 -0.0881
13675W        W29859  13.763  13.950   0.971  0.0126  0.0303 -0.1120
13676W        W29860   1.296   1.221   1.342 -0.0099  0.0560 -0.1303
13677W        W29861  16.778   8.759   0.172 -0.4337 -0.3470  0.0561
13678W        W29862   0.074  15.875  10.287  0.2258  0.1554 -0.0851
13679W        W29863  11.677   6.596   9.096 -0.2403 -0.1533 -0.3445
13680W        W29864  18.387  18.335   4.635  0.3292 -0.3098  0.1547
13681W        W29865   8.794  10.531   1.993  0.1689 -0.2110  0.0309
13682W        W29866   6.197  10.040   1.930  0.3150  0.1621  0.3013
13683W        W29867  11.646   3.182  12.085 -0.1249 -0.0759 -0.1899
13684W        W29868   3.006  15.750   1.011  0.0877 -0.0560  0.0193
13685W        W29869  15.499   8.977  13.944 -0.0302 -0.1017  0.2475
13686W        W29870   3.371   2.617  13.157  0.2273 -0.2197 -0.1338
13687W        W29871  17.540  15.600   0.695  0.3359 -0.0963 -0.0262
13688W        W29872  10.665   4.115   2.730  0.1030  0.0032 -0.0524
13689W        W29873   9.146   4.151  11.260  0.2220  0.2705  0.2937
13690W        W29874  14.405   2.994   0.662 -0.1190  0.0707 -0.3751
13691W        W29875   8.516  15.369  10.192 -0.0427  0.1190 -0.1714
13692W        W29876  10.072  10.419  13.742  0.0493  0.0700 -0.5309
13693W        W29877  14.597   0.688   4.073  0.1574 -0.0472 -0.1173
13694W        W29878   0.217   1.504  13.834  0.4773  0.0825  0.1666
13695W        W29879   7.218   0.067   3.106 -0.0915  0.0559 -0.0248
13696W        W29880   0.878  13.468   3.179  0.2882 -0.3894 -0.2939
13697W        W29881   2.459  10.848   3.829  0.1279 -0.2336 -0.0725
13698W        W29882   4.094   5.124  11.898 -0.0199  0.0620 -0.0833
13699W        W29883   5.960  14.750  14.378  0.4491  0.1689 -0.1301
13700W        W29884  13.956   7.153  11.562 -0.0823  0.2024  0.1001
13701W        W29885   4.209   6.920   5.470  0.0810 -0.1591 -0.0494
13702W        W29886   6.939  18.408   2.925 -0.3416 -0.2349 -0.1058
13703W        W29887   9.365   6.738  14.950 -0.4149  0.1925  0.1035
13704W        W29888   6.469   1.634  10.131 -0.2312  0.0281 -0.2222
13705W        W29889   1.945  18.871   4.879 -0.2640  0.1828 -0.1453
13706W        W29890  11.754   0.053  12.639 -0.0025 -0.0063  0.0020
13707W        W29891  11.441  11.506  12.941  0.1311 -0.2457 -0.0369
13708W        W29892  10.180  11.399   0.577 -0.0162  0.0749  0.2211
13709W        W29893   5.355  16.439  13.750  0.1740  0.1459  0.5859
13710W        W29894   6.099  13.341   5.802 -0.0060  0.3086 -0.2205
13711W        W29895   3.190   3.121   5.940 -0.3045 -0.0099 -0.2031
13712W        W29896   1.926   4.961  12.623 -0.1229  0.2209  0.2550
13713W        W29897   1.910   4.290  14.729  0.3769  0.1255  0.0592
13714W        W29898  16.538   8.161   0.736  0.2117 -0.0808  0.1693
13715W        W29899  14.496  17.633  13.913  0.1474  0.0151 -0.0469
13716W        W29900  13.466  11.328   2.960  0.0949  0.1596  0.0404
13717W        W29901  13.159  10.986  10.277  0.0146  0.0159  0.0840
13718W        W29902  10.160   4.066   2.339 -0.0389  0.0622  0.0048
13719W        W29903   6.620   3.850   4.654 -0.1963 -0.0540  0.2696
13720W        W29904  10.887  10.492  14.848 -0.3269  0.1240  0.0826
13721W        W29905  12.298  11.692  13.276  0.0231 -0.0082  0.0552
13722W        W29906   5.499   0.832   0.883 -0.0445 -0.3155 -0.0928
13723W        W29907   7.543  16.083   0.714 -0.1971 -0.0351  0.1025
13724W        W29908  11.049   8.999   1.972  0.0284  0.0460  0.1145
13725W        W29909   8.239  16.259  12.848 -0.2138 -0.2764  0.0901
13726W        W29910  17.224   7.584   4.236  0.2269  0.0092  0.0258
13727W        W29911  16.141  19.259   0.633  0.3468  0.0819  0.0388
13728W        W29912   5.274   3.889  13.316  0.1607  0.1586  0.1731
13729W        W29913   7.625  11.910   1.824 -0.1564  0.1655  0.2594
13730W        W29914  15.173   7.343  13.956  0.1129 -0.2693 -0.0827
13731W        W29915   7.164  16.520  13.244 -0.1681 -0.1064 -0.0455
13732W        W29916   8.456  12.394   2.896 -0.0468 -0.1120 -0.0556
13733W        W29917   6.692   7.628  12.552 -0.0788  0.0252 -0.0379
13734W        W29918  12.161   6.109  12.460  0.0385 -0.1485 -0.0058
13735W        W29919  15.859   3.575   0.131  0.4820  0.0565  0.1767
13736W        W29920  15.220   3.141  14.279  0.2022  0.1198  0.1421
13737W        W29921  12.990  16.281   0.885  0.3416  0.1854 -0.0127
13738W        W29922  10.552   6.264   0.276 -0.1689 -0.4610  0.3538
13739W        W29923  17.971  12.661  14.775  0.1232  0.0589  0.1773
13740W        W29924   1.745  14.982  14.110  0.3226  0.0789 -0.0727
13741W        W29925   3.420   7.997   4.374  0.2950 -0.0041 -0.0828
13742W        W29926  16.639   2.204   4.062 -0.0006 -0.2084  0.0622
13743W        W29927  11.310   0.628   2.479  0.0216  0.3176  0.1480
13744W        W29928   7.851   7.936  12.444 -0.0881  0.0381 -0.0330
13745W        W29929  15.642   2.344  10.210 -0.2198  0.0191  0.1864
13746W        W29930  14.728  12.008  10.304  0.1946  0.1714 -0.1267
13747W        W29931  13.304   6.281   2.479  0.0987  0.1364  0.1708
13748W        W29932   2.614   5.786   1.574 -0.1296 -0.1852  0.1671
13749W        W29933  15.964  11.974   1.461 -0.0999  0.4074 -0.4262
13750W        W29934   7.877  12.922   1.685 -0.1498 -0.1473  0.1743
13751W        W29935  11.626  13.189  10.996  0.3777  0.1981 -0.2214
13752W        W29936   4.030   1.640   1.540  0.3373  0.1360  0.1106
13753W        W29937   1.162   8.600   2.654  0.1290 -0.1667 -0.2198
13754W        W29938  14.885   7.242   0.032 -0.1460  0.2188 -0.0860
13755W        W29939  14.206  14.061   2.486 -0.0844  0.1147 -0.1604
13756W        W29940  12.766  12.040  14.514 -0.2589 -0.0442 -0.0493
13757W        W29941  18.739  16.153   0.007  0.2449 -0.4301 -0.3022
13758W        W29942  18.061  13.931   5.723 -0.1185  0.0589  0.0441
13759W        W29943   5.064   1.533   1.418 -0.0478  0.0958 -0.1907
13760W        W29944  12.064   4.361   3.670  0.1822  0.0350  0.4096
13761W        W29945   8.846  17.717  11.519  0.1979  0.2799  0.3872
13762W        W29946   5.850  15.274   1.661 -0.0205 -0.1563  0.3820
13763W        W29947   3.731  15.615   4.507  0.0733  0.3584 -0.1096
13764W        W29948   7.038  11.403  12.713  0.2430  0.2146 -0.2724
13765W        W29949  11.721  18.399  12.821 -0.0257 -0.1698  0.4652
13766W        W29950   5.293   9.470   5.710 -0.1012  0.0384  0.0368
13767W        W29951  14.311  18.401  10.358  0.0404 -0.4196  0.0332
13768W        W29952  10.231  18.125   5.011  0.1465 -0.1561  0.1667
13769W        W29953  17.632  17.133  10.680 -0.0466 -0.3156  0.0837
13770W        W29954  18.056  12.247   3.392  0.1207  0.0781  0.0032
13771W        W29955  16.057  12.983   3.285  0.2629 -0.1014 -0.1574
13772W        W29956  12.918  13.530  14.584 -0.2802 -0.2045  0.2771
13773W        W29957   8.365   5.098  14.006 -0.2581 -0.0371  0.1086
13774W        W29958   8.996   2.328  14.234 -0.3171 -0.1011 -0.0205
13775W        W29959   4.128  17.309   0.027  0.5389 -0.2681 -0.0219
13776W        W29960   9.279  16.283   2.605 -0.3635 -0.4441 -0.1839
13777W        W29961  13.110  18.465   1.875 -0.1292 -0.2099  0.1692
13778W        W29962   9.963   3.691   3.146  0.1008 -0.0143  0.3855
13779W        W29963   7.268  10.002  12.085 -0.1302  0.3348 -0.0353
13780W        W29964  18.895  16.147   1.963  0.1929 -0.2590  0.2103
13781W        W29965  17.615  12.038   2.520 -0.0135  0.0233 -0.0635
13782W        W29966   9.034   7.875  12.607  0.2896 -0.3439 -0.0551
13783W        W29967   8.270  18.562   9.778  0.0084 -0.4122  0.3082
13784W        W29968   9.809   5.532  13.971  0.1484 -0.0927  0.2475
13785W        W29969   1.642   3.168   0.736  0.0686  0.1152 -0.4199
13786W        W29970   0.148   5.173  12.134  0.1011 -0.0735  0.1824
13787W        W29971   8.116   0.584  10.920  0.0998  0.0514  0.2540
13788W        W29972   6.952  13.535  14.928 -0.1152  0.3192  0.0360
13789W        W29973   7.474  14.871  13.038 -0.0933 -0.4086 -0.2069
13790W        W29974  14.312   0.906  10.964  0.1152  0.0501 -0.3120
13791W        W29975  15.072  11.004   2.921 -0.0029 -0.1107  0.1164
13792W        W29976   0.241  15.396   4.312  0.1659  0.0534 -0.0324
13793W        W29977  10.306  14.277  10.752 -0.2886 -0.2028 -0.1668
13794W        W29978  10.242  17.768  12.105  0.1104 -0.0470  0.0995
13795W        W29979   7.477  14.590  12.134  0.3775  0.1622  0.0049
13796W        W29980   8.996   7.118  11.500 -0.1053  0.0119  0.1387
13797W        W29981   9.290   3.198   3.818 -0.1334 -0.1344  0.4120
13798W        W29982  11.010   8.865  13.456 -0.0490  0.0857  0.1911
13799W        W29983   9.100  18.754  11.873  0.0023  0.1686  0.2980
13800W        W29984  13.297   4.047  14.759 -0.0309 -0.1225  0.2990
13801W        W29985   5.735  14.036  11.609  0.2382  0.0794 -0.1916
13802W        W29986   4.650  17.081   2.837 -0.0852 -0.1617  0.0280
13803W        W29987   0.544  16.652  14.333  0.1811 -0.1844 -0.0105
13804W        W29988   2.246  19.075   3.795  0.0110 -0.1976 -0.2489
13805W        W29989   1.731   6.083   3.637  0.2660  0.0144  0.2410
13806W        W29990  10.718  16.890  10.786 -0.2835 -0.0726 -0.0948
13807W        W29991   3.021   9.110   0.674 -0.0474  0.0424 -0.1653
13808W        W29992   8.093  11.107   3.742  0.0338  0.3600 -0.4018
13809W        W29993  18.757   9.444   5.671  0.0333  0.0196 -0.0270
13810W        W29994   1.394  16.169   3.447 -0.0763  0.0222  0.3173
13811W        W29995   2.077   2.541  11.351  0.2498 -0.1483 -0.0875
13812W        W29996   2.778  15.154  12.642  0.0251  0.0033  0.3116
13813W        W29997  13.571  16.812  14.730 -0.2309 -0.1593  0.0357
13814W        W29998   4.233   0.270   1.976 -0.1983 -0.2782 -0.1048
13815W        W29999   2.718  16.086   1.772  0.1759  0.2349 -0.1785
13816W        W30000   8.815  19.156  11.718 -0.0678 -0.1202 -0.2222
13817W        W30001   6.629  12.233  10.115  0.1885  0.0351  0.2684
13818W        W30002  10.727  11.722  11.812 -0.0456 -0.1203  0.0181
13819W        W30003   4.353  17.254   4.622  0.0521  0.0095  0.1037
13820W        W30004   5.363   1.104   0.266  0.0428 -0.3912  0.1825
13821W        W30005   7.883  19.148  11.143  0.3641 -0.2082  0.1445
13822W        W30006  10.855   3.005  13.099  0.0279  0.1060 -0.3535
13823W        W30007   7.702   4.347   1.518  0.0254 -0.0764 -0.3025
13824W        W30008   3.467  18.196   0.137 -0.1112  0.3457 -0.2632
13825W        W30009   6.914   5.864  14.143 -0.1534 -0.0673 -0.1061
13826W        W30010  18.840   0.048  11.138  0.1285 -0.1195  0.2015
13827W        W30011   0.768  14.432  11.269  0.1555  0.1258 -0.1611
13828W        W30012   1.829   4.268   2.199 -0.3111 -0.0150  0.2235
13829W        W30013   8.785  15.569  12.926 -0.1208 -0.0143 -0.0310
13830W        W30014  16.413  17.093   1.987  0.0048  0.0624  0.1344
13831W        W30015   1.701   1.134  13.221 -0.0830  0.3410 -0.0195
13832W        W30016   9.734   3.654   0.421 -0.0101  0.0481 -0.0545
13833W        W30017   2.320   1.942   1.535 -0.1901  0.4072 -0.0160
13834W        W30018   9.342  17.736  11.418 -0.0895 -0.0268 -0.4124
13835W        W30019  13.362  13.506  12.240  0.2591  0.1758 -0.0627
13836W        W30020  18.132  12.561  12.386 -0.1716 -0.0524 -0.0222
13837W        W30021  13.256  18.036  11.976 -0.1433  0.0240 -0.1482
13838W        W30022  18.421   9.313   0.920 -0.1068  0.1702  0.2627
13839W        W30023   3.413  11.804  13.254 -0.3486 -0.0737 -0.0572
13840W        W30024  11.963  13.812   1.225  0.1804 -0.2055 -0.1424
13841W        W30025   7.447  13.421  11.456  0.3028 -0.1444  0.3626
13842W        W30026   0.409   1.402  12.719 -0.2340  0.3008 -0.1577
13843W        W30027   0.503   8.551  10.347  0.3698  0.1448  0.1526
13844W        W30028  11.015   1.643  12.255  0.1531 -0.3163  0.0216
13845W        W30029   8.172   8.034  11.160  0.2403 -0.0292  0.0287
13846W        W30030   7.591   4.009  13.596 -0.1620 -0.1664 -0.0668
13847W        W30031  13.767  17.877  14.591 -0.0252 -0.0803  0.2629
13848W        W30032   2.751   1.297  14.451 -0.0029  0.0176 -0.1204
13849W        W30033  18.098   7.362   5.324  0.0870  0.1466 -0.1337
13850W        W30034   2.011  16.684  12.479  0.0378 -0.2819 -0.1897
13851W        W30035  10.029   9.844   1.602 -0.6157  0.0106  0.0911
13852W        W30036  10.097   3.773  10.516 -0.0906 -0.1123 -0.1698
13853W        W30037   0.146   5.471  12.667 -0.0157  0.1248  0.1724
13854W        W30038   0.007  10.466   1.359 -0.3076 -0.0933 -0.1485
13855W        W30039  11.025   5.432   4.130  0.0679 -0.0242  0.0077
13856W        W30040  12.126  19.034   0.626  0.0836 -0.0280  0.1974
13857W        W30041  15.878  15.588   3.439  0.2036  0.0209  0.1450
13858W        W30042   9.555   6.883   1.854  0.2207  0.3004  0.0369
13859W        W30043  19.181  18.921  10.534  0.2189  0.1859 -0.1861
13860W        W30044   2.157  13.242  12.144 -0.5777 -0.2669  0.1522
13861W        W30045  15.676  15.645  12.122 -0.1785 -0.0699 -0.3410
13862W        W30046  11.115   5.031  11.336  0.0693  0.1323  0.0832
13863W        W30047   7.386   5.233   3.657 -0.0002  0.0407 -0.1146
13864W        W30048   1.874  14.544  13.827  0.0234 -0.1125  0.0054
13865W        W30049  11.719   4.711  10.196  0.0282  0.0280 -0.0626
13866W        W30050   5.629   5.320  14.271  0.1433  0.2179  0.2189
13867W        W30051   0.166  14.868   4.197  0.0160  0.0047 -0.0254
13868W        W30052  11.314  17.731  10.108  0.1983 -0.0501  0.1816
13869W        W30053   1.641   5.975  12.015  0.1213 -0.1041  0.1094
13870W        W30054  13.929  17.999  10.365 -0.2222 -0.0111  0.0051
13871W        W30055  16.209   8.184   8.844 -0.0311  0.3065  0.3468
13872W        W30056   0.274  11.415   5.875  0.0229  0.1948 -0.2531
13873W        W30057  12.826  17.986   1.176  0.0295 -0.1246  0.1580
13874W        W30058   7.732   7.861  13.046 -0.0255  0.3906 -0.2128
13875W        W30059   4.233   1.381  10.612 -0.0988  0.1744  0.1663
13876W        W30060  13.561  17.881  14.105 -0.2926  0.3921  0.0050
13877W        W30061   3.685  15.576  11.405 -0.1041 -0.1259  0.4103
13878W        W30062   1.105   6.680   0.301  0.1535 -0.1468  0.2425
13879W        W30063  15.839  13.195   5.114  0.0558 -0.0886  0.0048
13880W        W30064   1.006   0.042   3.254 -0.1010  0.2621 -0.0678
13881W        W30065  10.581   2.270   9.886  0.1067  0.3381 -0.2294
13882W        W30066  13.143   3.314  13.248 -0.1050  0.2067 -0.2136
13883W        W30067   3.616   7.621   2.453 -0.1603 -0.6070 -0.0214
13884W        W30068   7.815  10.332   3.855 -0.2762  0.1120  0.2394
13885W        W30069  15.843   3.187   2.364 -0.1007 -0.0714 -0.1299
13886W        W30070   0.172  14.745  14.537 -0.4003 -0.2466 -0.3790
13887W        W30071   6.651  10.092  13.371 -0.0158 -0.1335  0.1974
13888W        W30072  10.628   5.233  12.163 -0.1211 -0.0602 -0.0930
13889W        W30073   2.489   3.796   3.035  0.1427 -0.1585  0.0512
13890W        W30074  12.783   6.123   3.288  0.1945  0.1653 -0.3874
13891W        W30075  14.544   7.490   2.874  0.0394  0.0354 -0.1233
13892W        W30076   1.166  14.950   5.355 -0.0781  0.2228 -0.0320
13893W        W30077  19.007   7.738  14.270 -0.0592  0.0124  0.1588
13894W        W30078  17.660   9.295   4.721 -0.2746 -0.3105 -0.2890
13895W        W30079   1.064  10.838   4.816 -0.0371  0.1946  0.0103
13896W        W30080  17.872  11.956  10.680  0.1129  0.4740  0.0774
13897W        W30081   3.931   3.358   3.341 -0.1052  0.0629  0.2516
13898W        W30082  10.079  13.605   1.802 -0.0004  0.2132  0.1792
13899W        W30083  13.724  12.484   4.292 -0.3920 -0.0421 -0.1125
13900W        W30084  14.008  15.933  10.746 -0.2481  0.3585 -0.0790
13901W        W30085   9.775  14.430   2.611 -0.2355  0.1351  0.1469
13902W        W30086   9.980   4.364  14.007  0.0192  0.3971 -0.0948
13903W        W30087  14.873   8.357  13.929 -0.2189  0.1142 -0.1230
13904W        W30088  17.937  18.475  10.697 -0.1073 -0.1014 -0.0017
13905W        W30089  11.468  16.010  10.345  0.1617 -0.0362  0.0143
13906W        W30090   9.614  16.208  13.917 -0.2610  0.3455  0.0554
13907W        W30091  13.833   0.027  11.223  0.1324  0.1372  0.1828
13908W        W30092  16.595   0.000  14.872 -0.0614 -0.2105  0.1215
13909W        W30093  14.125  16.052  12.198  0.3444  0.1233 -0.0378
13910W        W30094   3.443  18.435  12.809  0.0580  0.0089 -0.1152
13911W        W30095   8.633   1.174   0.558  0.0896  0.2022  0.1705
13912W        W30096  13.612  16.531  10.423 -0.1799  0.2428 -0.1503
13913W        W30097   1.714  13.818   4.778 -0.0945 -0.1671  0.0699
13914W        W30098   0.163  12.260  13.949  0.0878  0.0016  0.1336
13915W        W30099   2.025   7.190   5.208  0.1243  0.2861 -0.0498
13916W        W30100  17.721   4.104   2.397  0.0523 -0.1419 -0.0232
13917W        W30101  10.615  13.896   4.572 -0.0814  0.2459 -0.0746
13918W        W30102   7.048   3.554   3.725  0.4116 -0.0822  0.0476
13919W        W30103   0.268  10.605   4.686 -0.3510  0.0437  0.1722
13920W        W30104   7.929  14.693   2.804  0.1227 -0.1556 -0.1674
13921W        W30105   5.108  16.028  12.900  0.1221 -0.1533  0.3538
13922W        W30106   8.943   3.698   1.676  0.3586  0.0751  0.1859
13923W        W30107  12.822  10.259  14.447  0.0430  0.0923 -0.0990
13924W        W30108   6.536  18.455   1.625  0.3000 -0.0856  0.0025
13925W        W30109  11.612  18.511  14.476  0.0613  0.4252  0.1023
13926W        W30110  19.184  18.061   2.646  0.1023  0.2101 -0.0584
13927W        W30111   4.871   3.966   4.200 -0.1184  0.1756  0.1827
13928W        W30112  13.665   6.378  11.753  0.1328 -0.0521  0.1331
13929W        W30113   3.310   1.153   2.478 -0.0410 -0.1159  0.0864
13930W        W30114   7.608   7.067  12.416  0.1163  0.3375  0.0809
13931W        W30115   3.379   5.824   0.578  0.1024 -0.3669  0.1491
13932W        W30116   7.696  13.924   0.075  0.2387  0.0199 -0.0271
13933W        W30117   6.006   0.226  11.000 -0.0206  0.0138  0.2148
13934W        W30118   2.057  13.993  14.254 -0.1190  0.2170  0.0428
13935W        W30119   0.554  18.257  14.275  0.3295 -0.0274 -0.2355
13936W        W30120   4.052   2.924   4.574 -0.2250 -0.1122  0.1143
13937W        W30121   5.822   4.008  14.419 -0.1487  0.0392 -0.0422
13938W        W30122  10.701   4.896   0.107  0.1179  0.0549  0.1333
13939W        W30123   6.587   8.616   2.637 -0.1498 -0.1098 -0.2164
13940W        W30124  14.327  10.277  10.230 -0.0195  0.0639 -0.1002
13941W        W30125  10.306   8.521  12.793 -0.2946  0.0079  0.1740
13942W        W30126  13.227  10.802   3.568 -0.2827  0.2668 -0.2363
13943W        W30127  17.098  14.595   5.595 -0.1819 -0.0877  0.0443
13944W        W30128   9.280   5.926  11.421 -0.3103 -0.2531 -0.1761
13945W        W30129  13.367   6.699  11.441  0.0082  0.0572 -0.3928
13946W        W30130   8.642  16.915  14.676 -0.0292  0.1095 -0.2582
13947W        W30131  14.113  16.353   4.065  0.3226 -0.3115 -0.1822
13948W        W30132  17.457   7.059  10.266  0.2399  0.3134 -0.1669
13949W        W30133   6.618  17.830  11.273 -0.2434 -0.0259 -0.0240
13950W        W30134  15.397  13.412  10.673 -0.1204  0.0714 -0.2984
13951W        W30135  13.939  13.353  11.539 -0.4488  0.0740  0.0899
13952W        W30136   9.909  15.149  10.457  0.0621  0.2038 -0.1688
13953W        W30137   0.799   5.661   1.137  0.2181  0.2943 -0.2619
13954W        W30138   3.359   4.584   1.783 -0.1769 -0.2310 -0.0713
13955W        W30139   6.759   1.683   9.661  0.0977 -0.0729  0.1090
13956W        W30140  18.899   9.870  11.016 -0.3259  0.0092 -0.0163
13957W        W30141   4.138  15.158  14.901 -0.2395 -0.0658 -0.1852
13958W        W30142  12.723   4.792  10.226  0.2678 -0.2139  0.1574
13959W        W30143   3.769  16.973  11.906 -0.3519 -0.1380  0.0004
13960W        W30144   8.884   9.648   3.036  0.1388  0.0381 -0.0763
13961W        W30145   9.996  18.349  11.531  0.0790 -0.2409  0.0230
13962W        W30146  18.631  13.451   2.393  0.0183 -0.3759  0.3186
13963W        W30147   1.383   0.311   2.811  0.2190 -0.1511  0.0688
13964W        W30148   2.045  15.433  12.195  0.0051 -0.1931  0.0804
13965W        W30149  17.584   7.686  13.434  0.1617  0.0108 -0.0881
13966W        W30150  15.181  15.799   4.562 -0.0761 -0.0880 -0.1430
13967W        W30151   1.644   0.062  13.504  0.0429 -0.2178  0.3124
13968W        W30152  19.057  16.988  14.674  0.2867 -0.4257 -0.0112
13969W        W30153   9.802   5.694   4.376 -0.1674 -0.1310 -0.1384
13970W        W30154   3.801   8.903   1.547  0.1099  0.0156 -0.3387
13971W        W30155  13.431  17.385  13.079  0.3035 -0.1129  0.0894
13972W        W30156   7.900   3.228  11.773  0.2633 -0.1146 -0.1910
13973W        W30157  18.240  11.714   3.240 -0.2341  0.2199  0.2236
13974W        W30158   3.487  13.173  13.980  0.0672 -0.1149  0.2306
13975W        W30159   2.138   6.709  14.536  0.2482 -0.1235  0.0519
13976W        W30160  17.850   5.242   1.692 -0.2374  0.0637  0.3779
13977W        W30161   4.182  16.447  10.825 -0.0865  0.4375  0.1145
13978W        W30162   4.698   4.426   4.972  0.0405  0.1204  0.2482
13979W        W30163   8.166   5.451  10.648  0.2333  0.1153  0.1459
13980W        W30164   0.274  10.441  14.390 -0.2294 -0.1206 -0.2214
13981W        W30165   5.115  15.751  12.471 -0.1090 -0.2419 -0.5448
13982W        W30166   6.557   3.729   5.521 -0.0454 -0.0108  0.3290
13983W        W30167   2.912   2.652   1.305  0.1072 -0.0471  0.3309
13984W        W30168  12.904  17.972   4.619  0.0149 -0.3741  0.1312
13985W        W30169  10.259   0.998  14.564 -0.0014 -0.1390 -0.1722
13986W        W30170   9.938   2.447   0.602 -0.0711  0.1501 -0.3876
13987W        W30171   4.515   0.035  11.239 -0.3027  0.2203  0.0738
13988W        W30172   6.281  11.351  12.005 -0.0621  0.0150 -0.0731
13989W        W30173  13.847  11.162   9.485  0.1474 -0.3468 -0.0153
13990W        W30174   8.916  16.551   1.868 -0.2415 -0.3012  0.1075
13991W        W30175   3.956   3.188  12.584  0.1281  0.2599 -0.0106
13992W        W30176  14.183   4.338  14.845 -0.1280  0.1563 -0.2357
13993W        W30177   9.231   2.803  10.365  0.1005 -0.2215  0.0470
13994W        W30178   7.139  12.916  10.655  0.3518 -0.0257 -0.0660
13995W        W30179  13.699   5.592   1.097  0.1286  0.0490 -0.1331
13996W        W30180  11.855   8.493   2.435 -0.0336 -0.1232  0.1390
13997W        W30181  14.785   0.350  14.912  0.1380 -0.1314 -0.1268
13998W        W30182   3.965   9.506   5.150 -0.2662 -0.4935 -0.2091
13999W        W30183   9.456  15.245  13.467 -0.1243 -0.0282  0.1349
14000W        W30184   9.675  10.962   2.478  0.0461 -0.0880  0.0937
14001W        W30185  14.120  16.984   3.321  0.0416  0.1715 -0.1214
14002W        W30186   0.786   4.761   0.086 -0.2345  0.2759  0.2137
14003W        W30187  13.258   1.501   1.075 -0.0490  0.1745  0.1409
14004W        W30188   8.299  10.185   0.903  0.1931 -0.1133  0.1189
14005W        W30189   9.625   6.257   2.333 -0.1286 -0.3025  0.0691
14006W        W30190   8.491  15.600   3.346  0.1418  0.1157  0.2171
14007W        W30191  12.023  12.622  11.675  0.1927  0.0000 -0.0664
14008W        W30192   9.080   3.124   0.936 -0.1670 -0.3914 -0.1387
14009W        W30193  16.769  11.939   0.507  0.2109 -0.2028 -0.1700
14010W        W30194  17.511   1.519   3.679  0.1308  0.2124 -0.0738
14011W        W30195   2.995   7.565   3.030 -0.4476 -0.0116 -0.2051
14012W        W30196  13.929  11.572  14.856  0.2045  0.0908 -0.0337
14013W        W30197  19.085   7.684  13.531 -0.1429  0.1819 -0.2321
14014W        W30198   9.034   9.778  14.807 -0.4087 -0.0205  0.4599
14015W        W30199   1.114   2.861   2.001  0.0760  0.2435 -0.0699
14016W        W30200   9.224  14.800  14.330 -0.0124 -0.0575 -0.1114
14017W        W30201   5.558  17.898   1.613  0.4104  0.1836  0.2881
14018W        W30202  19.240  17.981  11.992 -0.1035  0.0985 -0.1074
14019W        W30203   5.268  12.640   4.891 -0.0545 -0.1064  0.0461
14020W        W30204  10.031   3.560  13.519  0.2018  0.3172  0.2261
14021W        W30205   2.143  17.252  11.030  0.0515  0.0900 -0.3301
14022W        W30206   6.215  19.137  10.743  0.2193  0.1071 -0.1171
14023W        W30207  11.304   8.431  14.727 -0.1739  0.1963  0.0626
14024W        W30208   0.540  12.354   9.937 -0.2032 -0.1988  0.2710
14025W        W30209   5.486   9.952  13.901 -0.2630  0.2879  0.1801
14026W        W30210   6.215   7.916   5.412 -0.5251 -0.2008  0.2137
14027W        W30211   3.619   9.070   4.190  0.2357 -0.1728 -0.1450
14028W        W30212   5.515   9.250  13.401 -0.2886 -0.1076 -0.0403
14029W        W30213  13.914   7.593  13.004 -0.0605 -0.0533 -0.1498
14030W        W30214  15.968  11.803  14.309  0.1417 -0.1085  0.1280
14031W        W30215   8.267   0.386   3.766  0.1939 -0.0806 -0.0339
14032W        W30216   0.796   3.115  12.174  0.0472 -0.2140  0.4021
14033W        W30217   5.121  17.200  14.011  0.1289 -0.0365 -0.0923
14034W        W30218  14.590  14.010   8.888  0.0072  0.2099 -0.1684
14035W        W30219   5.387   7.162   5.334 -0.1417 -0.3422  0.1320
14036W        W30220   7.456   5.835   4.246 -0.3424 -0.1548 -0.0175
14037W        W30221  11.985  10.519   3.644 -0.1139 -0.2934  0.0040
14038W        W30222  11.028  12.131  12.330  0.4183 -0.0394 -0.0900
14039W        W30223  17.729   8.546   3.454 -0.2466  0.1964  0.1084
14040W        W30224   1.807   2.371   4.116 -0.1542 -0.0308 -0.1343
14041W        W30225   7.178  18.765  12.419  0.1625  0.1756 -0.0699
14042W        W30226   8.893   3.819  14.374 -0.2894 -0.2168  0.3053
14043W        W30227  11.309  17.831   0.685 -0.0720 -0.0648  0.2320
14044W        W30228   8.559  14.165   4.339  0.2351  0.2063  0.5519
14045W        W30229  12.414  17.141   0.958 -0.0556 -0.0585  0.0992
14046W        W30230  17.744   3.898   0.997  0.1012  0.3562 -0.2244
14047W        W30231   3.361   5.439  12.581 -0.1879  0.0017 -0.2036
14048W        W30232   1.295   3.351   3.998  0.2386 -0.0221 -0.1727
14049W        W30233  13.344  17.738   1.355 -0.2958 -0.1384 -0.3422
14050W        W30234  14.467   5.286  13.027 -0.2168 -0.2733  0.0438
14051W        W30235   7.770  13.470   0.551 -0.2906  0.0338  0.0206
14052W        W30236  19.368   4.789  13.259 -0.0768  0.2570 -0.0660
14053W        W30237   9.196  18.183  14.513  0.0555  0.1946  0.0515
14054W        W30238  13.761   4.496  14.506  0.2299  0.0713  0.0216
14055W        W30239   9.434   0.551   0.289  0.2534  0.0454 -0.0102
14056W        W30240  12.919   3.844   2.024 -0.0339 -0.3622  0.0545
14057W        W30241   8.792  14.257   3.042 -0.1159  0.1546 -0.1627
14058W        W30242  11.209  11.625  12.052  0.2314 -0.2712  0.5770
14059W        W30243  16.821   0.099   3.700 -0.1100 -0.1063  0.1210
14060W        W30244  16.400  17.705  13.097  0.0787 -0.0866  0.0209
14061W        W30245   1.559   0.227   1.209  0.0549  0.0721 -0.1581
14062W        W30246  16.840   0.065  14.042 -0.2729 -0.0072 -0.0457
14063W        W30247  17.260   5.463  12.124  0.0352 -0.1099  0.2207
14064W        W30248   0.891  17.502   2.334  0.3359  0.3994  0.1094
14065W        W30249   6.294  14.269   2.742  0.0619  0.2241  0.0128
14066W        W30250  15.340  11.889  11.973  0.1309  0.3637 -0.0375
14067W        W30251  11.020   3.980  11.090 -0.0613 -0.3834 -0.0610
14068W        W30252   6.289   6.295  13.002 -0.1693 -0.0412 -0.0097
14069W        W30253   6.983  11.420   4.128 -0.1390 -0.2419 -0.0896
14070W        W30254  15.786   7.327  13.569  0.1477  0.0942  0.0886
14071W        W30255  18.767   9.236  13.626  0.0203  0.1879 -0.1399
14072W        W30256  13.788  10.619   0.585  0.1977  0.0592  0.0023
14073W        W30257  13.104   3.543   2.337  0.0539  0.0320  0.0381
14074W        W30258  11.442   5.378   9.861 -0.0637 -0.3324  0.0747
14075W        W30259  14.915  15.443  14.711 -0.5098  0.0599  0.1867
14076W        W30260   3.327  10.337   1.350  0.1136  0.1159 -0.0019
14077W        W30261   8.127  15.299  12.457 -0.1104 -0.3183 -0.0491
14078W        W30262  14.909   5.818   2.930  0.3363 -0.0320  0.4463
14079W        W30263  14.989  13.614  11.989 -0.0145  0.1608 -0.0022
14080W        W30264  18.780  12.870   3.615 -0.0688  0.0929  0.0628
14081W        W30265   3.779  12.005   3.944 -0.1057  0.0765 -0.2448
14082W        W30266   4.293   2.713  12.877  0.0316  0.1877 -0.0629
14083W        W30267   3.296   3.985  13.454  0.0663 -0.0256 -0.1360
14084W        W30268  14.326  18.343   0.336  0.1259 -0.1140  0.0150
14085W        W30269   6.222  13.717  12.505 -0.1481 -0.1884 -0.0992
14086W        W30270   6.886   0.642   5.546  0.0865  0.0367  0.1662
14087W        W30271   7.483   0.031   0.900 -0.4434  0.5615 -0.2544
14088W        W30272  10.984   5.793  13.301  0.0899 -0.1190  0.0477
14089W        W30273   4.407   2.732   5.016  0.1498  0.0687 -0.2863
14090W        W30274   1.306   3.591   0.342  0.2878 -0.0102  0.1831
14091W        W30275  12.733  14.271  11.311  0.1906  0.2731 -0.1183
14092W        W30276   2.584  13.937   3.996 -0.1116  0.0304  0.0263
14093W        W30277   9.458   0.484  13.166  0.2415 -0.1526 -0.3121
14094W        W30278  16.142  16.989   3.297 -0.1100 -0.2966  0.0795
14095W        W30279  12.512   5.648  11.938 -0.0299 -0.6253  0.1277
14096W        W30280   6.807   4.929  13.061 -0.0576  0.1470 -0.0060
14097W        W30281  16.150   0.077   2.489  0.1092 -0.0274  0.1027
14098W        W30282  16.802   9.307   0.278 -0.3265  0.2360 -0.1984
14099W        W30283   4.438  18.883   2.276 -0.2106  0.0739  0.1094
14100W        W30284  12.175   1.228  12.327  0.0190  0.0348  0.3228
14101W        W30285  13.357  10.755   2.357  0.0310 -0.1304 -0.1530
14102W        W30286   4.774   0.801  11.853 -0.0840  0.4721  0.3462
14103W        W30287   9.698  18.419   3.219  0.4812 -0.0235  0.2766
14104W        W30288   6.122  16.754  12.412  0.0310 -0.3577 -0.1809
14105W        W30289  16.405  10.630  14.072 -0.1225 -0.4755 -0.3549
14106W        W30290   4.162   6.608   4.945 -0.0139  0.0811  0.1486
14107W        W30291   4.653   4.851  12.339  0.1247  0.2142  0.2678
14108W        W30292  13.711   1.193  12.068  0.0108  0.1487  0.0839
14109W        W30293  10.181  17.825   2.313  0.2770  0.0519  0.1779
14110W        W30294  17.447   7.838   1.557  0.0465  0.2736  0.1144
14111W        W30295  13.325   2.898   2.205  0.1113 -0.0773 -0.1893
14112W        W30296  17.764   0.041  14.054 -0.1108 -0.1143 -0.5435
14113W        W30297  16.080   0.451   3.319  0.2065 -0.0827 -0.2386
14114W        W30298  11.772   8.023  14.468  0.0376 -0.1801  0.1121
14115W        W30299  17.186   3.857   0.242  0.0442  0.1833  0.0132
14116W        W30300   3.131   5.441   0.173 -0.0706 -0.0017 -0.2446
14117W        W30301  13.481  13.593   5.253 -0.3355  0.1669  0.2067
14118W        W30302  17.388   9.071   5.050  0.1489 -0.1365 -0.1754
14119W        W30303   9.851  10.003   2.346  0.0745 -0.1490 -0.2665
14120W        W30304  14.979  17.247  11.780  0.0530  0.1078  0.1555
14121W        W30305  11.034   7.137   2.170  0.2693 -0.1025  0.0927
14122W        W30306  14.477   1.169   3.789 -0.0301  0.3710 -0.1540
14123W        W30307   1.410  10.585   3.019  0.3450 -0.1359 -0.2225
14124W        W30308  11.941   4.775  13.313 -0.0620 -0.2083 -0.0606
14125W        W30309   7.998   0.353  12.337  0.0054  0.3038  0.1319
14126W        W30310  17.614   2.115  13.330 -0.0141 -0.3063  0.1699
14127W        W30311   1.771  10.878   2.566  0.1914  0.0533 -0.0740
14128W        W30312  18.479  17.672   0.960 -0.1274 -0.2925 -0.0656
14129W        W30313  17.273   7.612  10.704 -0.0035 -0.0214  0.0553
14130W        W30314  12.399  17.775  12.354  0.0580  0.5627  0.2679
14131W        W30315   4.588  18.418  12.872  0.0596 -0.2699 -0.1241
14132W        W30316   4.370  14.824  14.556 -0.0068  0.2764 -0.0834
14133W        W30317  17.774   5.524  12.133  0.0661  0.2677  0.3092
14134W        W30318   0.773  16.196  10.447 -0.2140  0.2031 -0.0841
14135W        W30319   4.888   5.393   1.068  0.0544 -0.0077 -0.0204
14136W        W30320   8.370   7.389   0.466  0.3919  0.1053 -0.1457
14137W        W30321   5.525   2.160   3.738 -0.2292  0.2913  0.2778
14138W        W30322  11.932  11.524   0.685  0.0679 -0.3694  0.0293
14139W        W30323  12.256   5.811   2.853  0.2095  0.0893  0.0295
14140W        W30324  14.181  18.867  11.223  0.0007  0.2026 -0.1167
14141W        W30325   9.098  19.090  13.350 -0.4032 -0.1845 -0.3383
14142W        W30326  15.907  18.282   1.168  0.6805 -0.2469  0.1426
14143W        W30327   8.601  12.727  10.672  0.1175  0.4108 -0.0568
14144W        W30328  18.722   7.378   2.303 -0.2942  0.0762 -0.0614
14145W        W30329  19.062   1.159  13.108 -0.0079  0.4439 -0.1143
14146W        W30330   2.694  12.427  13.168  0.1216 -0.0398 -0.3308
14147W        W30331  15.532  15.682   1.973  0.0499 -0.1578  0.0071
14148W        W30332  13.028   0.185  12.338 -0.0857 -0.1405 -0.0107
14149W        W30333   0.894   4.597  14.475  0.2179 -0.0242  0.0214
14150W        W30334   3.250  13.667  13.605  0.2024 -0.1000 -0.0637
14151W        W30335   7.542   7.339   4.331 -0.2883  0.1856  0.1963
14152W        W30336  13.102  17.481  11.845  0.2660 -0.1528 -0.3027
14153W        W30337  13.662  14.180   2.552 -0.1072  0.3440 -0.2295
14154W        W30338  16.383   1.092  14.789  0.3143 -0.0472 -0.0491
14155W        W30339   8.289   9.401   2.056  0.0574  0.1627  0.0983
14156W        W30340   1.877  19.179  11.717 -0.1618  0.0660  0.0757
14157W        W30341  15.623   2.799   3.870  0.2022  0.0260  0.0776
14158W        W30342   3.258   6.533   5.237 -0.1723 -0.2653  0.2834
14159W        W30343  18.630   4.657   1.873  0.1063 -0.1659 -0.0774
14160W        W30344   2.950  18.903   3.155 -0.0152 -0.0222 -0.0222
14161W        W30345  18.187   5.937   0.652  0.1428 -0.1970 -0.1442
14162W        W30346   8.964   0.017  10.676  0.0147 -0.0956  0.3329
14163W        W30347  14.961   0.052  14.095  0.0132 -0.1475 -0.0945
14164W        W30348   6.615   2.788   3.195 -0.1487 -0.3661  0.5322
14165W        W30349   5.761   7.890   4.143 -0.1059 -0.0155  0.1514
14166W        W30350   2.009  15.401  11.718  0.2489  0.1515 -0.2524
14167W        W30351   3.432   1.688   0.219 -0.0419  0.3023  0.0013
14168W        W30352  14.795  11.068   4.322  0.0577  0.0426  0.0935
14169W        W30353   9.725  17.046   2.179  0.0739  0.0845 -0.2770
14170W        W30354   6.394  14.723   4.528 -0.2896 -0.0192 -0.0752
14171W        W30355  14.667   1.947   4.798 -0.0199  0.1353 -0.2591
14172W        W30356  13.962  12.308  13.597  0.4687  0.1318  0.4167
14173W        W30357   5.440   6.725   0.762  0.0913 -0.0801 -0.0798
14174W        W30358  13.734  13.623  10.477  0.1290 -0.0853  0.3844
14175W        W30359   4.045   4.140   4.968  0.2923  0.0733  0.1589
14176W        W30360   1.864   2.529   2.414 -0.1986  0.0580  0.1406
14177W        W30361  10.023   7.272   3.316  0.0388 -0.1251  0.0631
14178W        W30362   5.336  16.773  12.537  0.2003 -0.2372 -0.1505
14179W        W30363   2.423  12.366  12.392  0.0113 -0.1076  0.0507
14180W        W30364   9.307   9.894  14.309  0.4130  0.0240 -0.1161
14181W        W30365  10.225  13.851  12.733 -0.1602 -0.0674  0.0395
14182W        W30366  17.509   7.167   3.843  0.2334 -0.0679  0.1171
14183W        W30367   3.302  17.965  10.981 -0.2786  0.1753  0.1532
14184W        W30368   3.855   4.041  12.277 -0.1607 -0.1417 -0.1741
14185W        W30369   4.812   8.601  13.178 -0.0934  0.0625 -0.0587
14186W        W30370  12.248   4.307  10.956  0.0468  0.1184 -0.2327
14187W        W30371   1.620   4.076   1.220 -0.0334 -0.0944  0.1339
14188W        W30372   3.045   8.996   6.171  0.0639 -0.1950 -0.3721
14189W        W30373   2.561   1.904   3.852 -0.0880  0.1781  0.0205
14190W        W30374   2.214  18.964   2.794 -0.0971  0.1199 -0.0445
14191W        W30375   1.812  16.075   1.598 -0.4287  0.2101 -0.0202
14192W        W30376   2.263  18.412   0.209 -0.3393 -0.3107  0.0627
14193W        W30377  13.657  19.033   9.168 -0.1419 -0.3113  0.0592
14194W        W30378  17.067   9.244  14.106 -0.1156 -0.2426 -0.4330
14195W        W30379   6.016  17.682  11.393  0.3542 -0.1097 -0.0852
14196W        W30380  14.495  10.368   0.617 -0.0756  0.0049 -0.0966
14197W        W30381   5.347  13.166  14.088  0.2809  0.1246  0.1564
14198W        W30382  15.524   6.088  13.868  0.0988 -0.0949 -0.1978
14199W        W30383  16.024  13.962  11.780  0.4315  0.1317  0.0635
14200W        W30384   9.310   4.899  13.925 -0.2060  0.0884  0.1543
14201W        W30385  16.256   7.439  11.562 -0.1412 -0.1115  0.0169
14202W        W30386  10.836   0.872  10.169  0.2994 -0.0671  0.0886
14203W        W30387  10.490   1.711   4.054 -0.0001  0.3251  0.0282
14204W        W30388   3.794   0.753   3.224  0.1465 -0.2383 -0.5949
14205W        W30389   8.007   1.439   0.166  0.2513 -0.3356 -0.0230
14206W        W30390   8.232   6.370   2.048 -0.3059  0.3124  0.0329
14207W        W30391   1.081  11.698   1.073  0.3788 -0.2655  0.0412
14208W        W30392  14.970  13.985  14.640 -0.3299 -0.0781 -0.2053
14209W        W30393  12.563  16.951   4.699  0.1374 -0.0432  0.2565
14210W        W30394   9.513   1.164   1.637 -0.2193  0.2722  0.1560
14211W        W30395   1.523   9.057  14.347 -0.1226 -0.2734  0.0721
14212W        W30396   8.661  16.060  11.202  0.2344  0.1571 -0.0040
14213W        W30397  13.225   6.269   0.379 -0.0037  0.1614  0.1529
14214W        W30398   1.629   8.603  11.833  0.0517 -0.1152  0.0064
14215W        W30399   6.986   4.070   1.283 -0.1222 -0.0290  0.0431
14216W        W30400   4.084   1.695   2.658  0.0479  0.2411  0.3567
14217W        W30401  16.384   2.870   9.123  0.0580  0.0284  0.1741
14218W        W30402  17.525   1.799   0.255  0.1107 -0.2194 -0.4202
14219W        W30403   1.778   7.108   3.167 -0.0489 -0.1034 -0.0227
14220W        W30404  19.274  17.573   2.583 -0.0521 -0.3478  0.0730
14221W        W30405   0.750  19.371  11.760 -0.0211  0.2052 -0.0882
14222W        W30406   2.158   7.359   4.785  0.1080  0.1917  0.0003
14223W        W30407   5.581  16.513   3.539 -0.0270  0.1006 -0.1288
14224W        W30408   9.731  13.486   4.809 -0.1595  0.0175 -0.0777
14225W        W30409  12.070  14.777   1.413  0.0796 -0.1672 -0.0908
14226W        W30410  14.466  14.222   2.093  0.2314  0.0183  0.1000
14227W        W30411   3.725   2.534  14.417 -0.0791 -0.1532 -0.2347
14228W        W30412   3.338  13.005   3.287 -0.0117  0.2790  0.1281
14229W        W30413   0.345  18.361   1.219  0.3241  0.1874 -0.3335
14230W        W30414   4.532   7.638   4.993  0.2839 -0.0876  0.0512
14231W        W30415   4.474  11.276   6.063 -0.0973 -0.3662  0.3219
14232W        W30416   7.618   1.903  14.637  0.0725 -0.2620  0.0179
14233W        W30417   9.963   8.350  12.529 -0.4393 -0.0993  0.0523
14234W        W30418   9.853   1.671   4.783  0.0756  0.1528  0.2513
14235W        W30419   4.623   3.463  12.319 -0.1168  0.1983  0.1839
14236W        W30420   9.241   9.600  10.482 -0.2596 -0.0184 -0.1326
14237W        W30421  18.624  14.284   1.217 -0.0571  0.1820 -0.2742
14238W        W30422   4.505   6.494   0.556  0.0202  0.1100 -0.0020
14239W        W30423  18.399   4.775  14.388  0.3155  0.2906 -0.1585
14240W        W30424  10.684   2.860  12.548 -0.0070 -0.0388 -0.1798
14241W        W30425  15.635  10.684  13.849 -0.0175 -0.2709 -0.3034
14242W        W30426   1.078   4.640  11.962 -0.1431 -0.0816  0.0389
14243W        W30427   3.117   1.380   3.007 -0.0664  0.1941  0.0651
14244W        W30428  14.570   5.885  12.197  0.2565  0.0150 -0.0332
14245W        W30429  11.640   5.466   2.918 -0.0285 -0.1619 -0.1044
14246W        W30430  14.722   9.761   3.990  0.3281 -0.1388  0.0140
14247W        W30431   3.810  14.291   3.495  0.0775 -0.3185 -0.0688
14248W        W30432  11.728   5.684  10.501  0.2665  0.1180 -0.2486
14249W        W30433  10.664   3.029  11.571 -0.0941  0.1933 -0.2001
14250W        W30434  18.049   9.358  12.467  0.3321  0.1797 -0.2560
14251W        W30435   6.560   7.960  11.900 -0.2163 -0.1221 -0.1677
14252W        W30436   0.448   0.137   4.241 -0.1174  0.1261  0.1997
14253W        W30437   8.232   4.004  12.859 -0.0672  0.1217  0.0882
14254W        W30438   4.362  15.484  11.988  0.1319  0.3623 -0.0795
14255W        W30439  13.448   1.148  12.916  0.4727  0.1281 -0.0920
14256W        W30440  13.625   5.201   0.000 -0.1152 -0.0013  0.1418
14257W        W30441  13.572   9.508   3.004 -0.1962  0.1167 -0.3985
14258W        W30442   9.320   0.701  14.398 -0.0072 -0.1384 -0.2267
14259W        W30443   4.197   8.759   3.025 -0.3487 -0.0112  0.3144
14260W        W30444  10.619   5.564   3.079  0.0664  0.3391  0.2650
14261W        W30445  13.452   0.176   3.456 -0.2432 -0.0067 -0.1771
14262W        W30446   0.063   6.161  14.556  0.0069 -0.1244  0.1074
14263W        W30447  17.156   2.136   2.267  0.0997  0.1692  0.0792
14264W        W30448  10.868  13.897  13.750  0.2561  0.1564  0.0080
14265W        W30449  15.177  10.433   4.609 -0.0622  0.2235 -0.2349
14266W        W30450   0.708  16.969  12.002 -0.2536  0.1587 -0.1912
14267W        W30451   1.523   7.506  13.660  0.2426 -0.0443 -0.2811
14268W        W30452  12.845  13.810   3.588  0.0518 -0.1222 -0.1481
14269W        W30453  12.348   9.739  13.681 -0.0249 -0.0057 -0.0771
14270W        W30454  15.814  10.791   1.216  0.4737 -0.1865  0.2613
14271W        W30455   1.567  10.469   1.966 -0.0710  0.1826 -0.0151
14272W        W30456   1.481  18.575  13.984  0.1876 -0.1176  0.3131
14273W        W30457  12.766   0.442   0.268 -0.1591 -0.2476  0.1778
14274W        W30458   0.424   2.605   4.522 -0.2098 -0.0906 -0.0347
14275W        W30459  14.033   5.891  13.894  0.1074 -0.1527  0.1576
14276W        W30460   6.675   7.669  14.030  0.0696  0.1348 -0.1894
14277W        W30461  14.280  14.834   3.841 -0.1746 -0.1228 -0.1575
14278W        W30462   1.809   1.446  11.045 -0.3218  0.1401 -0.1013
14279W        W30463  13.876   8.675   2.289  0.1012  0.2206 -0.1814
14280W        W30464   3.679   3.697   2.462  0.2344 -0.0661 -0.0739
14281W        W30465  11.230   5.985  12.428  0.0001  0.1478  0.0465
14282W        W30466   7.403  15.290  14.525  0.0171  0.2483 -0.3158
14283W        W30467   7.489   9.454  13.312 -0.1846  0.0912  0.1923
14284W        W30468   5.046  14.424  14.258 -0.0244  0.0893  0.3183
14285W        W30469   2.053   4.346   5.017 -0.1926 -0.1897 -0.1872
14286W        W30470   9.598  11.145  10.417 -0.1070 -0.1462 -0.0337
14287W        W30471   2.932   1.953   2.403  0.2533  0.0140  0.4448
14288W        W30472  11.401   3.047  12.984 -0.2582 -0.0282  0.3325
14289W        W30473   5.008   1.063   2.408  0.1777  0.1881  0.0973
14290W        W30474   5.422  18.363  12.970 -0.0594  0.1494  0.0904
14291W        W30475  16.613   9.761   1.661 -0.1041  0.0795  0.2577
14292W        W30476  10.769  15.029   4.135  0.2765 -0.2046  0.0948
14293W        W30477  15.817   4.098  10.871 -0.2775 -0.0229  0.0644
14294W        W30478  15.441  11.467  10.132  0.0117 -0.1887  0.2700
14295W        W30479  12.418   7.700  11.309  0.1455  0.0906  0.3075
14296W        W30480  12.184  15.798  10.043 -0.2683 -0.1117 -0.0032
14297W        W30481  19.041   8.054   4.513  0.0521  0.0386 -0.2119
14298W        W30482  16.488  17.269   0.711 -0.0623  0.0497 -0.0033
14299W        W30483  13.073   5.434  11.429 -0.0538 -0.2236  0.0568
14300W        W30484  14.038  10.027  12.130  0.1226  0.3729  0.0537
14301W        W30485   5.875  17.686  14.614 -0.2372  0.0275  0.1043
14302W        W30486   3.302  14.290   0.423 -0.1543 -0.5204 -0.0329
14303W        W30487  14.084   2.968   2.817  0.0561  0.0653  0.0672
14304W        W30488   1.239  12.292   1.521 -0.3892  0.1334  0.1137
14305W        W30489  17.922   2.369   3.718  0.1418  0.0303 -0.0911
14306W        W30490   6.938   2.997  13.998 -0.0215  0.0616 -0.3577
14307W        W30491  11.187  16.230   3.886  0.0006 -0.6194 -0.0867
14308W        W30492  18.801  13.687   3.351 -0.0584 -0.3542 -0.0086
14309W        W30493  15.191   2.444  11.973 -0.1859 -0.2323 -0.0253
14310W        W30494   6.796   7.175  14.318  0.2448 -0.0708  0.2392
14311W        W30495   8.534  16.009   4.392  0.1419 -0.1300  0.2343
14312W        W30496   0.684  17.964   1.165 -0.0258 -0.3056  0.0898
14313W        W30497   1.720   7.013   4.534 -0.0192  0.1938  0.0564
14314W        W30498  14.506   5.039  10.017 -0.2349 -0.2547 -0.0297
14315W        W30499   9.287   3.150   0.487 -0.0207  0.1559 -0.0586
14316W        W30500   9.905   4.035  13.601  0.1028 -0.0252  0.0693
14317W        W30501  16.156  15.324   0.865  0.0671 -0.1526  0.0234
14318W        W30502  17.266  13.026  13.116  0.2359 -0.1595 -0.4499
14319W        W30503   2.484  18.078  12.141 -0.1480 -0.2646 -0.1670
14320W        W30504   6.620   7.049  10.736  0.0150 -0.1099  0.2781
14321W        W30505  15.754  17.792   1.053 -0.1014 -0.1707 -0.2563
14322W        W30506   4.847  11.009   0.743  0.0168 -0.1904 -0.2838
14323W        W30507  15.974  17.560  11.288 -0.4398  0.0587 -0.0670
14324W        W30508   7.731   9.388  14.627  0.3851  0.0958 -0.0345
14325W        W30509  17.568  10.542  13.416  0.0649  0.1072 -0.2178
14326W        W30510   4.849   5.739   4.729 -0.2835 -0.3434  0.4197
14327W        W30511   6.645   1.122   2.241  0.0878  0.1859  0.1601
14328W        W30512  14.261  13.895  10.539  0.1417 -0.1751 -0.1267
14329W        W30513  14.797   7.843  13.242  0.1112 -0.3971 -0.2023
14330W        W30514  10.343   0.970  10.293  0.1676 -0.1188  0.2470
14331W        W30515  18.836  10.895   3.678 -0.0658  0.1358 -0.1791
14332W        W30516   5.900   9.890   2.940  0.0533  0.0224  0.0464
14333W        W30517  16.466  13.662  11.889  0.0147  0.1246  0.3308
14334W        W30518   7.143  17.540  14.008 -0.0469 -0.0800  0.1647
14335W        W30519  13.384  18.194   9.808  0.3181  0.3438 -0.1837
14336W        W30520   9.467   4.729   5.305  0.0932  0.0854 -0.2414
14337W        W30521  15.347  16.956  10.092 -0.1399 -0.0875  0.1136
14338W        W30522   3.988  11.963   5.323  0.2370  0.1274  0.0630
14339W        W30523   3.551   9.482   0.937 -0.1719 -0.0687  0.0072
14340W        W30524   7.431  13.444   0.187 -0.0989  0.1206 -0.1060
14341W        W30525  10.904   0.530   2.776  0.2307  0.0443 -0.1506
14342W        W30526  10.521   0.505  10.504 -0.0643  0.3495 -0.4370
14343W        W30527   8.174  14.182  10.153  0.1702 -0.1426 -0.0658
14344W        W30528  14.487  11.377  13.926 -0.2669 -0.2032  0.0481
14345W        W30529  14.165   9.051  13.670  0.3201 -0.3029 -0.0037
14346W        W30530   0.314   3.262   3.707  0.1252 -0.1194 -0.0381
14347W        W30531  16.257   0.097  12.281  0.0705  0.0953  0.2059
14348W        W30532  11.263   8.967   3.544 -0.0572 -0.3547 -0.2513
14349W        W30533  10.995  14.860   0.107  0.0393 -0.3431 -0.0569
14350W        W30534  12.608   7.978   1.109  0.0048  0.1153  0.2843
14351W        W30535   4.263   4.372  12.521 -0.0641 -0.0084  0.0529
14352W        W30536  11.422   1.972  14.795  0.0281  0.2204 -0.1407
14353W        W30537  19.279   7.653  14.704 -0.1243 -0.2835 -0.1105
14354W        W30538   8.177  15.673   0.018  0.0183  0.3833 -0.1577
14355W        W30539   3.353   5.923   2.960  0.4087  0.1002 -0.0449
14356W        W30540   7.725  18.098  12.851  0.3211 -0.2667  0.2425
14357W        W30541  15.028  10.470   2.225  0.1195  0.1927  0.0712
14358W        W30542  14.677   9.966   1.397  0.1771  0.0132  0.3500
14359W        W30543  14.639   0.114   0.738 -0.1213 -0.2204  0.0361
14360W        W30544  10.690  18.786  12.422 -0.4224  0.1227  0.0809
14361W        W30545   0.525   2.906  13.152  0.3849 -0.2206  0.3021
14362W        W30546   5.789  12.302   2.935 -0.0576 -0.4116 -0.0856
14363W        W30547   7.943   8.788  10.686  0.1885 -0.2793 -0.1041
14364W        W30548  13.072   4.289   1.081  0.0198  0.3425  0.2127
14365W        W30549   0.879   3.282   1.963 -0.1110  0.3411 -0.0023
14366W        W30550  10.176   1.787   2.418  0.0608 -0.0008 -0.3496
14367W        W30551   0.847   8.301   0.646  0.0965  0.0839  0.0971
14368W        W30552   2.364  11.279   6.176  0.4174 -0.0517 -0.2082
14369W        W30553  18.613  16.355  10.021  0.1198 -0.0154 -0.0759
14370W        W30554   6.694   0.810  10.848 -0.0546  0.2027  0.4033
14371W        W30555  18.800  11.020   3.173 -0.1263  0.0657  0.1564
14372W        W30556   3.702  11.418  14.924  0.2414 -0.0627 -0.1858
14373W        W30557   1.041  10.303  14.075  0.0115  0.0175 -0.0154
14374W        W30558  10.838   7.238   0.241  0.0451 -0.1672 -0.1268
14375W        W30559  16.112   1.341   0.516  0.3199 -0.0015 -0.0315
14376W        W30560  12.941  18.413  10.177  0.2253 -0.2570 -0.2357
14377W        W30561  12.236   5.840  10.656 -0.0307  0.1618  0.1859
14378W        W30562   4.254  14.749  10.778 -0.2099  0.4882 -0.0406
14379W        W30563  18.918  11.010   1.033  0.3857 -0.4107 -0.0671
14380W        W30564   1.930  10.583   5.887  0.2733 -0.3998 -0.2557
14381W        W30565  18.157   3.655   0.126  0.0501  0.2810  0.2042
14382W        W30566  13.557   0.804  14.397 -0.1692 -0.2802 -0.0404
14383W        W30567   7.244  14.246   2.459  0.2289 -0.2246 -0.2045
14384W        W30568   1.395  10.103   3.693  0.1391 -0.2196 -0.3811
14385W        W30569  14.527   8.472  11.135 -0.0912  0.0624  0.0396
14386W        W30570  14.019  10.352   2.023  0.0513  0.3166 -0.4146
14387W        W30571  18.987  15.768   1.486 -0.0485 -0.0274  0.1255
14388W        W30572  10.742   0.910   2.366 -0.0146  0.1328  0.1688
14389W        W30573  18.330   5.319   3.682  0.5051 -0.1240  0.0835
14390W        W30574  11.491  18.391   2.446 -0.1690  0.1378 -0.0470
14391W        W30575   6.654  13.993  12.520 -0.0845 -0.0057  0.1544
14392W        W30576  13.485  10.067  10.123 -0.2842 -0.4798 -0.2600
14393W        W30577  16.348  18.740   3.427 -0.2587 -0.3666 -0.1181
14394W        W30578  10.524   6.542  10.121 -0.0270  0.0393 -0.1130
14395W        W30579  10.597   0.209   0.114 -0.1135 -0.0588 -0.1354
14396W        W30580  12.770   3.750   3.269  0.1618 -0.2672  0.1973
14397W        W30581   7.023  14.670   3.078  0.1034 -0.2584 -0.0163
14398W        W30582  18.125   5.338  14.672  0.0164 -0.0993 -0.1151
14399W        W30583   0.107   0.535   4.352  0.1043 -0.0177  0.3743
14400W        W30584   1.774   4.074   4.725  0.1490 -0.1993  0.1122
14401W        W30585   8.795   5.312   0.963 -0.2417  0.0737  0.2283
14402W        W30586   1.189   3.624   1.426  0.1646  0.0991 -0.0509
14403W        W30587  13.104  14.131   3.932 -0.0431 -0.2818  0.4970
14404W        W30588   4.101  19.202   3.757 -0.2818 -0.2364 -0.2601
14405W        W30589  16.725   0.735   2.072  0.0950 -0.1651  0.0194
14406W        W30590   5.032   3.438  14.734 -0.4637  0.2750 -0.1142
14407W        W30591   8.714   5.525  10.590 -0.0208 -0.2875 -0.1064
14408W        W30592  18.412  13.750  13.484 -0.0693 -0.0185 -0.0588
14409W        W30593   1.587  15.330   5.258 -0.2338  0.1548 -0.0722
14410W        W30594   1.908  12.835   3.257  0.0907 -0.1799 -0.1681
14411W        W30595   0.592   9.238  14.253  0.2923 -0.1266  0.1550
14412W        W30596   4.955   7.834  10.815 -0.1896  0.3280 -0.0023
14413W        W30597  16.410   3.764  11.671 -0.1103  0.1091 -0.0775
14414W        W30598   0.338   4.604  12.226 -0.3989  0.0657  0.0001
14415W        W30599   2.320  16.503   2.930 -0.2903  0.1139  0.0942
14416W        W30600  11.161   3.452   1.851 -0.0306  0.0174 -0.1932
14417W        W30601  17.831  11.273   1.710  0.0566 -0.0788 -0.0090
14418W        W30602   7.212  10.752  12.788  0.1134 -0.3114  0.0668
14419W        W30603  13.120  19.268   3.623 -0.2674 -0.0492 -0.1116
14420W        W30604  14.369  14.226  10.141 -0.0237  0.0326  0.0636
14421W        W30605   1.311  15.994   2.350  0.0986 -0.0444 -0.1960
14422W        W30606   2.344  19.231   4.758 -0.1934  0.0667 -0.0664
14423W        W30607  18.337   5.949  11.815  0.0249 -0.3013 -0.1302
14424W        W30608  17.903   4.236   1.894 -0.1433 -0.3111 -0.0757
14425W        W30609   2.223  19.113  14.212 -0.0971 -0.3211 -0.0797
14426W        W30610  11.869  11.968  11.152 -0.2428  0.2914 -0.1872
14427W        W30611  19.255  10.976  14.587 -0.1036  0.0815 -0.0687
14428W        W30612   7.581  12.747  12.131 -0.0688  0.0166 -0.0840
14429W        W30613  15.448   2.583   5.298  0.0347  0.1372 -0.2303
14430W        W30614   2.694   6.207   1.824 -0.2162 -0.1118  0.1988
14431W        W30615   8.087   5.417  11.172 -0.0080 -0.1359 -0.2786
14432W        W30616   4.061   7.776   2.765  0.1496 -0.3257 -0.0879
14433W        W30617   4.517  13.649   0.042  0.0810  0.0889  0.1079
14434W        W30618   9.424  17.778  14.120 -0.2763  0.0593 -0.3786
14435W        W30619  16.472  12.693   4.581 -0.1849 -0.1393  0.1433
14436W        W30620   8.071  17.629  13.995 -0.2717 -0.1228 -0.2630
14437W        W30621  15.586   2.126   1.591  0.2546 -0.0410  0.1525
14438W        W30622  18.193   9.229   4.736 -0.1397  0.4021 -0.1532
14439W        W30623   9.067  11.280  12.950 -0.1008 -0.0089 -0.1194
14440W        W30624   8.193   7.510  12.966  0.1267 -0.1718  0.2115
14441W        W30625   4.008   7.638   0.004 -0.1803  0.0052  0.0402
14442W        W30626   0.155   2.128  10.919 -0.0244 -0.0719  0.2228
14443W        W30627  16.443  12.795   4.055 -0.1242  0.1904  0.0064
14444W        W30628  14.108  18.768   0.577 -0.4075  0.1767  0.1479
14445W        W30629  18.672  16.883  10.962 -0.1128 -0.0699 -0.1385
14446W        W30630   0.108   4.218  11.660  0.1151  0.0870  0.2339
14447W        W30631   3.720  19.376   3.224 -0.1007 -0.0202 -0.2206
14448W        W30632  12.110  12.396   0.187  0.2639 -0.2923  0.2178
14449W        W30633   1.306  10.566   2.459 -0.3465 -0.0169  0.0028
14450W        W30634  17.953  11.578  12.884  0.0313 -0.2007  0.0154
14451W        W30635  10.921   9.218  12.497  0.1579  0.2822 -0.3100
14452W        W30636  15.595  12.482  11.535 -0.2290 -0.0456  0.0589
14453W        W30637   3.361  12.572   5.844 -0.0360  0.0188 -0.1108
14454W        W30638   6.721  15.893   2.468  0.1638  0.0143 -0.0724
14455W        W30639   7.877  15.457  11.078  0.0613  0.4102 -0.1089
14456W        W30640  19.035  17.618  11.731 -0.0195 -0.0647 -0.0687
14457W        W30641   4.858  10.741   4.353 -0.0929  0.1240 -0.1634
14458W        W30642   8.014  16.673   4.857 -0.2227 -0.2897 -0.1871
14459W        W30643   0.342  15.900  10.792 -0.0085 -0.1771 -0.0744
14460W        W30644  11.087   9.984   3.363 -0.3566  0.2565 -0.0576
14461W        W30645  13.339  19.363  11.469 -0.0750 -0.3161  0.1235
14462W        W30646   4.505  11.562  13.970 -0.4859 -0.3133  0.0664
14463W        W30647  14.928  12.280   0.383  0.1116 -0.0515  0.4343
14464W        W30648   5.153   9.743  14.490  0.0689  0.3077  0.0582
14465W        W30649  11.782  10.112  11.775 -0.0369 -0.0048  0.1940
14466W        W30650  12.518  12.557  11.164  0.0385  0.0978  0.3701
14467W        W30651   2.945  12.137   0.820 -0.0094  0.3250  0.0007
14468W        W30652  14.842  15.923   2.907  0.2554 -0.0387 -0.0027
14469W        W30653  12.364   5.859  13.986 -0.1872  0.0177 -0.0335
14470W        W30654  15.881  19.190   4.680 -0.2788  0.0375  0.2483
14471W        W30655   8.735  11.678   3.385  0.2977 -0.1144 -0.0219
14472W        W30656   3.459   3.955   4.009  0.3416 -0.2559 -0.0493
14473W        W30657  18.264   9.521   2.213 -0.2562  0.0675 -0.1039
14474W        W30658  12.683  16.425   2.095 -0.0612  0.1425  0.0119
14475W        W30659  11.161   4.472   1.616 -0.1490 -0.2145  0.2401
14476W        W30660   8.168  15.757  10.386  0.2608 -0.0957  0.3289
14477W        W30661   6.318   7.993  13.984  0.0503 -0.0291 -0.0048
14478W        W30662  12.760   2.203   0.562 -0.3116  0.0130  0.1504
14479W        W30663  14.333   2.827   1.393  0.4026  0.0312 -0.0472
14480W        W30664   3.651  15.560  10.132 -0.2004  0.4362 -0.4155
14481W        W30665  15.428  15.110   1.427  0.1108  0.3227 -0.1633
14482W        W30666  19.229   6.630  12.806 -0.0455  0.0306 -0.1653
14483W        W30667   6.553   3.438   0.548 -0.0178 -0.1897 -0.0169
14484W        W30668   2.412  11.635   2.625  0.0958 -0.2183  0.0272
14485W        W30669  18.084  13.541   3.798 -0.2764  0.1155  0.0481
14486W        W30670   4.016  14.773  12.467 -0.4192  0.2233  0.0431
14487W        W30671   5.299  10.513  13.928  0.0866  0.1864 -0.0954
14488W        W30672   6.665   6.760  14.579 -0.3514 -0.1518 -0.2369
14489W        W30673   4.816   3.531  10.368 -0.0257  0.2110  0.0775
14490W        W30674  10.581  11.752   0.644 -0.0405 -0.0186  0.2490
14491W        W30675   0.445   6.296   0.832  0.1723 -0.0988 -0.1385
14492W        W30676  14.465   3.289  10.706  0.0231  0.3029 -0.1066
14493W        W30677  11.615   8.008  11.828 -0.0437  0.3276  0.3697
14494W        W30678   4.196   4.903  12.764 -0.0982 -0.3050  0.0291
14495W        W30679  14.455  12.539   3.785  0.1021 -0.4321  0.0924
14496W        W30680   0.077  12.224  12.184 -0.0966 -0.0015  0.2678
14497W        W30681   9.297  14.009  14.066  0.1390  0.0208 -0.0551
14498W        W30682   6.522   1.285   3.735  0.0988  0.0353  0.3541
14499W        W30683  17.136  16.595  12.543  0.0079 -0.0965  0.1958
14500W        W30684   7.473   4.023  12.381 -0.0571 -0.1967 -0.0850
14501W        W30685  10.121  16.466   2.779 -0.0563  0.1237 -0.1904
14502W        W30686   6.952   0.218   3.992 -0.0236 -0.1643 -0.1871
14503W        W30687   1.695   9.692   3.314 -0.0040  0.1167 -0.1053
14504W        W30688  14.960   2.118   0.673 -0.1290 -0.0555 -0.0530
14505W        W30689  18.144   1.000  10.492  0.1525 -0.2826 -0.3412
14506W        W30690  17.941   4.600   4.845  0.0332 -0.1013 -0.0930
14507W        W30691   7.103   4.012   0.028  0.5135  0.0913 -0.0331
14508W        W30692  11.202  16.258   2.590 -0.0663  0.1031 -0.0596
14509W        W30693  11.098  16.452  13.357 -0.1631 -0.1283  0.1437
14510W        W30694  11.942  12.721   2.015 -0.0572  0.0335  0.1077
14511W        W30695  14.404   9.900   4.419  0.0589 -0.1133 -0.1772
14512W        W30696  14.515   0.793  14.822  0.0251  0.0231  0.1688
14513W        W30697   3.096  11.539   5.558 -0.3285 -0.1072  0.5040
14514W        W30698  14.569   4.784  12.793 -0.0212 -0.2253  0.3321
14515W        W30699  12.487  17.585  14.848 -0.1338  0.1797 -0.1043
14516W        W30700  13.785   2.217   0.785  0.3309  0.1668  0.2575
14517W        W30701  16.156  15.821   4.807  0.0679  0.0077  0.2909
14518W        W30702   6.949   1.487  11.368 -0.2227 -0.0903 -0.0363
14519W        W30703  14.369   1.184  10.507 -0.1184  0.0714 -0.1516
14520W        W30704  15.463  10.145   4.922  0.1693  0.0142  0.1492
14521W        W30705  16.299  15.881   9.743 -0.0252 -0.0699  0.5295
14522W        W30706   6.426   3.280  10.746  0.1289 -0.0355 -0.0655
14523W        W30707  15.335   6.812  11.671  0.1759  0.0352  0.4005
14524W        W30708   3.907   2.420   0.139  0.1829  0.2782  0.0838
14525W        W30709  14.201  13.073  13.999 -0.4859  0.0525 -0.2405
14526W        W30710   3.776  10.978   1.819  0.1995  0.2341 -0.0852
14527W        W30711  13.815   8.108  10.961 -0.1557 -0.0756  0.0405
14528W        W30712  10.297   6.608   2.346  0.2112 -0.1217  0.1521
14529W        W30713  12.845   8.212  13.095  0.1885  0.1205 -0.0098
14530W        W30714   5.520  18.665  14.400  0.3012 -0.1069  0.0397
14531W        W30715  18.302   0.155   3.540  0.0449 -0.2280 -0.0358
14532W        W30716  17.752   0.393   1.216 -0.0930 -0.1523 -0.0748
14533W        W30717  15.875  14.958   1.081  0.1182  0.2725 -0.1402
14534W        W30718   3.676   2.626   0.576 -0.2441 -0.1189 -0.1922
14535W        W30719  13.604  14.480  13.240 -0.0312 -0.0675 -0.1838
14536W        W30720   8.281   3.796   4.043  0.1156 -0.2549  0.0528
14537W        W30721   7.900   0.950   1.170 -0.0120  0.3160 -0.0304
14538W        W30722   9.599   1.805  13.900  0.0071 -0.2234  0.0437
14539W        W30723  14.845  14.170   3.000  0.0149 -0.4524 -0.3278
14540W        W30724  12.601   2.051  12.461  0.1399 -0.3642 -0.3707
14541W        W30725  17.037   8.988   3.579 -0.0103 -0.3049  0.3189
14542W        W30726  10.908  16.745  12.583  0.1020 -0.3046  0.1752
14543W        W30727   5.159   3.976   1.450 -0.0686 -0.0038 -0.2600
14544W        W30728  15.327  17.304  10.595  0.2176  0.1356 -0.0343
14545W        W30729   5.849   4.426  13.069  0.0398  0.2161  0.1277
14546W        W30730   1.580   4.757  10.820  0.1438  0.0324 -0.2852
14547W        W30731  15.176   8.877  14.682  0.3008 -0.2016 -0.1771
14548W        W30732  18.903  15.836  11.012 -0.0193  0.1000  0.0519
14549W        W30733  15.642  15.368   2.405  0.0981 -0.4067  0.0548
14550W        W30734   6.908   6.750  14.068 -0.2289  0.0704 -0.1410
14551W        W30735  12.442   9.148  11.423 -0.0163  0.3383  0.0435
14552W        W30736  14.444   7.958  12.236  0.0287 -0.0121 -0.1187
14553W        W30737   2.100  17.692  12.988 -0.0321 -0.0667  0.1411
14554W        W30738  14.678   3.503   2.979 -0.1155  0.0638 -0.0031
14555W        W30739  17.588   0.370   4.120  0.0641 -0.3620 -0.1974
14556W        W30740  19.203  15.990  12.601 -0.0813  0.0064  0.2061
14557W        W30741   5.183  10.335   1.001  0.0884  0.1654  0.0259
14558W        W30742   2.517   7.938  12.105 -0.0618 -0.0086  0.3135
14559W        W30743   5.686   1.759   3.446 -0.2924  0.0266  0.1793
14560W        W30744  18.450  19.065  14.705 -0.4081 -0.4556  0.1734
14561W        W30745   6.416   6.313  12.343 -0.2543  0.1718 -0.1614
14562W        W30746   8.286  16.837   1.159  0.0804 -0.1675  0.1965
14563W        W30747   6.145   7.709  11.710  0.2066  0.0443  0.1157
14564W        W30748   3.639  14.236   1.457  0.3421 -0.0882  0.0964
14565W        W30749   1.838   8.648  12.265 -0.0678 -0.0874  0.0066
14566W        W30750   2.004   0.223   1.035  0.0644 -0.0047 -0.1113
14567W        W30751   8.807  13.804  10.718  0.1031  0.0386 -0.0476
14568W        W30752   9.105  18.499   3.841  0.1063 -0.1775 -0.0151
14569W        W30753  12.907  11.246  10.726 -0.4332  0.1657  0.1311
14570W        W30754   2.228   1.033   4.501 -0.2880  0.0031  0.0392
14571W        W30755   8.432   8.650  11.083  0.1178 -0.2582 -0.0798
14572W        W30756  19.195   4.507   2.906  0.0271 -0.1213 -0.1403
14573W        W30757   5.463  16.876  13.106 -0.3252  0.0123  0.3117
14574W        W30758  10.825   8.612   2.276 -0.2028 -0.1100  0.3271
14575W        W30759   7.615   1.276   2.595 -0.0442 -0.2185 -0.0039
14576W        W30760   4.221  10.540   0.040  0.1299  0.1875 -0.4625
14577W        W30761  16.272  17.892   2.199  0.2097  0.1116  0.2441
14578W        W30762  16.858   3.756  14.302  0.2145 -0.2787  0.0297
14579W        W30763   8.778  17.144  13.131 -0.1098  0.0100 -0.1636
14580W        W30764  15.447   2.962  12.694  0.2843 -0.1060 -0.2126
14581W        W30765   8.869   0.112  12.552  0.1890  0.4603  0.1502
14582W        W30766   9.148   0.663   5.595  0.2298  0.1103  0.0927
14583W        W30767   9.243  11.698  14.862 -0.0753  0.3058 -0.1001
14584W        W30768   6.349  16.041   3.843  0.0183 -0.1383  0.1050
14585W        W30769  12.662  10.882  11.149  0.2033 -0.1545  0.1702
14586W        W30770  15.459   2.888  12.151  0.2303  0.0656  0.0026
14587W        W30771  15.107   2.321   1.595 -0.0381  0.3109  0.1175
14588W        W30772   1.016  12.965  10.674 -0.0633 -0.0500  0.4338
14589W        W30773  13.373  19.154  10.888 -0.0792 -0.3908 -0.0968
14590W        W30774   1.371  17.688  14.340 -0.1508  0.0236 -0.0392
14591W        W30775  17.795  13.368   2.856  0.0704 -0.2979  0.0028
14592W        W30776  14.110  16.129   1.859 -0.1182  0.0357 -0.1315
14593W        W30777   1.815   7.218   0.605  0.3033 -0.2989 -0.0297
14594W        W30778  18.237  17.568  12.937  0.1027  0.1103 -0.2231
14595W        W30779  15.397  17.968   4.107  0.1204 -0.0020 -0.0516
14596W        W30780   0.590   3.377  11.295  0.2145  0.1943 -0.1285
14597W        W30781  18.376  19.001   4.976 -0.2441 -0.1683 -0.1679
14598W        W30782  18.336   6.039   4.482 -0.0647 -0.0564 -0.0506
14599W        W30783  12.168   0.864   9.513 -0.0986  0.1737 -0.0035
14600W        W30784  12.806   5.607  13.343  0.2786 -0.0322 -0.1277
14601W        W30785   8.407   1.744   3.473 -0.1489  0.1273 -0.1861
14602W        W30786  12.865   7.676  14.873 -0.2618 -0.3841  0.0386
14603W        W30787  17.437   6.703   3.511 -0.3929 -0.0760  0.1466
14604W        W30788   1.211   9.566  10.702  0.1202 -0.1713  0.0366
14605W        W30789   6.942  12.444   2.035 -0.1415  0.4531  0.0077
14606W        W30790   0.829  10.805   1.520 -0.3525  0.1683  0.0568
14607W        W30791   9.248   9.318   0.133 -0.1943 -0.2153 -0.1334
14608W        W30792   9.843   6.538  13.051 -0.2026  0.1835  0.1908
14609W        W30793   5.399  15.408  12.268 -0.0657  0.0336 -0.0266
14610W        W30794   1.510   1.509   4.481 -0.3304  0.0158 -0.0586
14611W        W30795   1.687  13.987   3.809  0.3077  0.4966  0.3929
14612W        W30796   5.559   0.115  11.125 -0.0057  0.1078 -0.2727
14613W        W30797  10.744   6.058  12.641 -0.0339 -0.1793  0.1193
14614W        W30798   7.276   8.137   3.802 -0.1023 -0.0773  0.2520
14615W        W30799   6.556   8.014   1.843 -0.3645  0.2660  0.0372
14616W        W30800   1.140  13.142  13.527 -0.3880 -0.2182  0.1335
14617W        W30801   8.303   7.667  10.187  0.0513 -0.1208  0.1728
14618W        W30802   8.706   9.776  12.275 -0.3016 -0.2569  0.0714
14619W        W30803  13.437   0.241  11.914  0.0271  0.1306 -0.0002
14620W        W30804  11.918  10.764  13.516 -0.2430  0.0185 -0.0195
14621W        W30805  12.667   0.381  10.441  0.0642  0.2390  0.0089
14622W        W30806  17.097   0.058   2.659 -0.1564  0.2633 -0.2167
14623W        W30807  11.741   2.931   1.162 -0.1265 -0.1093 -0.0918
14624W        W30808   0.287  17.148  11.584 -0.1730  0.0111  0.1427
14625W        W30809  19.267  13.732   5.298 -0.0049  0.1038 -0.0007
14626W        W30810   9.451   1.429   4.466  0.4064  0.2231 -0.1281
14627W        W30811   9.102  15.423  12.496 -0.1484 -0.3153 -0.1190
14628W        W30812  14.379  13.553  11.293 -0.2979 -0.4563  0.4320
14629W        W30813   5.755   8.969   1.043 -0.0282 -0.1474  0.2165
14630W        W30814   6.318  12.045   4.793 -0.2694 -0.1646 -0.1017
14631W        W30815  13.061  13.294   5.183  0.3651  0.2460 -0.1358
14632W        W30816  13.042   9.782   3.122 -0.0273  0.1434  0.0599
14633W        W30817   4.145   6.442  12.727 -0.3789 -0.2710 -0.0069
14634W        W30818  11.038   6.951  10.901  0.0216  0.2593 -0.3097
14635W        W30819   9.062   1.092  11.115  0.2072 -0.1034 -0.4860
14636W        W30820   2.301   1.155  12.253  0.0123 -0.0023 -0.0372
14637W        W30821   0.059   0.735  12.693  0.2170  0.1720 -0.1540
14638W        W30822   5.237  15.926  10.674 -0.0888  0.2526 -0.1735
14639W        W30823   7.311  15.518  12.235  0.2307 -0.1596 -0.2603
14640W        W30824  11.056  11.659  12.666 -0.0306  0.1159  0.2602
14641W        W30825   5.947   4.229  13.966 -0.1267  0.0008  0.0898
14642W        W30826   7.741   5.883  13.316 -0.0595 -0.0200  0.0209
14643W        W30827  14.604   4.807   3.957  0.2757 -0.0342 -0.0229
14644W        W30828   5.371   0.613   2.422 -0.1771 -0.1816 -0.0058
14645W        W30829   1.964  19.366  12.199  0.0668  0.0505 -0.5215
14646W        W30830  12.003  10.484  14.738  0.2580  0.0157  0.0262
14647W        W30831   5.475  12.157  13.976 -0.0073  0.0094  0.2918
14648W        W30832  14.210  17.805   4.056  0.0476 -0.0471 -0.2391
14649W        W30833   2.109   3.660  10.916 -0.1610  0.3962  0.2203
14650W        W30834   0.142   4.966   1.500 -0.0876  0.1197  0.1934
14651W        W30835   5.954   5.885  13.137 -0.1179  0.2350 -0.1279
14652W        W30836  15.241   3.383  12.333 -0.3175  0.0797  0.0562
14653W        W30837  17.435   2.189   5.086  0.1813  0.1131 -0.0516
14654W        W30838   9.481   8.602  12.501 -0.0140  0.0301 -0.1094
14655W        W30839  13.815   9.396  14.641 -0.0002  0.1286  0.3963
14656W        W30840  12.436  18.312  11.684  0.0371 -0.1343 -0.4673
14657W        W30841  14.059  10.669  10.419 -0.0371  0.4768 -0.0106
14658W        W30842   8.355   3.214  10.204  0.2496 -0.1779 -0.1576
14659W        W30843   7.575  10.746   4.101  0.1154  0.3092 -0.0459
14660W        W30844  14.952   3.694   5.275  0.1489  0.0765  0.1422
14661W        W30845  15.677  19.277  14.646 -0.1495  0.4377  0.0093
14662W        W30846  18.398   7.854  14.823  0.3099 -0.0175 -0.0439
14663W        W30847   2.387  14.618   1.707  0.0879 -0.0546 -0.1052
14664W        W30848   0.345   0.605  13.711 -0.0436 -0.1859 -0.2086
14665W        W30849  10.943   7.519   5.340 -0.0329  0.4529  0.0734
14666W        W30850   5.479  14.181   4.856 -0.1220 -0.1095 -0.1044
14667W        W30851   2.153  11.475   3.027 -0.0763  0.2096 -0.0441
14668W        W30852   3.523  14.655  12.209  0.0957 -0.5990 -0.0435
14669W        W30853  10.307   1.140  13.587 -0.4478  0.3508 -0.0316
14670W        W30854  13.914   9.801  11.646  0.0202  0.1096  0.0815
14671W        W30855  11.237   0.956   2.871 -0.1676  0.2349 -0.0410
14672W        W30856   5.265  11.045  13.281  0.0159 -0.0697 -0.1157
14673W        W30857  16.735   7.864  11.492  0.0611 -0.3531 -0.0695
14674W        W30858  12.709   6.400   4.751 -0.0828  0.0381  0.0251
14675W        W30859  11.423   2.095   0.343  0.1865 -0.1514  0.0877
14676W        W30860   6.733   0.329   0.664 -0.1644  0.0678  0.4558
14677W        W30861  10.894   1.339  10.941 -0.2165 -0.1013 -0.0013
14678W        W30862  15.253   5.971   4.545  0.0650 -0.1245  0.3547
14679W        W30863  18.642   8.978  11.153 -0.1215  0.1678  0.0427
14680W        W30864  15.438   7.732   1.211 -0.0082 -0.0217 -0.0017
14681W        W30865   2.282  16.677   3.657 -0.2897 -0.3378  0.1535
14682W        W30866  13.486   1.769   4.017 -0.0034 -0.0493 -0.1383
14683W        W30867  16.630  17.259   9.953  0.0409  0.0310 -0.2045
14684W        W30868  15.872   4.802   4.404  0.2961 -0.0902 -0.0015
14685W        W30869  16.738   2.187   0.329  0.1154  0.1949 -0.3325
14686W        W30870   8.613  10.776  11.175 -0.1800  0.0356 -0.1302
14687W        W30871  15.656   8.536   4.039 -0.3514 -0.0065 -0.1203
14688W        W30872  16.688  16.189  11.466  0.3767 -0.0081  0.0090
14689W        W30873   0.979  15.744   2.105  0.0046  0.5290 -0.1317
14690W        W30874   3.319   8.102   1.748 -0.0809  0.0961 -0.3186
14691W        W30875  12.520   2.491   3.036 -0.3673  0.0904  0.0609
14692W        W30876   8.190   9.585   2.498  0.2331  0.2604 -0.0730
14693W        W30877  17.090   9.923  11.558  0.0914 -0.0323 -0.1547
14694W        W30878   3.232   1.465  10.909 -0.3214 -0.0109  0.0472
14695W        W30879  12.695  12.529   4.853 -0.0403  0.2109 -0.0357
14696W        W30880   0.032   4.358   5.002  0.1145  0.0922 -0.0575
14697W        W30881  16.347   0.315  12.998 -0.2051 -0.2000  0.0601
14698W        W30882   7.558   3.426   1.615 -0.1979 -0.1684  0.1382
14699W        W30883   7.076  18.431  13.447 -0.0287  0.2639  0.0330
14700W        W30884  14.134  13.220  12.087  0.2756 -0.0622  0.2719
14701W        W30885  12.185   6.892  14.465  0.1044 -0.2695  0.1437
14702W        W30886  15.913   6.838   3.284 -0.1761  0.4278  0.1425
14703W        W30887  18.259   4.215   3.286 -0.2694  0.0560 -0.1798
14704W        W30888   5.027  18.013  10.024 -0.2874 -0.1997  0.0353
14705W        W30889   5.938   4.561   1.986  0.0015 -0.1163 -0.1113
14706W        W30890  16.245   6.566   4.130 -0.1777  0.1131  0.0626
14707W        W30891   2.879  18.231  11.442 -0.0146 -0.0626  0.0489
14708W        W30892   5.517   3.950   3.645  0.2278 -0.3061 -0.2396
14709W        W30893   8.907  11.308  14.206  0.3756 -0.1762 -0.3022
14710W        W30894   8.972   4.140  13.240 -0.1367  0.0918  0.1310
14711W        W30895  16.926  13.670  11.821  0.0481  0.1803  0.0172
14712W        W30896  12.396   2.176  13.314  0.0095  0.1420 -0.0889
14713W        W30897   6.580  12.699   4.196 -0.1651  0.0394  0.0524
14714W        W30898  17.180  14.777   0.134  0.2421  0.1874 -0.0725
14715W        W30899   2.793  15.760   4.477 -0.1239  0.1294 -0.2929
14716W        W30900  11.428  18.631  13.256  0.0412 -0.1800  0.3465
14717W        W30901   8.029   4.464  10.788  0.6476 -0.2501 -0.1770
14718W        W30902   3.685  18.382  10.853  0.0099 -0.3683  0.0826
14719W        W30903  10.726   3.924  12.150  0.0071 -0.1850  0.0197
14720W        W30904   8.695  16.973  12.617  0.1089 -0.3439 -0.3841
14721W        W30905   9.844  17.949  14.406 -0.0033 -0.3086 -0.0705
14722W        W30906   6.885   7.919   0.487 -0.4568 -0.0589  0.3849
14723W        W30907   4.853  13.594   3.803  0.0775  0.0997 -0.0559
14724W        W30908   8.012  15.218  10.229  0.5675  0.0524 -0.4034
14725W        W30909   0.447  17.635   3.625 -0.0181  0.0560 -0.3499
14726W        W30910  13.120  17.114  14.526  0.0842 -0.1986 -0.1021
14727W        W30911  12.485  12.520  10.342 -0.0708 -0.2052  0.0674
14728W        W30912   8.795  12.055   5.613 -0.2346 -0.2254 -0.0241
14729W        W30913   0.042  11.382  10.559 -0.2298 -0.4326 -0.1542
14730W        W30914  18.973   5.808  13.804 -0.2915 -0.1714 -0.1557
14731W        W30915   0.560   5.342   0.714 -0.0323  0.0854  0.3186
14732W        W30916   7.010   2.439   0.160  0.2088  0.2656 -0.4914
14733W        W30917   6.070   8.366  11.080  0.0918  0.2948 -0.5184
14734W        W30918  15.673  13.222   3.491  0.0957  0.2679 -0.4092
14735W        W30919   4.332  12.814   5.433  0.1109  0.0470  0.3390
14736W        W30920   8.452   8.029   2.344  0.3480  0.2990 -0.0847
14737W        W30921  15.481  13.396  14.389 -0.2757  0.2195 -0.0663
14738W        W30922  13.470  17.524  12.639  0.3366  0.0441 -0.0607
14739W        W30923   6.426  12.968  12.031 -0.0310  0.3231 -0.0070
14740W        W30924  13.932  12.114  13.157 -0.2909  0.1555 -0.2753
14741W        W30925   8.016   4.111   1.178 -0.0341  0.0367 -0.1215
14742W        W30926  18.443  11.829  11.101 -0.1680 -0.1156  0.0350
14743W        W30927  16.455   5.799   2.383  0.0285 -0.1611  0.2212
14744W        W30928  17.107   2.487   0.286  0.0219 -0.2333  0.4301
14745W        W30929  17.874   4.075  13.168  0.1668 -0.0191 -0.1215
14746W        W30930   9.670  12.705   3.799 -0.2392  0.1694  0.1967
14747W        W30931  18.827   4.568  12.252  0.0956  0.1973 -0.2443
14748W        W30932  16.351  16.918   4.098 -0.0586 -0.3879  0.2918
14749W        W30933  15.501  18.993   0.732 -0.2841  0.0228  0.1522
14750W        W30934  16.665  16.310  13.358  0.2079  0.1716  0.0207
14751W        W30935   8.336  13.703   9.925  0.0865  0.0589  0.0575
14752W        W30936  17.607   1.438   2.778 -0.1915 -0.3014 -0.1528
14753W        W30937   3.934  17.071   1.430  0.3291 -0.0467 -0.1186
14754W        W30938  17.591   4.019  12.726  0.0330  0.0206 -0.2537
14755W        W30939  15.196   0.904   9.486  0.0607  0.0756 -0.0023
14756W        W30940  12.704  14.224  14.654 -0.2822 -0.1209  0.1419
14757W        W30941  14.041   5.660  10.659 -0.2335 -0.1572 -0.0463
14758W        W30942  17.299  11.577   5.767 -0.0416 -0.3601 -0.1416
14759W        W30943   8.150  12.426  12.540 -0.0027 -0.0149 -0.4976
14760W        W30944   5.141   2.125   2.100 -0.3166 -0.3267  0.1606
14761W        W30945  19.208   6.649   2.997  0.0925  0.0012 -0.2825
14762W        W30946   6.700   4.020   5.129 -0.0966 -0.1292  0.2301
14763W        W30947  14.196  15.558   0.923 -0.4068 -0.1472 -0.0710
14764W        W30948   4.463   6.997   3.880 -0.2348 -0.0567  0.1648
14765W        W30949   7.145  13.035  14.802  0.2372  0.0539 -0.0106
14766W        W30950   1.679  10.440   4.013 -0.0929 -0.1439 -0.1615
14767W        W30951  14.899  19.319   2.740 -0.0645 -0.0743 -0.1066
14768W        W30952  18.932   8.181   1.247 -0.2154  0.3465 -0.1075
14769W        W30953   5.214  13.252  10.836 -0.0561 -0.2035  0.0689
14770W        W30954   5.853  18.988  14.636 -0.0987 -0.0386  0.2471
14771W        W30955  11.776   0.160  10.622  0.0617  0.0688  0.1110
14772W        W30956  14.566   7.753   0.706  0.2941  0.0753 -0.0919
14773W        W30957  17.649   0.791  11.387 -0.0675 -0.1093  0.2717
14774W        W30958  15.470   6.516  14.514  0.1148  0.3857 -0.2432
14775W        W30959   5.890   9.473   3.819  0.0200 -0.1366 -0.1406
14776W        W30960  15.957   2.019   2.247  0.1573  0.1500 -0.0318
14777W        W30961   1.489  18.694  11.040 -0.1987  0.2952 -0.1464
14778W        W30962  17.637   3.559  12.901 -0.4719  0.4610  0.4590
14779W        W30963   4.287   2.571   4.308  0.2113 -0.3176 -0.1574
14780W        W30964  17.263   5.886   1.616  0.1357 -0.0359 -0.0151
14781W        W30965  10.430   0.342   2.200 -0.1836  0.3920  0.1254
14782W        W30966   2.027   7.039   1.473  0.2498  0.0413 -0.0745
14783W        W30967  15.005  14.414   0.954  0.0986  0.1792  0.4064
14784W        W30968  11.987  12.048   3.126  0.1923  0.1831  0.4542
14785W        W30969  13.850   6.857   0.566  0.1147  0.1511  0.2666
14786W        W30970  14.250   5.725  14.312  0.0510  0.2448  0.2212
14787W        W30971   0.583  13.263   4.909  0.0635  0.1729 -0.2143
14788W        W30972   5.773   8.214   5.641  0.4088 -0.1050 -0.0129
14789W        W30973   2.438   4.259   1.033 -0.1209 -0.2548  0.2393
14790W        W30974  19.040   7.042   1.587 -0.0353  0.4295 -0.2579
14791W        W30975  14.137   3.476  13.709 -0.2991 -0.0515 -0.1829
14792W        W30976   4.077   8.034  13.576  0.0556 -0.0071 -0.0456
14793W        W30977  12.301   6.257  14.302 -0.0613  0.4708 -0.0190
14794W        W30978  16.883  11.591   3.650  0.4145 -0.1626  0.0402
14795W        W30979  11.554   8.400  12.764 -0.0713  0.3231  0.1181
14796W        W30980  16.507  18.747  14.893  0.0632  0.0768  0.0006
14797W        W30981   1.676   4.495   0.240 -0.1838 -0.2939  0.0969
14798W        W30982   4.636  13.929   2.656 -0.0784 -0.1924  0.1746
14799W        W30983  13.795   4.351  12.554 -0.1224  0.0828  0.0350
14800W        W30984  19.224  11.187   5.142  0.0885  0.1240  0.3061
14801W        W30985   7.271   4.637   1.347 -0.3568  0.2918  0.0447
14802W        W30986  14.076   7.328   0.475 -0.0928 -0.2063  0.3866
14803W        W30987  17.870   9.583  13.361 -0.1788  0.2246 -0.0174
14804W        W30988  16.920  14.660  10.571 -0.0685 -0.1964 -0.0772
14805W        W30989  18.158   1.477   1.924  0.1031 -0.1739  0.0427
14806W        W30990  18.443  12.720  14.799  0.0717  0.1134  0.0461
14807W        W30991  13.547   8.588   3.381 -0.3657 -0.0802 -0.0547
14808W        W30992  10.718   2.328   1.698 -0.2539  0.0244  0.0306
14809W        W30993  12.360   5.605   9.604 -0.1589 -0.1688 -0.0990
14810W        W30994   5.398   9.944  10.959  0.0786 -0.1413 -0.1480
14811W        W30995  18.653   5.326   1.200  0.0560  0.1125  0.2727
14812W        W30996  17.201  19.020  14.335  0.2182  0.0268  0.2134
14813W        W30997  13.059   5.082  10.760  0.1460  0.2299 -0.1065
14814W        W30998   0.511  11.842   2.568  0.1643  0.0662 -0.3405
14815W        W30999  15.152   3.724   4.776  0.0024 -0.2199  0.0755
14816W        W31000   5.255  14.960  10.642  0.0382  0.0470 -0.3322
14817W        W31001  10.010  11.150   1.485  0.0497 -0.3310 -0.0159
14818W        W31002  14.314   6.716   1.450  0.0477  0.0128 -0.0048
14819W        W31003  18.173   3.199   4.589  0.1440  0.0559 -0.1361
14820W        W31004   3.033   3.283  12.161 -0.0427  0.1191 -0.1374
14821W        W31005  10.820   7.846  11.674  0.3334 -0.0533  0.1717
14822W        W31006   1.182   7.780  13.368 -0.0838  0.1597 -0.2798
14823W        W31007  12.620   3.293   3.305 -0.0031  0.1746 -0.3774
14824W        W31008   9.872   2.616   3.793 -0.2283  0.1316 -0.2169
14825W        W31009  18.949  12.502   2.733  0.0637 -0.1781 -0.0959
14826W        W31010   9.988  16.834   0.595 -0.2277 -0.2789 -0.0453
14827W        W31011  18.009  19.300  11.403 -0.2614 -0.1927  0.0124
14828W        W31012   4.176  15.326  13.351 -0.1504 -0.1515  0.2329
14829W        W31013   1.883  12.727   0.283 -0.1892 -0.0367 -0.2141
14830W        W31014   0.691  15.440  12.483  0.0423  0.0855 -0.0119
14831W        W31015  14.910  18.141   5.599 -0.1945 -0.1796 -0.0958
14832W        W31016   0.509   6.780  11.730 -0.1943  0.3147  0.0036
14833W        W31017   4.902   0.260   0.208 -0.2026 -0.0203 -0.0519
14834W        W31018  18.010  10.279   2.708  0.3187 -0.0498 -0.0099
14835W        W31019   1.954  10.743   3.049  0.0986 -0.0512 -0.2742
14836W        W31020  18.304  15.789   3.296  0.2892  0.0538  0.0165
14837W        W31021  12.733   6.449  10.584 -0.1557  0.1194  0.0866
14838W        W31022  11.770  14.530   4.167 -0.0486 -0.0672  0.3858
14839W        W31023   1.374  10.926   1.568 -0.3242 -0.1715  0.1089
14840W        W31024   3.386  16.579  12.778  0.3723  0.3043  0.1474
14841W        W31025  17.051  14.165  12.605  0.0256  0.0950 -0.1110
14842W        W31026  12.467   4.336  12.886 -0.1187 -0.2376  0.0808
14843W        W31027  16.172   6.266   2.316  0.4098  0.2444 -0.0653
14844W        W31028  11.718  13.071   1.764  0.0172  0.1970  0.0919
14845W        W31029   5.587  16.914   9.385  0.0223  0.0177  0.2338
14846W        W31030  19.147  12.974  11.546 -0.0698 -0.1675  0.1891
14847W        W31031  10.388  16.569  11.164  0.1771  0.1874  0.1899
14848W        W31032  13.932   9.233   4.010 -0.0364  0.0564  0.1729
14849W        W31033   2.553  18.462   1.274 -0.2390  0.2747 -0.4622
14850W        W31034   2.547   7.711  12.624  0.0901  0.0196  0.0526
14851W        W31035  19.017   8.417   1.743 -0.1505  0.1310 -0.0678
14852W        W31036  18.565   7.366   0.125 -0.1053  0.1519  0.2526
14853W        W31037   7.130  12.123   1.683 -0.1407 -0.0348  0.4021
14854W        W31038   2.062   6.017   4.569 -0.1833 -0.1901  0.2338
14855W        W31039   0.320  11.604  14.089 -0.0004  0.1113 -0.0201
14856W        W31040  14.260  19.246  10.643 -0.3744 -0.2086  0.2722
14857W        W31041   7.212   0.703  10.805 -0.0471  0.1958  0.1428
14858W        W31042   2.072   9.795  11.470 -0.1571 -0.1738 -0.1593
14859W        W31043  14.783   0.024  14.560 -0.0525  0.0098  0.3232
14860W        W31044   9.179  15.514  13.846 -0.1740  0.0642  0.1942
14861W        W31045   4.921  19.111   2.363  0.0852 -0.0319  0.1617
14862W        W31046  12.482   6.498   1.488 -0.1069 -0.0064 -0.1810
14863W        W31047  12.192  13.178   2.064 -0.1284 -0.1696 -0.0293
14864W        W31048   1.393  14.703   4.922 -0.3886  0.4069 -0.0224
14865W        W31049   9.630   6.348  12.052  0.1681  0.3120 -0.0654
14866W        W31050  12.041  15.576  11.403 -0.1286 -0.1551 -0.0545
14867W        W31051  16.031  12.587  10.200  0.0765  0.3910 -0.3847
14868W        W31052   2.400  10.434   2.127 -0.2992  0.1330  0.0407
14869W        W31053   0.704   4.369   2.809 -0.1601  0.1061 -0.1653
14870W        W31054  12.599   9.503  12.232 -0.1720 -0.1932 -0.2783
14871W        W31055  18.433  14.423  11.045  0.0258  0.1367 -0.2622
14872W        W31056  12.251  11.826  14.448  0.0875  0.3316  0.0417
14873W        W31057   4.016  15.883   4.869  0.0127 -0.1928 -0.0114
14874W        W31058   3.233   0.493   3.814 -0.0268 -0.1161 -0.2149
14875W        W31059  19.311  15.096  10.594  0.2399  0.1065  0.2884
14876W        W31060   9.593   2.717  13.075  0.1717 -0.0455  0.1586
14877W        W31061   8.905  13.616   5.795 -0.1237 -0.1299 -0.0554
14878W        W31062  14.315  17.246  12.823 -0.0035 -0.0245 -0.0343
14879W        W31063   5.190   5.033  11.646  0.2392 -0.3043  0.1171
14880W        W31064   9.755   8.341   1.895 -0.1308 -0.1046 -0.0635
14881W        W31065   8.996   6.906   4.750 -0.3835 -0.1591 -0.0945
14882W        W31066   6.696   4.158  10.894 -0.0802  0.0107  0.2120
14883W        W31067   3.433   0.867   2.907 -0.2419 -0.0054  0.4375
14884W        W31068   3.195   6.348  13.817  0.1215 -0.3222 -0.1261
14885W        W31069  18.666   2.617  12.367  0.0639 -0.0553 -0.3746
14886W        W31070   3.147   4.357   2.723 -0.3133 -0.2174  0.0788
14887W        W31071   1.751   5.903  11.104 -0.3453 -0.0337 -0.1923
14888W        W31072   0.561   1.820  13.980  0.1533 -0.0560 -0.0412
14889W        W31073   7.634  13.028  10.737 -0.0116  0.3352  0.0807
14890W        W31074  10.538  12.416  14.292  0.0449  0.2620  0.1612
14891W        W31075   9.801  18.187  10.910 -0.0362 -0.0781 -0.0906
14892W        W31076  10.772   2.480  13.230  0.0038 -0.1415  0.1128
14893W        W31077   3.754   8.589   0.079 -0.1562  0.0513 -0.2546
14894W        W31078  10.528   5.777  12.980  0.0231 -0.0829 -0.1846
14895W        W31079   7.741  17.476  12.213  0.1394 -0.0156 -0.1420
14896W        W31080   9.935  19.109  14.372 -0.1064 -0.0437  0.0921
14897W        W31081   1.389  11.144  13.731 -0.0869  0.0611 -0.1427
14898W        W31082   6.223  13.849  10.880  0.2247  0.3308  0.2108
14899W        W31083  17.280   7.791  13.873 -0.3090 -0.0616 -0.0698
14900W        W31084   1.755  17.841  11.243  0.0105  0.2720  0.1017
14901W        W31085   6.738   2.067  14.837  0.1345  0.0293 -0.1810
14902W        W31086  19.305   3.322   4.892 -0.0333 -0.2491 -0.0404
14903W        W31087  11.783   1.550  12.178  0.0593  0.0953  0.0781
14904W        W31088  17.542  17.479  14.726 -0.2639 -0.1588 -0.0770
14905W        W31089   6.020  16.171  12.534  0.0999 -0.1887 -0.1305
14906W        W31090   7.208   7.074   2.427  0.0094 -0.1609  0.1572
14907W        W31091  16.200  18.896   4.282  0.1534  0.3881 -0.2217
14908W        W31092   4.789  18.519  10.215  0.0715  0.1044  0.0077
14909W        W31093   3.605  12.476   4.718  0.3654 -0.2467 -0.1920
14910W        W31094   9.859  12.349  12.125  0.1811 -0.2773  0.0644
14911W        W31095  13.869  15.608  14.922 -0.2568 -0.2886 -0.1576
14912W        W31096  11.091   7.579   0.541  0.0647 -0.4473  0.1223
14913W        W31097   8.137   3.272  12.643  0.0736 -0.1846  0.0260
14914W        W31098   9.925  15.411  14.333 -0.0992  0.0695  0.2683
14915W        W31099  15.164  13.299   2.790 -0.0369  0.1057 -0.1640
14916W        W31100   7.830   6.744   0.945  0.4218  0.0406  0.0530
14917W        W31101  13.538  11.507  11.362  0.2225 -0.4853  0.1457
14918W        W31102   8.455  11.154   1.126 -0.0445 -0.1885 -0.0594
14919W        W31103   3.591   5.174   0.233  0.3091  0.2044 -0.0166
14920W        W31104  17.630  16.714   4.267  0.1108  0.1588 -0.0293
14921W        W31105   6.599  13.028   3.593 -0.1645  0.0711  0.2317
14922W        W31106   2.211   9.718  14.791 -0.2969  0.0294  0.0509
14923W        W31107  18.101   1.463   2.445  0.1483  0.2448  0.0611
14924W        W31108  13.887   2.252   9.711  0.3002  0.1939 -0.1830
14925W        W31109   4.140   7.121  11.451 -0.1149  0.0459 -0.1222
14926W        W31110   7.066   8.038   2.070  0.1697 -0.2706 -0.2066
14927W        W31111   9.839  10.765  12.286 -0.0816 -0.2313 -0.3943
14928W        W31112  15.830   7.385  11.062 -0.2077  0.3458 -0.3011
14929W        W31113   6.528  17.927   0.154  0.2119  0.0968 -0.1356
14930W        W31114   4.855  17.445   9.275 -0.4499 -0.0415 -0.1964
14931W        W31115   7.200   1.958   3.302 -0.1276 -0.0888 -0.2771
14932W        W31116   9.909   8.241   0.927 -0.1390  0.1583 -0.0829
14933W        W31117  17.137   7.436  12.156  0.1502  0.0213 -0.1474
14934W        W31118  18.836   0.095   9.357 -0.1531 -0.1496 -0.0597
14935W        W31119   4.798  16.399  14.334  0.1287 -0.0786 -0.2534
14936W        W31120   0.078  11.859  10.849  0.1400 -0.2320  0.1714
14937W        W31121   8.272   4.783   0.288 -0.3322  0.0959 -0.1071
14938W        W31122   2.346  14.160   0.407  0.1708 -0.0864  0.2801
14939W        W31123  16.367  19.022  12.915  0.1045  0.1615 -0.0100
14940W        W31124  15.756   9.984   3.148  0.2186  0.1228 -0.1776
14941W        W31125   2.443  15.433   4.390  0.0133  0.4360 -0.2235
14942W        W31126  12.850  17.555   4.300  0.1943 -0.0839 -0.2433
14943W        W31127  16.641  11.150   4.326 -0.4302  0.0801 -0.1624
14944W        W31128  12.221  10.669   1.894 -0.2367 -0.2250 -0.1098
14945W        W31129  14.373   7.541   1.572  0.1970 -0.1817 -0.0206
14946W        W31130   9.129   9.909  12.448 -0.0689  0.0157 -0.3973
14947W        W31131   5.280  10.695   0.111  0.0908 -0.2430  0.3585
14948W        W31132   7.992  10.117  14.309  0.3798  0.0417  0.1375
14949W        W31133   8.414   3.879  14.370  0.2528 -0.0783 -0.0282
14950W        W31134  12.045  12.576  10.510  0.0918  0.2096  0.1167
14951W        W31135  10.241   6.352   3.649  0.2436  0.0856  0.0614
14952W        W31136   8.759  13.525   2.934 -0.0108  0.2388 -0.0370
14953W        W31137  19.173   2.262   4.322 -0.1759  0.0418  0.1970
14954W        W31138   2.237   6.986   2.870  0.1913  0.0544  0.1144
14955W        W31139   7.310  12.871  12.725  0.0484 -0.1577 -0.1837
14956W        W31140  15.403   3.933   4.280  0.0511 -0.0329  0.0816
14957W        W31141   4.054   4.480  14.432 -0.0956 -0.1224 -0.0321
14958W        W31142  13.401  15.743  14.305 -0.1411  0.1090 -0.3407
14959W        W31143   2.804   1.377  11.531 -0.2149  0.3074 -0.0185
14960W        W31144   3.802   4.536   0.992  0.2233 -0.0145  0.2990
14961W        W31145   3.324  10.592   5.362  0.1537  0.0341  0.1162
14962W        W31146   0.323   2.196   4.314  0.4158  0.0312 -0.0715
14963W        W31147   5.407   5.264  12.928 -0.0552 -0.0477 -0.0160
14964W        W31148   0.327  13.457   2.435 -0.0489 -0.0393  0.0638
14965W        W31149  18.786   0.099   2.786 -0.1986 -0.2110  0.0803
14966W        W31150   9.172   3.485  14.677 -0.1754 -0.2220  0.2982
14967W        W31151   1.462   1.456   5.459  0.1460  0.1896 -0.0689
14968W        W31152   5.735   6.348   2.870 -0.0530  0.0124 -0.0432
14969W        W31153  18.209   1.043   0.141  0.2215  0.2909  0.0303
14970W        W31154   0.358   6.153  14.100  0.0679 -0.3316 -0.0639
14971W        W31155   6.048  17.202  12.854  0.1969  0.0682 -0.1312
14972W        W31156  18.477   4.505   5.880  0.0063 -0.3766  0.0015
14973W        W31157  10.316   2.881  13.083 -0.2112 -0.0728  0.1370
14974W        W31158   0.344   5.153   5.895  0.1638  0.0438 -0.2234
14975W        W31159  17.790  18.195  10.265  0.0071  0.0059 -0.0424
14976W        W31160  13.099   9.975   2.246 -0.1064 -0.0928  0.4168
14977W        W31161   0.536  12.977   3.399  0.0702 -0.2222 -0.0887
14978W        W31162  12.451   7.667  14.214  0.2496  0.4087 -0.1845
14979W        W31163   6.904  10.200   1.273 -0.4433  0.0005 -0.0687
14980W        W31164  14.369   8.920   2.528 -0.2167  0.3559 -0.3427
14981W        W31165   6.721   8.672  14.151  0.1646 -0.0754 -0.0522
14982W        W31166  10.782   9.762   2.388 -0.1475 -0.0125 -0.0205
14983W        W31167   1.368  19.091   3.038 -0.1181 -0.0456  0.0022
14984W        W31168  10.199  13.333   5.751  0.2920 -0.2693 -0.0707
14985W        W31169   4.517   0.694   1.319  0.0111  0.0223  0.3956
14986W        W31170   0.873  16.059   4.896 -0.0849 -0.2788 -0.0744
14987W        W31171  17.557   4.677   0.558 -0.3877  0.2521 -0.2624
14988W        W31172  15.192  17.917   9.986  0.1621 -0.0063 -0.1572
14989W        W31173   2.010   2.833   4.069 -0.0189  0.1444 -0.0388
14990W        W31174  19.216  14.283   0.712 -0.2473  0.0925  0.1156
14991W        W31175  11.666  11.847  12.123 -0.3404  0.0543  0.0142
14992W        W31176   5.286   4.265  13.628 -0.0360 -0.3168  0.1198
14993W        W31177  19.214   6.754  12.282  0.0911  0.3265  0.3086
14994W        W31178   3.428   2.557  11.207  0.1611  0.0871  0.4600
14995W        W31179  10.748  15.961  12.877  0.4273 -0.0337 -0.2339
14996W        W31180  11.693   2.013  11.210 -0.0066 -0.4479  0.1880
14997W        W31181   0.653  15.835   5.838 -0.4142 -0.0896  0.1847
14998W        W31182   7.387  11.902   0.910 -0.2534 -0.0280  0.4096
14999W        W31183   2.401   4.571  10.734 -0.1816 -0.1935 -0.4946
15000W        W31184  10.222  17.438  12.524 -0.2146  0.2144 -0.4155
15001W        W31185  17.039  15.629  10.449  0.0867  0.0499  0.1590
15002W        W31186  17.974   5.269  14.184 -0.0441 -0.0172  0.0860
15003W        W31187  12.710   8.215   1.614  0.0524 -0.2349  0.1921
15004W        W31188   3.452  14.090  14.417 -0.2786  0.0789 -0.1290
15005W        W31189   1.707  15.019   3.719 -0.1294 -0.0482 -0.0549
15006W        W31190  11.405   4.317  12.016 -0.2970 -0.1607 -0.3102
15007W        W31191   0.016  11.913   0.193  0.0893 -0.1187  0.1008
15008W        W31192  15.874   2.575   1.387  0.1279 -0.2520 -0.1709
15009W        W31193   8.230   0.351  11.358  0.0862  0.2252  0.0699
15010W        W31194  13.519   3.283   4.091  0.0584 -0.2268 -0.1810
15011W        W31195   9.410  10.405   1.377 -0.1203  0.0322  0.1566
15012W        W31196  17.754  12.984   2.465 -0.2177 -0.3345 -0.1385
15013W        W31197  12.092   0.740   0.508 -0.0059 -0.1192  0.2421
15014W        W31198   2.196   9.235  13.963  0.3236 -0.0947  0.0942
15015W        W31199  11.831  13.879  14.250  0.1365  0.1561  0.1760
15016W        W31200   0.856   2.081  11.292  0.2650  0.4193 -0.3253
15017W        W31201  10.267   2.051   1.047 -0.4147  0.1045 -0.1458
15018W        W31202   2.014  13.002   5.192  0.0578  0.0443 -0.2100
15019W        W31203   0.237  16.775   2.507 -0.2130  0.0015  0.0008
15020W        W31204   5.792  10.147   1.330  0.0186  0.1628 -0.4123
15021W        W31205  11.066   4.231   5.274  0.1522 -0.0354 -0.2381
15022W        W31206  12.827  16.736   5.088  0.1186  0.1607  0.1733
15023W        W31207   5.158  18.907   4.644 -0.0493 -0.0165 -0.7133
15024W        W31208  12.482   7.130  12.006  0.0880 -0.0897  0.3109
15025W        W31209  18.436  17.772  12.452  0.0457  0.1230 -0.1354
15026W        W31210  11.765  15.026  11.299  0.4878  0.2393 -0.1294
15027W        W31211  10.825  10.852  13.618 -0.1671  0.2091 -0.1298
15028W        W31212   8.238   4.023  13.844 -0.1275  0.1071 -0.2258
15029W        W31213  12.984  15.699  12.646 -0.1373  0.1267  0.2178
15030W        W31214  12.478   3.184   1.221  0.1397  0.2374 -0.0811
15031W        W31215   9.530   4.089  14.065  0.1195 -0.1822  0.0121
15032W        W31216   2.661   5.323   0.820  0.5148  0.0667  0.0487
15033W        W31217  12.981   2.073  11.767 -0.4042  0.0777 -0.1522
15034W        W31218   5.650   6.589   3.965  0.0019  0.2301 -0.0153
15035W        W31219   7.722   7.434   3.054 -0.1815 -0.1760  0.1451
15036W        W31220  13.267   0.815  14.824  0.0928 -0.0644  0.1014
15037W        W31221  10.103   1.582  12.389  0.1320 -0.0810 -0.0355
15038W        W31222  11.869   8.258   3.885 -0.2110 -0.2288  0.2333
15039W        W31223   1.692   0.236   1.664 -0.1389  0.1094  0.0585
15040W        W31224   0.558  17.197   4.176 -0.1146 -0.1947  0.1088
15041W        W31225  14.481  13.943   3.292 -0.2885 -0.0980 -0.1596
15042W        W31226   0.739   5.139   3.428  0.2967  0.0051 -0.1293
15043W        W31227  15.217  11.878  12.934  0.0667  0.3512  0.2729
15044W        W31228  18.831   0.304   9.810 -0.2073 -0.2748  0.0705
15045W        W31229  16.277  11.017  13.219  0.0429  0.2585 -0.3205
15046W        W31230  11.016  11.311   2.525 -0.0199 -0.2701  0.2246
15047W        W31231   8.597  13.915   0.805 -0.4650 -0.0893  0.4835
15048W        W31232   5.087  16.165   1.360  0.0821  0.2300 -0.2829
15049W        W31233  13.130   1.103   3.346  0.0402 -0.1987 -0.0613
15050W        W31234   3.630  11.581   1.347 -0.1009  0.0173  0.1374
15051W        W31235   4.877   8.855  11.894  0.2282 -0.1915 -0.1112
15052W        W31236   1.238  17.767   0.257 -0.1923  0.3941 -0.1148
15053W        W31237   2.481   7.573  13.124 -0.0882  0.0507  0.4809
15054W        W31238   0.400   7.232  11.595  0.1323  0.1508  0.3224
15055W        W31239  18.706  19.382   3.284  0.0886  0.1680 -0.3255
15056W        W31240  16.277  11.341  11.790 -0.1219  0.2117 -0.0618
15057W        W31241  12.380   3.112  10.502 -0.0984  0.3698 -0.2696
15058W        W31242   5.921   2.615   1.363 -0.1987  0.0052 -0.0974
15059W        W31243   0.840  14.276   2.134  0.0377  0.2018  0.0809
15060W        W31244   1.499  10.503   1.379 -0.2590  0.0721 -0.2468
15061W        W31245   9.807   7.751  14.449 -0.0038  0.1960  0.2014
15062W        W31246   5.067   2.161  11.353  0.2790 -0.1061 -0.1988
15063W        W31247   3.900   1.590  11.201  0.0835 -0.4419  0.1092
15064W        W31248  11.895   1.761  10.837 -0.0682 -0.0295  0.2303
15065W        W31249  16.327   5.825   3.868  0.1995 -0.3642 -0.0938
15066W        W31250   4.230   7.853  12.550 -0.2291  0.0596  0.0944
15067W        W31251   3.662   1.223  11.405 -0.0971  0.2721 -0.2724
15068W        W31252   8.536   0.976   4.682  0.0931 -0.3442 -0.0068
15069W        W31253   7.076   9.088  12.441 -0.1702  0.0553  0.3923
15070W        W31254   2.080  11.638   0.217  0.1788 -0.2734 -0.0477
15071W        W31255   4.700   2.989   3.639 -0.0372 -0.2899  0.2506
15072W        W31256  15.024   0.357  12.807 -0.1659 -0.3451  0.0036
15073W        W31257   0.036   4.900  14.257  0.2572  0.5361 -0.4055
15074W        W31258   2.916  17.973   5.171 -0.1980  0.0640  0.1272
15075W        W31259  15.933   7.295  14.489 -0.0722  0.2732 -0.0555
15076W        W31260  10.367  16.169  11.461  0.3844 -0.2569 -0.1499
15077W        W31261  16.808   2.171  13.661  0.0789  0.3110 -0.0439
15078W        W31262  14.506  14.831  10.688  0.3979  0.3215 -0.0887
15079W        W31263  12.889  12.832   2.746 -0.4390 -0.1327  0.0590
15080W        W31264  13.958   3.722   2.273 -0.0060 -0.1936  0.2380
15081W        W31265  18.338   1.044   2.440  0.0759  0.4293  0.0038
15082W        W31266   5.421  12.449  11.201  0.4855  0.1897  0.0865
15083W        W31267  16.926   6.774  11.556  0.2398  0.2245  0.0011
15084W        W31268   9.034  13.361   0.096 -0.0983  0.1953  0.1543
15085W        W31269   9.704   2.307   1.057 -0.0519  0.1340  0.1257
15086W        W31270  13.350  14.004  10.545 -0.2730 -0.0927 -0.0665
15087W        W31271   7.006   5.574   0.147 -0.0868  0.2346 -0.0926
15088W        W31272   5.002   1.896  10.615 -0.2217 -0.1570 -0.1439
15089W        W31273   1.057   9.041   5.013 -0.2111  0.2086  0.0733
15090W        W31274  17.742  11.106  13.086  0.0997  0.1191  0.0285
15091W        W31275  11.989  16.045   4.313 -0.0126  0.2775  0.0839
15092W        W31276  15.607  11.354   9.118  0.2231  0.0683  0.1403
15093W        W31277   3.521   3.903  12.715 -0.2945 -0.1376 -0.2190
15094W        W31278   0.405   2.617   0.275 -0.2842  0.0216  0.1535
15095W        W31279   6.414   9.729  11.109 -0.1730 -0.0670 -0.2944
15096W        W31280  16.692  14.819  10.153 -0.0327 -0.0060  0.0279
15097W        W31281  11.929  10.497   2.720 -0.0386 -0.2390 -0.3231
15098W        W31282   7.602  19.373  14.759 -0.0164 -0.0634  0.1632
15099W        W31283  17.511  10.011   1.878 -0.0502  0.2794  0.0418
15100W        W31284  13.755  17.069   2.537 -0.0505 -0.1470 -0.0514
15101W        W31285  19.038   6.247  14.287 -0.0795 -0.2101 -0.0063
15102W        W31286   4.344   9.275   5.633  0.1010 -0.2831  0.0617
15103W        W31287   5.461  17.271  10.192  0.2058 -0.0326  0.1086
15104W        W31288   4.583   3.363   1.354  0.0983 -0.1703 -0.0044
15105W        W31289   2.322  17.909  11.647 -0.1507 -0.0011  0.0055
15106W        W31290  12.894   0.815  11.296 -0.4059  0.2359  0.1546
15107W        W31291   4.795   9.282   5.462 -0.1630  0.3289  0.3165
15108W        W31292  14.675   5.622  10.906  0.0032  0.0584 -0.1195
15109W        W31293   0.309  18.242  12.960  0.0054 -0.2663 -0.1494
15110W        W31294   1.136  11.275   1.969  0.3030 -0.2307 -0.0855
15111W        W31295   7.875   2.456   0.629  0.1122  0.0395 -0.1534
15112W        W31296  18.242  15.421   1.489 -0.0402 -0.3247  0.0332
15113W        W31297   8.841  15.004  12.619  0.1754  0.2051 -0.0894
15114W        W31298   2.765   6.836   5.476 -0.1897 -0.0197  0.0061
15115W        W31299  17.655   0.828  12.940 -0.2274  0.2079 -0.4793
15116W        W31300   4.299  16.136   0.118 -0.1527  0.1998 -0.1242
15117W        W31301   2.917  11.843  13.978  0.2440 -0.1654 -0.1269
15118W        W31302  10.556   8.219  14.005 -0.1656 -0.0801 -0.3063
15119W        W31303  17.249   2.483  13.608 -0.2918  0.3596 -0.1670
15120W        W31304  18.896  15.395  12.602 -0.1356 -0.0283  0.0285
15121W        W31305  18.815  11.402  11.375  0.0732 -0.2118  0.3118
15122W        W31306   4.207  17.655  11.233  0.0870 -0.5180  0.0728
15123W        W31307  18.117  11.413   0.452  0.0871  0.3411  0.4121
15124W        W31308  18.197  17.105  12.117  0.3800  0.2351 -0.1468
15125W        W31309  15.171  14.584   3.187  0.0476 -0.1692 -0.0333
15126W        W31310  14.867   2.910  10.549  0.3721  0.3374 -0.1507
15127W        W31311  17.646   9.177  10.141 -0.1931  0.0420 -0.2838
15128W        W31312  18.172   6.795  14.443 -0.0379 -0.0216  0.0528
15129W        W31313  13.847   8.834  13.307  0.0683  0.0315 -0.1845
15130W        W31314  17.447  10.728   0.837 -0.5302 -0.2965  0.0796
15131W        W31315  15.032  11.540   3.120 -0.1028  0.2637 -0.3030
15132W        W31316   3.308  11.233   3.611 -0.1279  0.3132 -0.2272
15133W        W31317   4.487   9.605   5.246 -0.0725 -0.0898 -0.1470
15134W        W31318   0.153   9.842   2.484  0.1111 -0.1558 -0.2925
15135W        W31319   8.708   1.145  12.159 -0.1452  0.2465 -0.0207
15136W        W31320  16.062  18.096   9.811 -0.2175 -0.0134 -0.1428
15137W        W31321   3.435   2.672   2.094  0.1012 -0.0281 -0.1053
15138W        W31322  12.206  11.505  10.032 -0.4263 -0.1065 -0.1390
15139W        W31323  10.653   0.613  12.878 -0.0867 -0.0852  0.2240
15140W        W31324   7.555   7.406  13.275 -0.2599  0.2758 -0.1217
15141W        W31325   9.968   4.960   4.763  0.1225 -0.1424  0.0776
15142W        W31326   6.597  12.769  14.764 -0.1116  0.0346 -0.0051
15143W        W31327   9.223  15.315   1.519 -0.0184  0.0960  0.0467
15144W        W31328   5.988  18.851   1.187 -0.3599 -0.0056  0.1812
15145W        W31329  16.003   5.249   3.545  0.1318  0.0526 -0.0821
15146W        W31330   1.354  15.154   0.577  0.0381  0.2415  0.2999
15147W        W31331  10.335  10.216  13.289  0.0586  0.2040 -0.0100
15148W        W31332   2.351   3.790   4.650 -0.1569 -0.0293 -0.1555
15149W        W31333  14.288   5.156   2.121  0.1105  0.1914 -0.0353
15150W        W31334  14.589  13.660  10.868 -0.3487  0.0577  0.0187
15151W        W31335  15.495   3.704   0.491  0.1612  0.0081 -0.1295
15152W        W31336  10.790  12.511   1.552 -0.2967  0.0004 -0.0261
15153W        W31337   6.422  14.814   1.287  0.0608 -0.3183  0.3418
15154W        W31338   7.566   6.157  11.088  0.0274 -0.0403  0.0083
15155W        W31339   0.906  13.469   4.583 -0.2067 -0.3173 -0.2694
15156W        W31340   1.409  10.365  11.818  0.1181  0.3538  0.0960
15157W        W31341   1.849   8.837  14.681  0.0113 -0.3062 -0.0920
15158W        W31342   3.762  12.679  11.712  0.1550 -0.4531  0.1184
15159W        W31343  11.508  15.944   0.520  0.0837 -0.1353  0.0916
15160W        W31344   0.137  14.936  13.864  0.0426  0.0052  0.3625
15161W        W31345  10.277   7.147  13.711 -0.1742 -0.2044  0.3327
15162W        W31346  15.886  12.481  12.426  0.3162  0.1688 -0.0633
15163W        W31347   1.682  10.220  10.428 -0.1673 -0.1179 -0.0809
15164W        W31348  10.326  16.357  14.039 -0.1999 -0.1816  0.1894
15165W        W31349   0.827  11.560  11.176 -0.0355  0.2018  0.1373
15166W        W31350  14.836  17.117  10.771  0.0641  0.1037  0.2331
15167W        W31351  14.867   2.499   9.831  0.2539  0.0042 -0.0726
15168W        W31352  15.282   6.103   1.982 -0.2589  0.0557 -0.0310
15169W        W31353   4.568  18.252   0.017  0.3577 -0.2462  0.0133
15170W        W31354   9.035   0.464   1.911 -0.0740 -0.2287  0.0346
15171W        W31355   6.153   9.724   0.917 -0.0527 -0.0607 -0.1103
15172W        W31356   6.756  11.239   3.304  0.0893 -0.0536 -0.2926
15173W        W31357   6.236   9.149   3.709 -0.1920 -0.1768  0.2970
15174W        W31358  11.051  18.542   3.831  0.3905  0.0006 -0.2988
15175W        W31359   7.561  18.158   5.014  0.1029  0.1220  0.3010
15176W        W31360  18.237   9.907  13.529  0.0500 -0.1521  0.3359
15177W        W31361  17.958  12.423   1.166  0.0808 -0.0550 -0.0722
15178W        W31362  15.382   7.905  14.816 -0.4016  0.0206  0.1447
15179W        W31363  10.791   3.274   2.745  0.1879 -0.3926 -0.0463
15180W        W31364   8.220   6.713  12.982  0.1051  0.1040  0.0120
15181W        W31365   7.589   5.250  14.474  0.2922 -0.1743 -0.0669
15182W        W31366   2.162  11.078   4.392  0.3428  0.1638 -0.0008
15183W        W31367   0.609  15.683   0.601  0.2833 -0.0986  0.0509
15184W        W31368  16.995  15.949   1.464  0.4779 -0.2978 -0.0181
15185W        W31369   5.131  19.192  10.851 -0.0080 -0.1671  0.1225
15186W        W31370   2.308  16.502   4.900  0.1553  0.0179  0.1859
15187W        W31371   3.233  15.578  14.536 -0.1602 -0.0193  0.4464
15188W        W31372   9.430  16.576   1.839 -0.2507 -0.2116  0.2641
15189W        W31373   9.689  13.519   1.248 -0.2592 -0.1533 -0.1892
15190W        W31374  14.136   5.702  12.319 -0.2768 -0.0051  0.1651
15191W        W31375   2.322   5.552  12.456  0.1510  0.1930 -0.2036
15192W        W31376  11.621  13.903  13.287  0.0119  0.1020 -0.0224
15193W        W31377  17.773  13.888   3.047  0.1437  0.4031 -0.2331
15194W        W31378  13.737  15.625   0.664  0.1464  0.0955 -0.0811
15195W        W31379  13.019  14.417  10.681 -0.0167 -0.3596 -0.0186
15196W        W31380   4.981   9.813  12.467  0.1107 -0.0667 -0.2461
15197W        W31381  15.109   6.432  11.922 -0.0577  0.0713  0.1830
15198W        W31382  12.057  17.440  12.733  0.3118 -0.0122  0.0021
15199W        W31383  11.115  13.860  10.217  0.0781 -0.3737 -0.1532
15200W        W31384   8.164  14.771  14.139  0.3383  0.2525 -0.3990
15201W        W31385   2.600   5.334   1.311 -0.3196  0.2885  0.0236
15202W        W31386  13.031   3.197  11.053 -0.0655  0.1920 -0.2097
15203W        W31387   2.698  10.908   1.164 -0.0270  0.2322 -0.0689
15204W        W31388  17.702  11.013  11.079 -0.0099  0.0048  0.1044
15205W        W31389  11.257   0.895   0.199 -0.0173 -0.2220  0.3464
15206W        W31390  11.827  11.631  13.460 -0.1247  0.3782  0.3514
15207W        W31391  18.745  12.323   1.950 -0.0143  0.0126  0.2436
15208W        W31392  12.840  17.378   0.555  0.1962  0.1704  0.1131
15209W        W31393  19.105   7.363   0.173 -0.1867  0.0448  0.0209
15210W        W31394  15.028   0.056   0.366  0.0041  0.0539 -0.1879
15211W        W31395   3.206  12.211  14.604  0.3717 -0.3385 -0.0229
15212W        W31396  15.100   1.838   1.202  0.5075 -0.0888 -0.0799
15213W        W31397  13.419   3.086   0.442 -0.4127  0.0687 -0.0396
15214W        W31398  10.741  12.944  10.415  0.1275 -0.4014 -0.1467
15215W        W31399   7.391   4.507  11.609 -0.0791 -0.2808 -0.0406
15216W        W31400   2.667  12.750   1.541 -0.1278  0.1385  0.1039
15217W        W31401   7.172  11.677   1.913  0.1724  0.1149 -0.2558
15218W        W31402  18.439   8.503   0.557  0.3405 -0.0114  0.1952
15219W        W31403   8.367  16.986   2.734  0.1947  0.1339 -0.0525
15220W        W31404   0.892  14.828  11.520 -0.1154  0.0837  0.0611
15221W        W31405   3.646   3.591   3.697 -0.0862 -0.1535 -0.0434
15222W        W31406  15.801   5.041  12.214  0.1984  0.0398 -0.0046
15223W        W31407   5.330   7.654   2.646 -0.2121 -0.0388 -0.1678
15224W        W31408  15.332  13.611   0.399 -0.1636 -0.1545  0.0963
15225W        W31409  12.420   3.139  12.822  0.0008  0.1943 -0.2139
15226W        W31410   2.468   3.887  14.073  0.1814 -0.2818 -0.2200
15227W        W31411   8.208  13.075   2.478  0.0243  0.0216  0.0796
15228W        W31412   7.142   8.768  12.823  0.0654  0.3771  0.1578
15229W        W31413   5.266   4.608   0.740  0.0905  0.0622 -0.1095
15230W        W31414  12.511   6.975   0.118  0.1077 -0.5007  0.2753
15231W        W31415  18.619   6.202  13.795 -0.0600 -0.0401  0.0316
15232W        W31416   0.958   2.923   5.298 -0.1718  0.0276 -0.1097
15233W        W31417  19.197   9.207  10.866  0.0615  0.4665 -0.1202
15234W        W31418   3.090   6.715  13.460  0.0522 -0.1427 -0.1585
15235W        W31419   7.432  18.601   0.177 -0.1513 -0.1542 -0.2346
15236W        W31420  10.614   2.281   2.879 -0.0205 -0.1734 -0.3075
15237W        W31421   1.472   0.421  12.555  0.0370  0.4651 -0.1562
15238W        W31422   7.114  17.639   1.680  0.2814  0.0576 -0.0366
15239W        W31423   3.561   5.858  13.088  0.1942  0.1543 -0.3713
15240W        W31424   2.667   3.356  11.839  0.1177  0.1269  0.2063
15241W        W31425   8.087   3.781   5.302 -0.2809 -0.0521 -0.1020
15242W        W31426  18.286  12.525   4.156 -0.0123  0.2262 -0.1669
15243W        W31427  17.920   8.169   4.009 -0.3247  0.0586 -0.0082
15244W        W31428  16.051   5.771   4.388  0.0682 -0.0413 -0.2136
15245W        W31429  17.693   0.775   1.741 -0.3280 -0.4551 -0.2229
15246W        W31430   5.098   1.995   0.289 -0.1001  0.2158 -0.4282
15247W        W31431  13.139   3.396   3.699 -0.1023 -0.2341  0.0392
15248W        W31432   6.028  13.568  11.269  0.0506 -0.0247  0.2150
15249W        W31433   1.410  17.898   4.564 -0.5376  0.2010  0.0833
15250W        W31434  16.315  18.571  11.512 -0.0246 -0.2173  0.0118
15251W        W31435  12.750   0.901  10.455  0.0048  0.1295  0.0528
15252W        W31436  18.256   2.243  12.426  0.1771 -0.1995  0.3017
15253W        W31437   0.238  12.958   2.130  0.0057  0.2317  0.0121
15254W        W31438  13.802  12.626   2.467  0.0624  0.2105  0.3289
15255W        W31439   2.835   6.901  12.536 -0.0681 -0.0470 -0.4137
15256W        W31440   4.837  17.449   1.271 -0.0953  0.0226 -0.1550
15257W        W31441   1.861   8.265   0.449  0.0738 -0.1988  0.0199
15258W        W31442  13.017  12.781   3.659 -0.0365  0.0540  0.2156
15259W        W31443  13.278   4.288  12.020 -0.0967  0.1399  0.2808
15260W        W31444   0.356   6.136   5.074 -0.0936  0.0160  0.1464
15261W        W31445   7.750  10.646  14.113  0.1889  0.3425 -0.0337
15262W        W31446  10.416   3.330  10.605  0.0789  0.0656  0.0554
15263W        W31447   7.373   9.865   0.417 -0.0961  0.0451  0.1443
15264W        W31448  15.943   6.829  13.494  0.3744  0.3099 -0.2515
15265W        W31449   8.352  18.925  14.798 -0.1111 -0.0029  0.0194
15266W        W31450   0.886  18.430   3.370  0.1147  0.1871  0.2266
15267W        W31451   0.531  17.592   1.913 -0.0093  0.0681 -0.3451
15268W        W31452   9.884   3.090  11.918 -0.1092 -0.0832  0.3731
15269W        W31453   3.689   4.167   2.610 -0.2328 -0.2190 -0.1757
15270W        W31454   3.947   2.217  11.772 -0.0027 -0.1819 -0.0807
15271W        W31455  11.167  14.280   3.834 -0.0534 -0.1041 -0.0455
15272W        W31456   7.667   4.363  14.494  0.1371  0.0546 -0.3225
15273W        W31457   8.283  14.986  14.649  0.0614  0.2114  0.0027
15274W        W31458  16.296   2.057   3.403 -0.1097  0.0423 -0.1594
15275W        W31459   8.376   1.793  10.981  0.0322 -0.3644 -0.2703
15276W        W31460   9.867   3.719  12.664 -0.0168  0.1260 -0.4447
15277W        W31461   3.654   1.769   1.222  0.2639  0.2325  0.2582
15278W        W31462   8.727  15.294   1.974  0.0021 -0.0067  0.0087
15279W        W31463   5.663  13.680  13.402  0.0925 -0.1298  0.0581
15280W        W31464  19.085   6.123  12.848  0.1122 -0.3768 -0.2694
15281W        W31465   7.196   5.941   3.092  0.1751 -0.4209  0.1820
15282W        W31466   7.390   8.598  14.823  0.1135  0.5173 -0.0543
15283W        W31467  15.820   8.703  12.933 -0.1284  0.3632  0.0927
15284W        W31468  13.534   4.016  13.654 -0.1399  0.2561 -0.4641
15285W        W31469  18.686   5.241   0.311  0.1303  0.1893 -0.0332
15286W        W31470  10.824   8.868  14.800 -0.0161  0.1725 -0.1977
15287W        W31471  13.958   8.110  13.888  0.0629  0.0158  0.0505
15288W        W31472  18.492   7.873  11.851 -0.0312 -0.0752 -0.5581
15289W        W31473  15.205  16.263  12.388  0.0210  0.1358 -0.1362
15290W        W31474   3.812   0.747  13.133 -0.2730 -0.0720  0.1452
15291W        W31475   0.139   0.445  11.587 -0.1368  0.1331 -0.1374
15292W        W31476  16.797   3.275  14.240 -0.0924  0.3808  0.1170
15293W        W31477  11.511  18.516   1.061 -0.2223 -0.3523 -0.0881
15294W        W31478  13.985  10.079  13.824  0.0158  0.0442  0.2137
15295W        W31479   7.461   3.386  11.707  0.2674  0.1406  0.0541
15296W        W31480  18.844   0.833   1.661 -0.0031  0.3240  0.3990
15297W        W31481  15.293  17.644  12.732  0.1383 -0.1623  0.2083
15298W        W31482  18.570   0.787  14.003  0.1551 -0.0301 -0.5417
15299W        W31483   9.055   4.138   2.964 -0.0862  0.0277 -0.0180
15300W        W31484   7.836  10.877  11.653  0.2093 -0.0567  0.0145
15301W        W31485   9.913   0.182   3.674  0.2328  0.1323  0.0543
15302W        W31486   3.950   3.513   0.628  0.1898 -0.4255  0.0289
15303W        W31487  11.056   0.543  10.516  0.0732 -0.1375  0.1599
15304W        W31488  12.436   4.840   4.259  0.2551 -0.1386 -0.3000
15305W        W31489  12.081   1.962   9.930 -0.0640 -0.1209 -0.0322
15306W        W31490  12.088  10.050   1.265  0.3193  0.2520  0.1432
15307W        W31491  16.006  16.529  12.606 -0.2656 -0.0091 -0.4259
15308W        W31492   8.983  17.617  10.064 -0.1850 -0.1731 -0.6750
15309W        W31493  10.312  13.146  10.609  0.0635 -0.2244  0.2772
15310W        W31494  11.331   4.281   0.660 -0.1466  0.0758  0.0704
15311W        W31495   9.329  16.814   2.361 -0.2442  0.1486  0.1421
15312W        W31496  14.815  13.351  11.224  0.3542  0.1172 -0.2477
15313W        W31497   4.887  11.862  10.367 -0.0279  0.1593 -0.1356
15314W        W31498  16.205  18.835   0.340  0.2773  0.0559 -0.1519
15315W        W31499  14.708   3.037   0.173 -0.1069  0.0961 -0.0351
15316W        W31500  14.507  15.912  13.936  0.1737  0.1014 -0.0112
15317W        W31501  16.820   1.485  10.713 -0.2388 -0.0156 -0.0377
15318W        W31502   4.622   7.162  12.177  0.3792  0.0145 -0.0017
15319W        W31503   4.869   6.991  11.218 -0.0654 -0.1255  0.0228
15320W        W31504  15.511   5.460   3.680 -0.2973 -0.0825 -0.1217
15321W        W31505   8.176  13.100   4.456  0.0817 -0.0383 -0.1618
15322W        W31506  13.463   6.617   0.065  0.1507  0.1410 -0.0008
15323W        W31507  15.573   0.132  10.566  0.2324  0.0511 -0.0608
15324W        W31508   2.273  12.419   0.104  0.0195  0.0646  0.0926
15325W        W31509  17.705   3.798  11.863  0.0050  0.0829 -0.0929
15326W        W31510   1.273   4.885   4.520  0.0161  0.1120  0.1082
15327W        W31511  17.905  19.195   0.551  0.1153 -0.2365  0.3006
15328W        W31512   1.116  18.262   4.685  0.0232 -0.0887  0.1060
15329W        W31513  14.938   6.575  10.199 -0.0670 -0.3106  0.0125
15330W        W31514   8.312  17.175   0.500  0.0703 -0.1796  0.0565
15331W        W31515  11.091  15.259  11.239 -0.2165 -0.0876  0.1564
15332W        W31516   7.852   9.367  12.640  0.2055 -0.3963 -0.3125
15333W        W31517  14.952   8.325   4.115 -0.0752  0.5587  0.1308
15334W        W31518  12.824  10.155   2.893 -0.1607 -0.1033 -0.0040
15335W        W31519   1.052  17.676  11.740 -0.1377  0.0644  0.3735
15336W        W31520   5.850   0.858  14.571 -0.0676 -0.3495  0.2875
15337W        W31521   3.076  14.574  14.210 -0.3581  0.0261  0.1934
15338W        W31522  16.448   4.152  12.129 -0.3443 -0.2876 -0.0599
15339W        W31523   6.566   7.362   1.151  0.1123  0.0803 -0.0019
15340W        W31524   6.367  10.883   5.505  0.0283 -0.1431 -0.0449
15341W        W31525   2.033   0.649  10.543 -0.2135 -0.0243  0.1132
15342W        W31526   4.022   4.035  12.913  0.2868  0.1177 -0.0278
15343W        W31527   0.398  18.486   3.497  0.1340 -0.1087  0.1200
15344W        W31528   5.982   7.706   4.587 -0.1602  0.0363  0.4682
15345W        W31529  15.408   1.931   3.512  0.6207  0.0317  0.1443
15346W        W31530   3.351  17.718   2.013 -0.1726  0.0937 -0.3143
15347W        W31531   1.104   5.734  11.291 -0.1358  0.0716  0.2265
15348W        W31532   5.359   7.625  13.990  0.2296 -0.4125  0.0729
15349W        W31533  14.933   8.151  11.412  0.2363 -0.0278  0.0122
15350W        W31534   2.729   2.034   4.283 -0.1268 -0.2270 -0.1182
15351W        W31535  12.989  10.790  13.069 -0.1286 -0.1871 -0.3643
15352W        W31536   3.224  13.491   5.078  0.0808  0.0483  0.1913
15353W        W31537  12.717  18.231   1.621 -0.2111  0.0064  0.0885
15354W        W31538   5.342   4.058  11.455 -0.1534 -0.2496  0.2736
15355W        W31539   5.189   4.482   4.867 -0.0323  0.4217  0.1061
15356W        W31540   6.899   4.411  11.584 -0.1815 -0.0380 -0.1705
15357W        W31541   4.167  19.091  12.319 -0.2278  0.0376 -0.1656
15358W        W31542  17.017  18.347   3.996 -0.0224 -0.0573 -0.3994
15359W        W31543   3.442   9.196   2.484  0.1571  0.0763  0.4116
15360W        W31544  17.311   1.384  10.532 -0.1121  0.1900 -0.0806
15361W        W31545  12.436  12.022   3.468  0.0725  0.1984  0.2009
15362W        W31546  12.114  11.231  13.520  0.0302 -0.1611 -0.1872
15363W        W31547  11.106   7.370  11.187 -0.0456 -0.1238 -0.1469
15364W        W31548   0.129  14.106   0.288  0.0550  0.2614  0.0046
15365W        W31549  11.367   1.824   1.688 -0.1816  0.4518  0.0909
15366W        W31550  19.337  17.178   4.340  0.2008 -0.0927  0.0319
15367W        W31551  10.940  18.304  13.683 -0.1792  0.2836 -0.0503
15368W        W31552  15.807   9.480   2.871 -0.2211 -0.1727  0.0762
15369W        W31553   9.026  13.831  11.940  0.3657 -0.1453 -0.0747
15370W        W31554  13.364   7.505   0.054 -0.0038 -0.2285 -0.1840
15371W        W31555   7.708  14.541  13.970  0.1999 -0.2057 -0.0001
15372W        W31556  15.708  13.244   0.039  0.0925  0.0543  0.1201
15373W        W31557   9.069   3.752  11.514 -0.0436 -0.0735 -0.0394
15374W        W31558   9.501   5.833  13.048  0.4848  0.0982 -0.0396
15375W        W31559  11.880  12.844  14.107 -0.1112 -0.0527 -0.0396
15376W        W31560   1.187   2.915  11.345  0.5109 -0.0876 -0.0810
15377W        W31561  16.217   8.393  10.057 -0.4303  0.0230  0.3719
15378W        W31562   9.066   5.537  14.422  0.3170 -0.1017  0.0585
15379W        W31563   0.846   3.047  14.455  0.0542  0.1292  0.3041
15380W        W31564   9.744  13.457  11.549 -0.2582 -0.2704 -0.0306
15381W        W31565   1.480  18.301   4.260  0.2965  0.1327  0.0065
15382W        W31566  10.245   0.331  11.568  0.0940  0.0050  0.2842
15383W        W31567   8.212   1.683   0.561  0.1992 -0.1709 -0.0882
15384W        W31568  16.948   3.337   1.996 -0.0708  0.0358 -0.1330
15385W        W31569  14.537  13.698  12.806 -0.1141 -0.2558  0.1854
15386W        W31570  12.474   3.188   2.598 -0.2260  0.0904 -0.1427
15387W        W31571  13.207  11.174   4.813 -0.1067 -0.3479  0.2730
15388W        W31572   6.651  10.118   0.857 -0.2029  0.1000  0.2527
15389W        W31573  12.068  18.289  12.074 -0.1508 -0.0125 -0.0318
15390W        W31574   7.307  19.346  11.656 -0.0523  0.0623 -0.0107
15391W        W31575   4.608  10.315   4.548 -0.1202 -0.0746 -0.1419
15392W        W31576  16.978   7.998   3.611 -0.4206 -0.0190  0.0361
15393W        W31577  17.669   1.658   1.842  0.1381 -0.0130  0.4091
15394W        W31578   4.066   7.852  10.405 -0.0020 -0.1004  0.2507
15395W        W31579  11.831   4.244   0.338  0.0608  0.1787 -0.1002
15396W        W31580   3.351  19.215   1.411 -0.2397  0.2580 -0.0859
15397W        W31581   7.002  11.619   3.484 -0.0058  0.1356  0.1147
15398W        W31582   0.590   0.602  11.860 -0.2975 -0.2252  0.4837
15399W        W31583   8.785   7.707   2.710  0.0753 -0.0730  0.1796
15400W        W31584  14.062  11.960  13.989 -0.0414  0.2808  0.0634
15401W        W31585   3.809  14.559   0.262  0.1027  0.2362 -0.0046
15402W        W31586   5.484  13.030   0.516 -0.0552  0.1118 -0.1428
15403W        W31587  13.049  15.985   1.819  0.1737 -0.2322 -0.0578
15404W        W31588   4.242   6.643   2.800 -0.0247  0.0600 -0.2599
15405W        W31589  15.112  12.877   4.693 -0.1826 -0.2503  0.4918
15406W        W31590   2.322   7.471  10.458 -0.1692  0.0027  0.0143
15407W        W31591  11.983   6.925   1.054  0.2836 -0.1933  0.1834
15408W        W31592   1.510   0.152  11.593 -0.1061  0.1266  0.2831
15409W        W31593  18.516  17.240   3.177 -0.0853 -0.1478 -0.0240
15410W        W31594  11.557   2.165   2.609  0.2886  0.3779  0.0815
15411W        W31595   5.501   5.355   3.458  0.2577 -0.2008  0.1036
15412W        W31596   6.487  12.210   4.313 -0.1789 -0.2220  0.4317
15413W        W31597  18.455  18.853  12.667  0.2867 -0.2645  0.0851
15414W        W31598  14.716   9.233   0.049  0.1725  0.0856 -0.2061
15415W        W31599   4.479   1.520   4.326 -0.0136 -0.1581  0.0534
15416W        W31600   9.791  12.850   5.104  0.2489 -0.1304 -0.1339
15417W        W31601  11.377   1.479  12.726 -0.0770  0.2049 -0.1625
15418W        W31602  11.758  17.450   1.946 -0.3358 -0.0105  0.1131
15419W        W31603   9.699  11.950  13.254  0.2923 -0.1502  0.4900
15420W        W31604  15.655   5.759  10.252 -0.2419  0.0577  0.2246
15421W        W31605  13.574   1.886   1.160 -0.0099  0.2879 -0.2798
15422W        W31606   5.443  19.161   9.691 -0.7593  0.1186  0.1008
15423W        W31607   3.065  12.254   1.747  0.3657 -0.1850  0.0240
15424W        W31608   9.195  19.300  14.304 -0.2373 -0.0556 -0.2465
15425W        W31609   3.700   3.989   5.445  0.3741  0.1921  0.0538
15426W        W31610   4.333  15.597   1.629 -0.2766  0.1417 -0.3784
15427W        W31611  11.493   8.936   2.195  0.0225 -0.1487  0.2194
15428W        W31612   6.692  12.946  13.067  0.1488 -0.0088 -0.1709
15429W        W31613  10.578  18.511  11.081  0.2714  0.1373  0.0129
15430W        W31614  12.911   1.381   2.509  0.1556 -0.2884 -0.0571
15431W        W31615   9.077   3.676   3.967  0.0084 -0.0870 -0.1848
15432W        W31616  12.112   0.884  13.564  0.1736  0.1039 -0.1484
15433W        W31617   1.503   6.355   0.253 -0.0270 -0.0490 -0.1852
15434W        W31618  14.783   6.357  14.676 -0.2178 -0.0445  0.1186
15435W        W31619  10.168   5.898   4.854 -0.2614  0.1291  0.0859
15436W        W31620  13.955  18.759  10.359  0.0546  0.1748 -0.0781
15437W        W31621   1.878   3.394   2.248  0.1535  0.5051  0.1924
15438W        W31622  14.824  10.491   2.720 -0.0808 -0.2915  0.0871
15439W        W31623  15.658  12.232   5.526 -0.0977 -0.1226  0.1669
15440W        W31624   9.251  12.277  13.447  0.0505  0.1393 -0.2000
15441W        W31625   7.390  14.343   4.918 -0.1712  0.1704 -0.0271
15442W        W31626   1.938  17.479   3.233 -0.1774 -0.0888  0.2710
15443W        W31627  19.377   5.743  13.542  0.0861  0.0586  0.0641
15444W        W31628   1.179  12.851  14.755 -0.0326  0.1198 -0.1915
15445W        W31629   9.476   7.289   3.314 -0.0968 -0.1049  0.0395
15446W        W31630  13.746  14.864   1.880 -0.1237 -0.2302 -0.2558
15447W        W31631   6.946  16.436   4.509 -0.0949 -0.0785  0.1439
15448W        W31632  11.515   9.483   0.644  0.0706  0.2087 -0.0940
15449W        W31633  13.546  16.499  12.875  0.0001 -0.1788  0.2417
15450W        W31634  15.854  14.673   3.792  0.2420 -0.3471 -0.0686
15451W        W31635  15.693  14.668   1.475 -0.0812 -0.0710  0.3033
15452W        W31636  15.717  12.571   3.274 -0.0502  0.1721 -0.2971
15453W        W31637   5.785   1.673   0.914  0.1186 -0.0884  0.0096
15454W        W31638  13.631   0.747  13.158 -0.0156  0.3989  0.0587
15455W        W31639  10.833   2.049  12.861 -0.3008  0.3844 -0.2619
15456W        W31640   1.217  19.191  11.821  0.0614  0.0065 -0.5364
15457W        W31641  17.126  14.188   0.322  0.1245 -0.0425  0.1727
15458W        W31642   3.850   5.772  13.528  0.0373  0.1172  0.2128
15459W        W31643   5.119  15.266   4.269  0.0539 -0.0761  0.0618
15460W        W31644   3.997   5.161   3.710 -0.2272 -0.3783  0.2507
15461W        W31645  17.563   4.938   4.509 -0.2151 -0.2476  0.0304
15462W        W31646   2.075  14.874  12.330  0.4193 -0.3663  0.1534
15463W        W31647   1.305   0.846  11.355  0.1697  0.3117 -0.0616
15464W        W31648  10.074  11.853   3.912 -0.0314  0.1019  0.0365
15465W        W31649   4.184  14.910   1.323  0.0815  0.0328  0.1298
15466W        W31650   2.781   3.466   4.216  0.0090  0.2046  0.1981
15467W        W31651  19.128  10.054  13.472 -0.0379 -0.1253  0.0202
15468W        W31652  14.009  14.790   1.429  0.1013 -0.0622  0.3034
15469W        W31653  18.978  16.711  13.807  0.2725  0.0025 -0.1429
15470W        W31654  17.536  18.420   5.365 -0.0576  0.4148 -0.3849
15471W        W31655   5.743   6.336  13.040 -0.0750  0.1185  0.0223
15472W        W31656  10.377  17.680   0.059  0.0947 -0.0043  0.0226
15473W        W31657  18.161  10.276  13.807 -0.2396 -0.0528  0.3556
15474W        W31658   4.082   1.288   0.654  0.1542  0.1248  0.0182
15475W        W31659   0.675  13.087   1.151  0.1861  0.0510 -0.2022
15476W        W31660   2.454   0.018  12.163 -0.1745 -0.1266 -0.3025
15477W        W31661   4.569   7.687  12.093 -0.0737  0.0177 -0.0376
15478W        W31662   0.389   7.295   3.417  0.0547 -0.0678  0.0148
15479W        W31663  12.724   3.609  13.422 -0.0769 -0.0741  0.0506
15480W        W31664   6.036   6.758   4.770 -0.0169 -0.0293  0.2103
15481W        W31665   5.159  13.217   3.950 -0.0082 -0.0554 -0.0564
15482W        W31666   4.666   9.208  13.103  0.1880  0.2888 -0.1764
15483W        W31667  16.126  15.060   2.932  0.0451 -0.2720  0.2172
15484W        W31668  10.201   8.333  13.585  0.0646  0.1050 -0.1675
15485W        W31669   0.572  18.557   0.790 -0.2354  0.0976 -0.1211
15486W        W31670   2.208   5.192   4.169  0.2319 -0.2190  0.0682
15487W        W31671   6.132   3.109   4.899  0.0873 -0.2460 -0.1126
15488W        W31672   7.600  17.781  10.886  0.1241  0.3224  0.0151
15489W        W31673  12.573   1.261  14.746 -0.4106  0.1114 -0.0064
15490W        W31674  12.877   4.746   4.038 -0.0552 -0.3863 -0.3975
15491W        W31675  19.066  13.820  11.992 -0.0695 -0.2158  0.2143
15492W        W31676   6.667   3.964  14.653  0.0727 -0.2173  0.0754
15493W        W31677  14.799  17.378  12.671 -0.1787 -0.0797 -0.0388
15494W        W31678   4.951  16.610   2.842 -0.0088 -0.3041 -0.2804
15495W        W31679   4.480  18.463   4.142  0.3600 -0.3653 -0.3812
15496W        W31680   0.830   3.640  11.590  0.0948  0.0971 -0.2055
15497W        W31681   6.741  18.441  11.186 -0.1769  0.2011 -0.0078
15498W        W31682   9.068   7.694   1.683  0.1373  0.0186 -0.0005
15499W        W31683   4.345   5.992  12.848  0.4372  0.1358  0.0072
15500W        W31684   8.256  15.596   4.601 -0.0850  0.0623 -0.1305
15501W        W31685   8.713  16.125   1.610  0.2717 -0.2670  0.2367
15502W        W31686  16.671   7.778  10.989  0.0292 -0.1322 -0.2082
15503W        W31687   8.044   8.384  14.905  0.0109  0.0999 -0.2964
15504W        W31688  16.895   3.675   1.171  0.0503  0.2333 -0.0224
15505W        W31689  13.438  18.744   0.006  0.1255 -0.0343 -0.1974
15506W        W31690   8.122  10.308   2.706 -0.1528  0.4117  0.0116
15507W        W31691   5.870  11.598  12.722 -0.1219  0.0760 -0.0281
15508W        W31692   8.945  18.918  11.335  0.0249 -0.3425 -0.1845
15509W        W31693  17.150  17.942  12.070 -0.2913 -0.4812  0.1866
15510W        W31694  12.215   9.764  12.035  0.6189  0.0862 -0.1756
15511W        W31695  12.563  17.709   3.432  0.1970  0.3386 -0.0361
15512W        W31696  17.639  15.861   3.620 -0.0371 -0.0916 -0.2176
15513W        W31697   3.616   0.851   3.725 -0.1761  0.1110  0.2025
15514W        W31698  13.807  17.757  12.433 -0.2191 -0.0882  0.1233
15515W        W31699   2.190  14.606   3.185 -0.0910 -0.1166  0.1017
15516W        W31700   3.527  14.744   0.607  0.0927 -0.1492 -0.1486
15517W        W31701   7.407  18.935   0.979 -0.2595 -0.0667 -0.0332
15518W        W31702  19.282   1.568  13.425  0.1038 -0.5033  0.0331
15519W        W31703  17.655   8.014  14.182 -0.0892  0.0008 -0.3055
15520W        W31704  13.436  14.312  10.086 -0.2386 -0.2634  0.1592
15521W        W31705  11.895  11.573   2.790  0.1051 -0.0712  0.0174
15522W        W31706  15.307  12.900  14.161  0.0699  0.0632 -0.0636
15523W        W31707   4.037   0.665  10.174 -0.0157 -0.1790  0.2173
15524W        W31708   1.571   9.021   3.741 -0.1171  0.0909  0.2194
15525W        W31709  10.899   5.316   3.561 -0.0157  0.3050  0.1567
15526W        W31710  13.537   7.852   3.672  0.0501  0.1490 -0.2034
15527W        W31711  17.063  11.384  12.293 -0.1168  0.0634 -0.2776
15528W        W31712   1.787   6.643  14.190  0.3322  0.0020  0.1032
15529W        W31713   3.527  12.693  13.278 -0.1289 -0.1427 -0.1889
15530W        W31714   2.138  15.006   1.841 -0.0612  0.1683 -0.2512
15531W        W31715  18.816  18.089  12.243  0.0117  0.1232  0.1445
15532W        W31716  18.110  14.201  12.081 -0.0029  0.1517  0.4128
15533W        W31717  18.920  11.466  10.390  0.1958 -0.0098  0.0764
15534W        W31718  18.573   8.693   3.101  0.1637  0.2012  0.1252
15535W        W31719  12.847   9.117   4.346  0.1113 -0.1312  0.1384
15536W        W31720   7.491  12.417   1.787  0.1891 -0.1221  0.1141
15537W        W31721  16.215  17.572  12.059  0.1335 -0.0575  0.0415
15538W        W31722   9.304   7.401  14.845  0.0596  0.0978  0.1431
15539W        W31723  12.336   4.071   9.647  0.0475 -0.0235 -0.4144
15540W        W31724  13.671   6.843  14.006 -0.3659  0.5058 -0.1441
15541W        W31725   5.197  15.131  11.812 -0.0221  0.3497 -0.0078
15542W        W31726   6.139   0.718  12.192  0.0285  0.0599  0.2162
15543W        W31727  18.013  13.029  10.426 -0.2363 -0.2755  0.2475
15544W        W31728  17.408   0.700  13.564  0.3991 -0.0578 -0.1327
15545W        W31729   6.532   1.734  11.208  0.0260 -0.1212  0.1985
15546W        W31730  11.485   2.631   2.711 -0.0635  0.1521  0.2420
15547W        W31731   0.653  18.387  11.253 -0.0289  0.1028 -0.1011
15548W        W31732   0.932  11.925   1.757 -0.1578 -0.0627 -0.0458
15549W        W31733  12.634   5.812   2.139  0.2230  0.2192 -0.0032
15550W        W31734  11.959   3.425   3.346 -0.2636  0.0542  0.1764
15551W        W31735   3.348  11.019  13.502 -0.0826  0.2580 -0.2034
15552W        W31736   8.586   1.831  13.247 -0.2956 -0.1400 -0.0096
15553W        W31737   4.951   5.928  12.115 -0.1435 -0.0336 -0.1420
15554W        W31738  12.064  16.378  13.851  0.1980 -0.1875 -0.0409
15555W        W31739   1.262   2.300  14.695  0.1000  0.0509  0.2164
15556W        W31740   5.013   4.256  12.941 -0.2544 -0.1051  0.0151
15557W        W31741  15.159   7.703  11.505 -0.0713 -0.0115 -0.1516
15558W        W31742   1.451   7.244  10.003  0.0723 -0.0694 -0.2687
15559W        W31743   7.147  16.098   2.618  0.0999  0.1771  0.1375
15560W        W31744  12.853   8.499   0.362 -0.1134  0.4254  0.0070
15561W        W31745  14.624   1.307   1.698  0.1985 -0.3381  0.1652
15562W        W31746   8.038  13.361  12.959 -0.1166 -0.1846  0.4617
15563W        W31747   4.832   5.402   5.221  0.1633 -0.2426 -0.2020
15564W        W31748  18.202  13.193   0.371  0.0506  0.0392  0.4537
15565W        W31749  16.301   9.395  12.785  0.2658  0.0770  0.2005
15566W        W31750  18.619  17.467   2.568  0.0922 -0.1014 -0.1592
15567W        W31751  15.246  12.066  13.795  0.0079  0.1675  0.0083
15568W        W31752   6.147   3.768  13.437 -0.0632 -0.2709 -0.0558
15569W        W31753  14.597  17.555  14.436  0.1403  0.3115 -0.1745
15570W        W31754   8.338  15.779  12.575 -0.0381 -0.0010 -0.1130
15571W        W31755   5.304  16.889  13.576  0.1581 -0.0260 -0.0380
15572W        W31756  11.066   0.727   0.616  0.1724 -0.0882 -0.1204
15573W        W31757  13.241   6.829  10.928  0.1513  0.1574 -0.3314
15574W        W31758  13.262  11.669   4.866  0.0613 -0.2281  0.2271
15575W        W31759  10.209  17.214  10.879  0.0141 -0.0718 -0.0259
15576W        W31760  11.986   1.281  14.698  0.1708  0.0683  0.0899
15577W        W31761   6.229   2.982   3.452 -0.2787 -0.2451 -0.0061
15578W        W31762  15.102   0.993  11.496  0.0188  0.1483 -0.1830
15579W        W31763   7.072   0.459  13.211  0.0039 -0.3118  0.3646
15580W        W31764   2.591   8.982  11.732  0.0006 -0.3579  0.0156
15581W        W31765  13.564  18.540  11.262  0.0174 -0.0113 -0.0676
15582W        W31766  15.986  19.386  11.896 -0.1969  0.2045  0.0878
15583W        W31767  15.327  13.189  12.831 -0.1267 -0.2902  0.0797
15584W        W31768   8.272   7.507   3.238 -0.0140  0.3035 -0.0122
15585W        W31769   6.110  10.775   2.561 -0.1498 -0.2852  0.0930
15586W        W31770  11.723   4.960  12.473  0.1120 -0.0276 -0.5624
15587W        W31771   4.184   2.861   0.037 -0.0270 -0.0008 -0.0180
15588W        W31772   0.958  17.873   1.692  0.0786  0.1639  0.0537
15589W        W31773  16.875  16.258   3.695  0.1551  0.2155 -0.1727
15590W        W31774  10.271  18.091  14.611  0.1840 -0.1035  0.1562
15591W        W31775  12.641   2.701  10.337 -0.2396  0.3893  0.3148
15592W        W31776  17.072  18.199   0.352  0.2822  0.0585  0.0998
15593W        W31777  17.806  15.206  14.542  0.3739 -0.0076  0.0754
15594W        W31778   0.742   8.470  11.695 -0.0365  0.0684  0.3085
15595W        W31779   6.178   7.369   0.257 -0.0984 -0.1132 -0.2240
15596W        W31780  18.540  10.172  14.810 -0.0829  0.0596  0.0723
15597W        W31781   6.362   6.121   0.573 -0.1354  0.1171  0.0983
15598W        W31782  15.464  16.914   2.914 -0.2741  0.1017  0.3925
15599W        W31783  14.411  17.028  12.001  0.1180  0.1216  0.2851
15600W        W31784  14.320   8.284  12.572  0.1062  0.2842  0.4505
15601W        W31785   5.933   5.059  12.320  0.1993 -0.1193  0.1441
15602W        W31786   4.668  10.099   1.214 -0.2063 -0.3368 -0.1132
15603W        W31787   2.043  15.486   1.683 -0.2031 -0.1269 -0.3442
15604W        W31788  13.696   5.478  13.205  0.1027  0.3435  0.0989
15605W        W31789  16.835   4.099  11.846 -0.1678  0.2545  0.0520
15606W        W31790  13.458   3.460   1.281 -0.0315  0.1072  0.1113
15607W        W31791   5.728   9.522  13.724 -0.0145 -0.1867 -0.1705
15608W        W31792  12.925   2.318  11.271 -0.1741  0.4276  0.3568
15609W        W31793  18.172  19.125  12.300 -0.1812  0.1296 -0.1209
15610W        W31794   2.868  12.223   6.095 -0.0949  0.0716 -0.1996
15611W        W31795   0.828  11.683   5.276  0.0929  0.3888 -0.1578
15612W        W31796   6.496   5.048  14.614 -0.1480  0.1931  0.0215
15613W        W31797   2.044   3.828   5.071 -0.0769 -0.1583 -0.0189
15614W        W31798   9.807   8.269  12.075  0.0346 -0.0849  0.2951
15615W        W31799  15.114   3.375   2.797 -0.0151  0.1883 -0.1839
15616W        W31800   8.013   8.522   4.780  0.1030  0.0024 -0.3787
15617W        W31801   1.303  14.400   5.308 -0.1237  0.0653 -0.0923
15618W        W31802  15.086  14.864  14.738 -0.3209  0.1943 -0.1006
15619W        W31803  14.428   9.345   4.388  0.1507  0.1673  0.1341
15620W        W31804  14.867   6.713   4.241  0.1301 -0.1449 -0.0699
15621W        W31805   5.199   9.205   2.871  0.0127  0.0587 -0.2767
15622W        W31806   8.658  15.502  13.815  0.1541 -0.0366  0.1069
15623W        W31807  15.721  17.717   2.340 -0.0094 -0.0350  0.1288
15624W        W31808   1.669  11.330  11.842 -0.0020 -0.0848  0.0010
15625W        W31809   2.201   9.320   2.151 -0.0780  0.2275  0.2196
15626W        W31810  14.310   9.207  14.659  0.2152  0.3057 -0.1090
15627W        W31811  10.450   4.294  12.474  0.0348 -0.1083 -0.3366
15628W        W31812   1.125  11.751  12.488  0.0551 -0.1890 -0.1488
15629W        W31813   0.022  18.236   1.631 -0.2212 -0.1207 -0.1705
15630W        W31814   8.673  19.363   1.602 -0.0647  0.3947  0.0273
15631W        W31815   3.630   6.820   6.315 -0.0457 -0.5135  0.0746
15632W        W31816   6.714   4.993   3.322  0.0648  0.1671  0.1492
15633W        W31817   0.480  16.232   4.604 -0.0833 -0.0585 -0.0009
15634W        W31818   7.208  18.709   0.568  0.1922 -0.0206  0.0651
15635W        W31819  15.208   5.477  14.194  0.1259 -0.3059  0.2936
15636W        W31820  13.437  12.298   2.527  0.0839  0.0390 -0.2058
15637W        W31821  17.839  16.436   9.253 -0.0188 -0.2265  0.2439
15638W        W31822   2.813  10.452   5.889  0.0047  0.1996 -0.2482
15639W        W31823  16.220   2.378  13.323 -0.2019 -0.1982  0.1524
15640W        W31824  17.030   6.017  10.330 -0.1904 -0.1600 -0.0109
15641W        W31825  16.163  13.406   3.639  0.2048  0.5566 -0.0448
15642W        W31826  17.856   3.230   0.982 -0.4761  0.2005 -0.0107
15643W        W31827   7.550  15.890  13.058 -0.1177  0.3711 -0.1840
15644W        W31828   0.775  12.227   1.343  0.1779  0.2243  0.1940
15645W        W31829  12.643  14.875   0.497 -0.2867  0.2312  0.2992
15646W        W31830  10.082   5.223   0.982 -0.1638  0.1408  0.1767
15647W        W31831   7.980  15.203   4.727  0.1770 -0.0697  0.1095
15648W        W31832  14.797   7.661  12.416 -0.0910  0.1649 -0.0579
15649W        W31833   5.080  11.687   5.202 -0.5180 -0.0011  0.1407
15650W        W31834   8.129  11.299   4.175  0.1966  0.0499 -0.1914
15651W        W31835   7.367  11.775   1.382  0.1634  0.1691  0.3581
15652W        W31836  14.658   6.132   2.596  0.6057 -0.1603 -0.3181
15653W        W31837  17.595   0.698  12.346  0.0453 -0.0674  0.3222
15654W        W31838  13.961  17.398  11.230 -0.1991  0.0368 -0.3641
15655W        W31839  11.335   7.169   0.376  0.0064  0.0767 -0.0509
15656W        W31840  15.398   8.209   2.799 -0.0838 -0.0240 -0.2728
15657W        W31841   1.853  12.532   4.600 -0.0702  0.1189  0.0959
15658W        W31842  12.125   5.820   4.094  0.0702 -0.0276  0.0170
15659W        W31843  15.789  13.240   1.456  0.0989 -0.0471  0.0038
15660W        W31844  17.512  11.950   4.367 -0.0706 -0.0338 -0.0704
15661W        W31845   6.396  15.090  11.340 -0.1180 -0.3275  0.0093
15662W        W31846   8.736  11.897   0.074  0.3119  0.4268  0.0918
15663W        W31847  14.540   4.299   3.176 -0.0573  0.1225  0.0150
15664W        W31848   1.004   8.933  11.995  0.4196  0.3181  0.2740
15665W        W31849   6.078  18.139  13.296 -0.0219 -0.0862  0.0160
15666W        W31850  12.290  19.313   3.217 -0.0199  0.0776 -0.0207
15667W        W31851   6.473  12.858   3.017 -0.0377 -0.1146  0.3780
15668W        W31852  16.909  16.383  14.351  0.0558  0.1716 -0.0079
15669W        W31853   8.502   8.162  14.859 -0.1639  0.1233 -0.0208
15670W        W31854  16.649  15.744   3.848 -0.1886 -0.0466  0.2795
15671W        W31855  17.675   7.524   1.907  0.2369 -0.0106  0.0706
15672W        W31856   5.639  14.568  13.188  0.2483  0.0073 -0.2891
15673W        W31857   1.599   6.371  12.345 -0.1378  0.0588 -0.0716
15674W        W31858   7.241  19.337   2.623 -0.0512  0.2002  0.3274
15675W        W31859  13.848   6.879   3.249 -0.1654  0.0310  0.0667
15676W        W31860   4.135  19.183   1.242 -0.1781 -0.2991  0.0121
15677W        W31861  10.448  19.206   9.103  0.0429  0.0723  0.1183
15678W        W31862  18.863  13.821   1.115  0.1074 -0.0434  0.2714
15679W        W31863   3.872  18.236  13.672 -0.5399 -0.0800 -0.0860
15680W        W31864   4.301  16.098  13.592  0.0467 -0.1780  0.0829
15681W        W31865   1.171   1.027   5.576 -0.3941  0.4071  0.1526
15682W        W31866  15.763  14.786  11.420 -0.1286 -0.1713  0.0019
15683W        W31867   9.356  16.716   5.184 -0.0503 -0.0917 -0.0235
15684W        W31868   2.276  17.607   0.622 -0.0721  0.0311 -0.1057
15685W        W31869   2.210   7.557   0.526  0.3485 -0.0573 -0.0038
15686W        W31870  18.639  18.862   4.082  0.0718  0.0070  0.1912
15687W        W31871   1.397  11.129   2.775  0.0449  0.1579  0.0594
15688W        W31872  16.047  11.731  11.473  0.1154 -0.0863 -0.0667
15689W        W31873   7.069  12.842  11.979  0.1290  0.0892  0.2130
15690W        W31874  17.173   5.229   4.192 -0.0822  0.1653 -0.0410
15691W        W31875   1.111  12.921   4.404  0.0989  0.0448  0.0878
15692W        W31876   8.173   3.730  11.899  0.3813 -0.0293 -0.0970
15693W        W31877   2.472  12.061  13.965 -0.0570  0.0217 -0.2028
15694W        W31878   2.709  16.698   4.503 -0.1802 -0.0453  0.3292
15695W        W31879   7.332  18.106  10.065 -0.0970 -0.0062  0.1272
15696W        W31880  13.148  18.402  14.746 -0.0354 -0.0065 -0.0653
15697W        W31881   3.579   3.487   5.469 -0.1656 -0.0657  0.0803
15698W        W31882   4.247  18.086  13.333  0.2278  0.0091 -0.4193
15699W        W31883   4.384  15.024  11.172  0.0357  0.0267 -0.0890
15700W        W31884   8.026  12.933   1.247 -0.0896 -0.0633  0.1668
15701W        W31885  11.676  14.339   2.123  0.2856 -0.0093  0.1500
15702W        W31886  10.258  15.539  11.269  0.0648 -0.2632 -0.2010
15703W        W31887   9.713   8.528   3.958  0.0441  0.0095 -0.0171
15704W        W31888   3.999  10.605   2.580 -0.0997 -0.0510 -0.0387
15705W        W31889  12.723   7.485   3.554  0.1352 -0.1325 -0.0434
15706W        W31890   1.636  11.034  12.379  0.3521  0.4315  0.1753
15707W        W31891  12.070   9.450   3.316 -0.1992  0.1396 -0.0275
15708W        W31892   6.422   3.225  12.222 -0.1153  0.1767  0.2579
15709W        W31893   7.135   8.673   4.640 -0.3830 -0.1191 -0.3182
15710W        W31894   0.968   2.578   1.589  0.0604  0.4432 -0.0125
15711W        W31895  17.977   7.053   3.428 -0.1687  0.2140 -0.3340
15712W        W31896   8.898  18.389  12.659 -0.2432 -0.4292 -0.2163
15713W        W31897   3.597  17.195   4.538  0.0519 -0.0365  0.1427
15714W        W31898  15.488  13.065   3.037 -0.1370 -0.1470 -0.1049
15715W        W31899   4.259  16.557   5.250 -0.3161  0.2212 -0.2441
15716W        W31900  16.842   9.896   1.202 -0.0437 -0.1807 -0.1094
15717W        W31901   1.940  12.609   1.900  0.1000  0.1803  0.0374
15718W        W31902  11.174  12.489  14.222  0.1914  0.0488 -0.0321
15719W        W31903  16.052   5.332   1.718 -0.1363  0.3387  0.4779
15720W        W31904  16.647  14.735   4.084  0.0905 -0.0452 -0.0096
15721W        W31905  12.977   8.997   3.346  0.1288 -0.1104  0.1270
15722W        W31906  15.410   8.590   0.584 -0.0553 -0.2672 -0.1205
15723W        W31907  10.694   2.199   4.131  0.0423  0.2381  0.0564
15724W        W31908   0.269  12.404  11.003  0.5761  0.0204 -0.0255
15725W        W31909   7.242   2.297  12.414 -0.1848 -0.0082 -0.1381
15726W        W31910  14.917  15.639  10.534  0.1938  0.1541  0.0206
15727W        W31911  12.264  16.443  14.717 -0.3143  0.0612 -0.2414
15728W        W31912   3.065  15.991   1.462 -0.2311 -0.0035  0.1682
15729W        W31913  16.180   8.203  13.439 -0.0510 -0.0724 -0.2650
15730W        W31914  18.607  17.290  14.759  0.0149 -0.2710 -0.1369
15731W        W31915  17.548   0.297   1.839  0.0433  0.3328 -0.1390
15732W        W31916   0.900   4.623  13.642  0.0792 -0.3340  0.4732
15733W        W31917   8.555  17.246  10.164 -0.1038 -0.2100  0.1011
15734W        W31918   2.185  17.116   5.632  0.0290 -0.0498 -0.0059
15735W        W31919  14.015   6.393  12.686 -0.1004  0.2540  0.0236
15736W        W31920  10.545  12.022  12.206 -0.1643  0.1644  0.1435
15737W        W31921   5.389  11.925   1.730 -0.3391  0.0857 -0.1005
15738W        W31922  13.533   6.583  12.713 -0.1057  0.1300 -0.0806
15739W        W31923  13.003  13.575   0.621 -0.1812  0.1021  0.1347
15740W        W31924  14.376   2.089   1.905 -0.1060  0.0046 -0.1507
15741W        W31925   7.552  12.365   5.608 -0.3444 -0.1384 -0.0792
15742W        W31926  10.699   8.525   5.055 -0.0009 -0.3248 -0.3114
15743W        W31927  16.703  13.692   2.267 -0.1286 -0.5207  0.0739
15744W        W31928  19.263   8.279   0.845 -0.0022 -0.0449  0.0268
15745W        W31929   7.411   0.129  10.323 -0.0583 -0.2113 -0.1758
15746W        W31930   8.496  10.512  14.532 -0.0156  0.0425 -0.0590
15747W        W31931   7.822  16.608  12.562 -0.2126  0.3180 -0.0720
15748W        W31932  10.666  12.443   0.586 -0.0426  0.0387 -0.0865
15749W        W31933  14.376  10.962  10.746 -0.0306 -0.2029 -0.0687
15750W        W31934  11.489  11.058   1.987 -0.1586  0.3446  0.0490
15751W        W31935  12.029  10.947  11.807  0.2412  0.2297 -0.2865
15752W        W31936  10.382   1.172  12.933  0.0194 -0.0112 -0.2085
15753W        W31937   9.332  11.990  10.692  0.1647 -0.3015  0.2620
15754W        W31938  17.370   5.343   3.513  0.1397  0.1578  0.1839
15755W        W31939   5.921   4.003   1.087 -0.1429 -0.2683 -0.1169
15756W        W31940  18.441  17.413  10.108  0.1069 -0.2197 -0.2989
15757W        W31941   4.904  18.995   0.488  0.0792  0.1793  0.5277
15758W        W31942   0.526  15.763  13.709 -0.0125 -0.3759 -0.1014
15759W        W31943   9.464  16.183   3.646 -0.2135 -0.0620 -0.0260
15760W        W31944   5.655  16.825  14.640  0.2096  0.0062  0.0619
15761W        W31945   9.082   2.094   4.859 -0.0634  0.0869 -0.5309
15762W        W31946   5.855  15.640   4.688  0.1905  0.0147 -0.2883
15763W        W31947   2.665  14.448   4.945  0.1661 -0.2245  0.1590
15764W        W31948  13.514  18.153  11.553 -0.1041  0.1225 -0.1967
15765W        W31949   4.886   3.280  13.847  0.0464  0.0936 -0.2627
15766W        W31950  13.628   2.626   1.871 -0.0011 -0.1604  0.2284
15767W        W31951   0.735   8.025   4.923 -0.1252 -0.1118  0.0505
15768W        W31952   6.571   0.654  10.373  0.0932 -0.2403 -0.1860
15769W        W31953  19.274  18.943  12.046 -0.0379 -0.2241 -0.1138
15770W        W31954  12.189   8.482   3.303  0.0951  0.1538  0.1863
15771W        W31955  13.008   2.360   1.386  0.3517  0.0258  0.1252
15772W        W31956   2.035   3.282  10.578  0.1017  0.0263 -0.2029
15773W        W31957   5.995  13.814   4.157  0.0690 -0.0897  0.2261
15774W        W31958  18.643  12.186   2.450 -0.0576  0.0044  0.0557
15775W        W31959  19.070  14.791  11.971  0.1915  0.0552 -0.1229
15776W        W31960   6.735  12.717   4.693  0.0089  0.0079 -0.1254
15777W        W31961   2.428   1.986   9.831  0.0556  0.0147 -0.1762
15778W        W31962   2.666  14.480   5.571  0.1788  0.0093 -0.0289
15779W        W31963   6.066   7.502   4.154  0.1925  0.0565  0.0120
15780W        W31964   7.659  10.530   1.539 -0.0883 -0.1247  0.1522
15781W        W31965  18.221   5.446  12.482  0.1212  0.0783 -0.1057
15782W        W31966   3.596   5.336  10.924 -0.1378 -0.0469  0.0243
15783W        W31967  18.847  10.547  14.678  0.1207  0.0235 -0.3398
15784W        W31968  13.793  13.786   2.311 -0.2242  0.1045  0.0655
15785W        W31969   0.077   9.041   1.580 -0.0482 -0.0704  0.0134
15786W        W31970   8.228   3.538  13.038  0.0328  0.2050 -0.2879
15787W        W31971   9.313   4.482   0.365 -0.0413  0.2239  0.2189
15788W        W31972   5.888  14.568   3.978 -0.2169 -0.0727 -0.1552
15789W        W31973   1.039   5.671  12.442 -0.2503 -0.0802 -0.1683
15790W        W31974  16.019   9.030   4.683  0.0154 -0.0624  0.1070
15791W        W31975  13.417  18.413  14.057 -0.0799 -0.1170  0.2804
15792W        W31976  19.030   7.813   0.704 -0.1654  0.0258  0.0070
15793W        W31977  12.765   7.918  13.873 -0.0846  0.0711  0.0337
15794W        W31978  14.633  18.470   1.609  0.2183  0.1035  0.3321
15795W        W31979  17.799   1.333  10.672 -0.1267  0.0787 -0.4528
15796W        W31980  17.685   7.637   3.980  0.0321  0.5339  0.1511
15797W        W31981  10.067   5.592  10.738  0.1028 -0.3986  0.0317
15798W        W31982  14.453  10.222   4.052 -0.0705 -0.1229  0.1560
15799W        W31983  14.558  13.205  12.682  0.1962  0.3682 -0.0805
15800W        W31984  10.424  17.808   5.467 -0.0599 -0.1963  0.1725
15801W        W31985   2.596   4.205  14.670 -0.0636  0.2514 -0.2067
15802W        W31986   4.429   3.499  13.550  0.1207 -0.1806 -0.2249
15803W        W31987   3.381   0.851   1.997 -0.1402 -0.3167  0.1032
15804W        W31988   4.071   0.801  10.716 -0.1765 -0.1561 -0.0465
15805W        W31989  13.540  10.620  10.323  0.0143  0.3713  0.1828
15806W        W31990  12.140  18.846  14.537 -0.1014  0.3029 -0.0828
15807W        W31991   4.525  17.661   3.243  0.2944  0.0463 -0.1966
15808W        W31992  16.193  14.650   2.651  0.2895  0.0745  0.3000
15809W        W31993   6.696  10.728   3.301  0.1969  0.3068 -0.0197
15810W        W31994  16.183   3.277  14.466 -0.0966  0.0917  0.3778
15811W        W31995  12.452   4.100   3.903 -0.2994 -0.0775 -0.0600
15812W        W31996   5.415  17.639  11.553 -0.2094 -0.1290 -0.1946
15813W        W31997   3.750  19.327  12.641 -0.2759 -0.0217 -0.3318
15814W        W31998  10.227  15.955   3.647  0.1371 -0.2025  0.1845
15815W        W31999   2.980  18.004  13.824 -0.4659  0.2729  0.0632
15816W        W32000  14.355   7.195  13.175 -0.2157  0.1866 -0.1949
15817W        W32001   8.748   5.786  12.258  0.0198  0.1477 -0.1503
15818W        W32002   0.607  16.985   5.550 -0.0804 -0.1631  0.1175
15819W        W32003   1.784   1.549  13.499 -0.2823  0.2444 -0.3255
15820W        W32004   8.359   5.613  13.321 -0.1937  0.0653  0.1841
15821W        W32005   8.052   7.161   2.772 -0.1463 -0.0602  0.0845
15822W        W32006  15.781   9.676   4.579 -0.1453 -0.0322  0.0191
15823W        W32007  14.421  14.150  13.471 -0.0640  0.1486 -0.1610
15824W        W32008   8.325  15.268  10.621 -0.3273 -0.1377  0.1955
15825W        W32009   7.681   1.073   4.423 -0.0411  0.1968  0.1688
15826W        W32010   0.407   1.492  13.352 -0.0179 -0.0076 -0.0110
15827W        W32011   5.704   7.993  12.840 -0.0561  0.2424 -0.1162
15828W        W32012  10.823  16.659   3.109 -0.2482 -0.0760 -0.2194
15829W        W32013   4.460  16.471  12.753  0.0591 -0.0082 -0.0242
15830W        W32014  10.318  14.482   2.713  0.0744  0.2761  0.2084
15831W        W32015  14.330   8.311   0.024  0.0499  0.1355 -0.0180
15832W        W32016  10.094   8.703   9.390 -0.0825  0.2168  0.3834
15833W        W32017  19.360   9.797   5.034  0.0750  0.3103 -0.0827
15834W        W32018  17.175   2.847   9.950  0.2592 -0.0797  0.1183
15835W        W32019   7.531   9.088   3.424 -0.2752  0.1148  0.0741
15836W        W32020   1.329   4.483   3.456  0.4239 -0.2049 -0.1112
15837W        W32021  13.271   5.790  13.175  0.1604  0.1952  0.0562
15838W        W32022   4.088  19.344   4.297  0.1932  0.3717 -0.0671
15839W        W32023   9.057  10.119  12.873  0.1640 -0.2806 -0.0536
15840W        W32024   5.998  14.287  14.629 -0.0017  0.2743 -0.2847
15841W        W32025   7.050   7.548   1.197  0.0619 -0.1007  0.0447
15842W        W32026  17.582  10.526   3.701  0.3861  0.2390  0.0337
15843W        W32027   1.004  10.610  11.588 -0.1116 -0.5258 -0.1540
15844W        W32028  13.738  16.952   4.185 -0.1068 -0.3114  0.4365
15845W        W32029   6.248   3.538   2.582 -0.1852 -0.1121  0.3991
15846W        W32030  12.926  10.200   1.565  0.0273  0.0253 -0.2316
15847W        W32031  18.529  15.742  12.838  0.3037  0.0150  0.1274
15848W        W32032   6.630   9.168   2.730 -0.0104 -0.0082  0.2861
15849W        W32033  13.570   4.057  13.062  0.3150  0.3158  0.1714
15850W        W32034  18.877  12.483   5.043  0.0485 -0.0720 -0.0651
15851W        W32035  15.474  11.962  14.647  0.0980 -0.0349  0.0059
15852W        W32036   7.919  17.254  14.726 -0.1938  0.1071  0.0665
15853W        W32037  16.185  16.879   0.317  0.0987  0.1343 -0.0392
15854W        W32038  17.932  13.224  11.348  0.0918  0.2972  0.0539
15855W        W32039   4.950   5.391   3.747  0.1449 -0.1794 -0.1009
15856W        W32040   2.665   1.200   4.780 -0.2020 -0.4862 -0.2521
15857W        W32041   3.224  13.168  14.559 -0.2182  0.1918  0.0351
15858W        W32042  10.390   7.819  10.420 -0.1228 -0.4438  0.0588
15859W        W32043  12.492  18.743   1.715 -0.2230 -0.0488 -0.0386
15860W        W32044   8.964   4.328  10.267  0.1660  0.2936  0.0588
15861W        W32045   1.684  18.349  14.408 -0.2966  0.0365  0.1290
15862W        W32046   2.114  14.183   3.701  0.2117  0.0403  0.1580
15863W        W32047  18.039  15.524   3.757  0.1888  0.0942  0.2872
15864W        W32048   8.356  15.170   4.229  0.0074  0.0116 -0.3921
15865W        W32049   8.737   6.782   3.140 -0.0342 -0.0606 -0.1520
15866W        W32050  15.661   9.950  11.075 -0.1594  0.2937  0.0657
15867W        W32051   0.583   8.400   1.664 -0.4109  0.0595  0.1600
15868W        W32052   4.795  12.216   2.959 -0.2892 -0.0311  0.1149
15869W        W32053  14.970  11.233  13.860 -0.0997 -0.0804 -0.1195
15870W        W32054   8.197   2.215  12.646 -0.2280 -0.0039  0.2817
15871W        W32055   8.621   3.789  13.206  0.2438  0.3046  0.1111
15872W        W32056  18.462  18.591  14.235 -0.0247 -0.1812 -0.0667
15873W        W32057   9.633   9.627  13.428  0.1113  0.0808  0.0203
15874W        W32058   2.391  17.416   1.878  0.0751 -0.1413 -0.1265
15875W        W32059  14.254   0.928   5.103 -0.0582 -0.1191  0.0267
15876W        W32060  18.113   5.081   5.239 -0.1512 -0.1138 -0.2129
15877W        W32061   5.457   9.510   3.257 -0.2696  0.1142  0.0502
15878W        W32062   0.312  13.968   2.567 -0.2670  0.0449 -0.2767
15879W        W32063   1.411  18.293  12.956  0.2324  0.3276  0.2572
15880W        W32064   6.925  15.774  10.999 -0.0792 -0.0385  0.0547
15881W        W32065  16.148  15.134  10.831  0.0364 -0.1890 -0.1491
15882W        W32066   1.931   8.291   1.598 -0.1911 -0.1307 -0.0687
15883W        W32067  15.818   8.607  13.880 -0.0448  0.0150  0.0777
15884W        W32068  10.845  18.964   4.460 -0.0774  0.1874 -0.2171
15885W        W32069   9.942   1.283   0.556 -0.0472 -0.1413  0.2508
15886W        W32070  14.727  18.891   1.857 -0.1548 -0.2018  0.1786
15887W        W32071  18.225  18.381  14.748 -0.0812 -0.1553  0.1231
15888W        W32072  15.997  15.600  14.544  0.1516  0.0724 -0.1889
15889W        W32073  12.174   3.609   4.263 -0.0876 -0.2591  0.0140
15890W        W32074  15.924  16.625   0.789  0.0361  0.4517  0.2229
15891W        W32075   2.236  11.592  13.300 -0.4879  0.0882 -0.0602
15892W        W32076  17.666   1.779  11.506 -0.0043  0.1598  0.1688
15893W        W32077   6.346  12.378   2.040 -0.0409 -0.0705  0.0196
15894W        W32078  15.762  17.422  11.759 -0.0689  0.2723 -0.0227
15895W        W32079   6.892  11.668   1.531 -0.1163 -0.0975  0.0056
15896W        W32080   0.704   6.527   2.304 -0.2337 -0.0010  0.2481
15897W        W32081  12.082  19.260  13.413 -0.0915 -0.3675 -0.0973
15898W        W32082   8.243   7.804   4.617  0.1423  0.0810  0.0960
15899W        W32083   9.585  19.218  13.981 -0.2079  0.2555  0.4695
15900W        W32084   7.930   8.655   9.787 -0.2333 -0.0685  0.2902
15901W        W32085  11.929  15.501   1.276  0.0669 -0.0768  0.0323
15902W        W32086   2.365  17.300  10.617  0.1266  0.2045  0.0167
15903W        W32087  16.971  10.997  14.570 -0.1620  0.2278 -0.0391
15904W        W32088   1.925   8.317   4.518  0.3657 -0.1562 -0.1667
15905W        W32089   0.905  12.896  14.309  0.1747  0.3378 -0.2834
15906W        W32090   3.623   8.837  14.611 -0.1300  0.0751  0.3762
15907W        W32091   2.550  17.005  10.197  0.0963 -0.0157 -0.1417
15908W        W32092  10.195  18.913  12.821 -0.1873 -0.0125  0.1750
15909W        W32093   2.903   8.628  13.674 -0.1053 -0.2099  0.0147
15910W        W32094  12.109  17.644   1.077  0.1327 -0.0611 -0.2515
15911W        W32095   9.590  13.890  11.682 -0.1774 -0.4940 -0.0888
15912W        W32096  10.772   8.532  12.430 -0.0521 -0.2534 -0.2941
15913W        W32097   0.731  14.486  13.757  0.2658  0.0461  0.2066
15914W        W32098  12.755   5.857  14.280 -0.1903 -0.1525  0.4858
15915W        W32099  17.642   7.798   5.085 -0.1402 -0.1065 -0.1382
15916W        W32100   0.063  14.975  13.132 -0.0282 -0.1675 -0.0230
15917W        W32101  14.646   6.905  12.891  0.2227  0.0877 -0.1264
15918W        W32102  10.223  10.446  12.297 -0.2240  0.2517 -0.1291
15919W        W32103   9.816   6.020   3.925  0.3224 -0.1198  0.0677
15920W        W32104   9.231   3.598   0.822 -0.2477 -0.1644  0.0605
15921W        W32105   6.575  16.335   2.795  0.0619 -0.0417  0.1708
15922W        W32106  15.898   0.493  10.434 -0.1376 -0.4417 -0.0764
15923W        W32107  16.858   9.456   0.963 -0.0887 -0.1707 -0.2811
15924W        W32108   3.221  10.618   3.037  0.0544  0.0350  0.0090
15925W        W32109  18.166   9.131  10.962  0.2349  0.1940  0.0938
15926W        W32110   1.464   9.820  13.168 -0.1502 -0.1822  0.2033
15927W        W32111  11.599   8.059   0.034  0.1448  0.1870 -0.1688
15928W        W32112   4.292  10.029   0.054 -0.3249  0.1324 -0.2377
15929W        W32113  16.019  12.474  14.927  0.2549  0.0891  0.1569
15930W        W32114   8.020  16.407   3.275  0.1091  0.1564  0.1707
15931W        W32115   4.279   6.903   4.487  0.1085  0.1352 -0.0037
15932W        W32116  15.346   3.623   0.020  0.2572 -0.0090 -0.2565
15933W        W32117  12.777   8.608  11.823 -0.1138  0.0791  0.1568
15934W        W32118  13.951  11.888   1.793 -0.1167 -0.1927  0.1058
15935W        W32119   4.495   0.755   3.264  0.4506 -0.1137  0.0426
15936W        W32120   6.604  18.493   4.810 -0.3556 -0.1651 -0.3643
15937W        W32121   3.872   0.579   4.993  0.3606  0.1149  0.1502
15938W        W32122   3.343   9.605   2.768 -0.1997 -0.0616 -0.1374
15939W        W32123   1.914   5.854   0.882 -0.0199  0.1319 -0.2825
15940W        W32124   8.844  11.372  14.733  0.1334  0.1913 -0.1598
15941W        W32125  14.012  10.487   4.992 -0.0804 -0.1549 -0.0276
15942W        W32126  12.562   7.651   0.760 -0.3566 -0.1454 -0.0160
15943W        W32127  12.363   7.851   3.641  0.1643  0.1715 -0.1959
15944W        W32128   9.181  18.647   4.463 -0.2841 -0.0451  0.0924
15945W        W32129  16.280  17.292  11.684 -0.0334  0.0618 -0.2338
15946W        W32130  16.810  12.408  10.937 -0.0061  0.0797  0.2245
15947W        W32131   5.026   8.466   3.026  0.2092  0.0560 -0.1434
15948W        W32132   9.811  14.230   3.532  0.0323  0.2792  0.0774
15949W        W32133   5.227   9.813   0.679 -0.0591  0.0944  0.1641
15950W        W32134   4.470   2.292   4.752  0.0519  0.2072  0.1418
15951W        W32135  15.343   5.091  10.653  0.0207  0.4003 -0.3808
15952W        W32136  12.362   7.399   0.370 -0.1884 -0.0385 -0.1041
15953W        W32137  17.480  11.769  11.014  0.0503  0.0479 -0.1872
15954W        W32138  16.700  10.404   1.199  0.0912  0.0103  0.4072
15955W        W32139   8.120   3.100   2.862  0.0529 -0.1175  0.0140
15956W        W32140   1.886  16.873  11.984  0.0779  0.3411 -0.4120
15957W        W32141  13.986   1.233   3.938 -0.0322  0.0978 -0.0592
15958W        W32142  13.768  17.789   9.926  0.0519  0.0376  0.0005
15959W        W32143  11.700   1.173  11.691 -0.0289  0.1489  0.0338
15960W        W32144   3.086  15.951   3.020  0.2781 -0.0210 -0.2811
15961W        W32145   8.077   8.130  10.235  0.0472  0.1960 -0.3265
15962W        W32146   4.855   4.428   3.950 -0.0663 -0.1670 -0.3494
15963W        W32147   7.950  11.560  10.998  0.0135  0.1074 -0.2724
15964W        W32148   6.005  15.373  13.728  0.2659  0.0070  0.0887
15965W        W32149   5.226   2.032   1.343 -0.2446  0.6148 -0.0090
15966W        W32150  11.935   1.808  13.442 -0.0563 -0.2369  0.0371
15967W        W32151   0.961  11.487  12.945  0.0778  0.0837  0.2088
15968W        W32152   0.605   1.756   1.345 -0.0649 -0.0633 -0.0780
15969W        W32153  16.502  16.050  13.739 -0.0403 -0.1254  0.1617
15970W        W32154  15.143  12.593  11.635  0.1317  0.1792 -0.1437
15971W        W32155  13.008  13.519  13.087 -0.4298 -0.4300 -0.1613
15972W        W32156  17.112   9.419   3.287  0.1573  0.1968  0.1040
15973W        W32157  10.615   3.368  14.801 -0.0883  0.2145 -0.0835
15974W        W32158  10.384  18.693   1.718  0.0830 -0.3138  0.0968
15975W        W32159   7.011   4.767   4.775 -0.0787  0.0488 -0.0047
15976W        W32160  12.663  13.519   0.227  0.0363 -0.2259  0.0320
15977W        W32161  10.772   2.126  10.388  0.3833  0.1600  0.0399
15978W        W32162  13.724  13.092   3.112 -0.1792 -0.2583  0.1875
15979W        W32163   7.166   0.497   0.870  0.1046 -0.1518 -0.0308
15980W        W32164  10.483  15.635   2.658 -0.0610 -0.0197  0.1510
15981W        W32165   3.652  17.527  12.260  0.2937  0.0553  0.0080
15982W        W32166   8.956  12.380  10.526 -0.2151  0.2836  0.0425
15983W        W32167  18.215   0.554   0.927 -0.0611 -0.0194 -0.0810
15984W        W32168  17.206   7.137  10.861 -0.0729  0.0137  0.0067
15985W        W32169   1.587   7.941   5.454  0.1324 -0.4174 -0.1041
15986W        W32170   5.344   5.923   4.819  0.5328 -0.0300 -0.1527
15987W        W32171   0.898  12.380  14.435 -0.1124  0.2355 -0.2081
15988W        W32172   1.096   0.897  13.426 -0.0489  0.2929 -0.0077
15989W        W32173   7.040   2.267  11.905  0.1798 -0.0988 -0.0346
15990W        W32174   2.366   4.282   2.057 -0.1012  0.1789  0.2287
15991W        W32175   7.674   3.291   4.189  0.1736 -0.2222 -0.2451
15992W        W32176   0.239  10.792  13.043  0.0056  0.1956 -0.1118
15993W        W32177  15.426  19.194  13.959 -0.0899 -0.1184  0.1029
15994W        W32178  18.906   9.490  10.566  0.0543  0.0001  0.2144
15995W        W32179   5.276   9.701  12.077  0.0126 -0.0138 -0.2582
15996W        W32180  17.262  12.578  12.212  0.0970 -0.1875 -0.0592
15997W        W32181  14.406   8.914  13.273 -0.0502 -0.3054 -0.2636
15998W        W32182   9.781  15.634   3.740 -0.0339 -0.0534  0.0144
15999W        W32183  16.112   5.966  13.884  0.2783  0.3704 -0.0791
16000W        W32184  11.643  17.528   1.395 -0.0397 -0.0035  0.3622
16001W        W32185  17.678  15.575   5.278 -0.1733  0.1091 -0.1127
16002W        W32186   5.961  18.153   3.071  0.1646 -0.1132 -0.1274
16003W        W32187   9.034  10.620  14.925  0.2056 -0.2144  0.4226
16004W        W32188  14.584  13.964  14.272  0.0704  0.0863 -0.0919
16005W        W32189   8.942  18.642   1.907  0.1061  0.0540  0.1188
16006W        W32190   6.802   7.293   5.827 -0.0715 -0.0454 -0.4305
16007W        W32191   5.829   5.010  14.625 -0.0550 -0.0005 -0.1551
16008W        W32192   0.095  17.526  11.810 -0.2093 -0.1514 -0.2246
16009W        W32193  16.818   1.274   4.993 -0.3276  0.4745 -0.3398
16010W        W32194   1.982   3.867   5.886  0.1685 -0.3455 -0.0306
16011W        W32195  18.435  14.190   3.031  0.1380 -0.2380  0.2012
16012W        W32196  11.544  18.004  14.602 -0.1850 -0.4184  0.1854
16013W        W32197  18.839  11.272  13.663  0.1790 -0.0595  0.0588
16014W        W32198  17.516   8.108  14.722  0.0413 -0.3064  0.0377
16015W        W32199   8.622   9.478   0.820 -0.1833 -0.2627 -0.0930
16016W        W32200  18.884  10.185   5.227  0.1302  0.1099 -0.0665
16017W        W32201   8.413  10.907  13.194  0.0269 -0.4116  0.4969
16018W        W32202   5.508  16.862   3.890  0.0917 -0.2283  0.0450
16019W        W32203  14.139  14.594  11.992  0.0139  0.0657 -0.3034
16020W        W32204  13.681   4.384   0.637 -0.0387  0.2234 -0.1450
16021W        W32205  10.670  16.932  11.456  0.1863 -0.0917 -0.0265
16022W        W32206   3.091   9.654   0.800  0.2528 -0.2044 -0.0092
16023W        W32207   6.715   5.729   4.282 -0.3601  0.0595  0.0872
16024W        W32208   1.175   9.546  12.579  0.0000 -0.4689 -0.0401
16025W        W32209  17.755   1.192  12.122 -0.3633  0.1176  0.0230
16026W        W32210   0.542   4.451  11.757  0.0506 -0.0316  0.1311
16027W        W32211  13.815  19.202   0.757  0.1198 -0.1435 -0.1906
16028W        W32212   8.328   7.058   0.111  0.2483 -0.0904 -0.1170
16029W        W32213   0.827   3.793  11.094 -0.0883  0.3288  0.1917
16030W        W32214  19.004  11.769   2.397  0.1049 -0.1841  0.1140
16031W        W32215   8.514  16.704  13.037 -0.0070  0.0302  0.1218
16032W        W32216  15.761  11.997  10.239  0.0243  0.3287 -0.0025
16033W        W32217  13.376  12.603  11.283  0.1374 -0.0489 -0.0546
16034W        W32218   1.410   6.441   1.743  0.1689 -0.0358  0.0497
16035W        W32219  14.120   5.642  12.906 -0.3789  0.2115 -0.0585
16036W        W32220  15.383   9.521  10.811  0.3070  0.1914 -0.0071
16037W        W32221  12.191   7.773   4.360 -0.1735  0.2651  0.0433
16038W        W32222   5.808  18.702   4.125 -0.0595 -0.1558  0.1603
16039W        W32223  15.949  13.787   1.150 -0.1344  0.3070  0.1710
16040W        W32224   3.028   0.115   0.384  0.3169 -0.2034  0.2008
16041W        W32225   2.293  10.180   0.241  0.1589 -0.0413 -0.3912
16042W        W32226  12.409   6.333   2.988  0.3179 -0.0530 -0.2394
16043W        W32227   9.413  16.946  10.560  0.0721  0.0793 -0.0929
16044W        W32228  11.616  16.033   1.485 -0.0625 -0.2362 -0.0000
16045W        W32229  14.086  14.420  13.211  0.2369 -0.0677 -0.2490
16046W        W32230  13.750  15.330  11.503  0.0124  0.3075  0.4049
16047W        W32231   5.040  10.196  13.648  0.0265  0.0250  0.0663
16048W        W32232   5.874  16.522   1.183 -0.1411  0.1607  0.1994
16049W        W32233   5.486  17.321  11.982 -0.1558  0.1341  0.1415
16050W        W32234  14.279   3.917   3.736  0.0579 -0.3784 -0.2436
16051W        W32235  19.195   3.898   4.416 -0.1670  0.1726 -0.0949
16052W        W32236  11.593   9.263  10.084 -0.1888 -0.4315  0.3841
16053W        W32237  11.939   0.735  10.094  0.0142  0.0552 -0.0786
16054W        W32238  10.896   9.637  11.749  0.0917  0.1975  0.0811
16055W        W32239  12.808  18.162   5.046 -0.0513  0.0415  0.0130
16056W        W32240   2.462   5.428  13.171 -0.0649 -0.1713 -0.0244
16057W        W32241   7.689   9.003  14.315  0.0588  0.2048 -0.1281
16058W        W32242  11.996   9.562  10.186 -0.1369 -0.1507  0.2007
16059W        W32243   0.951  12.327  10.884 -0.1314 -0.0710 -0.4130
16060W        W32244   4.334  18.799   3.596 -0.1495  0.4644  0.0464
16061W        W32245   4.527   2.537   2.935 -0.0172  0.0654  0.3314
16062W        W32246  15.964  13.365   0.985  0.0148  0.2999  0.3708
16063W        W32247   1.530  11.434  12.821 -0.1118  0.2723  0.2383
16064W        W32248  10.658   8.855   3.620 -0.2639 -0.2191  0.2405
16065W        W32249   7.947  18.764   1.916  0.2731  0.1819  0.1545
16066W        W32250   8.042   0.169  13.093  0.1109  0.1639  0.0604
16067W        W32251  11.926   8.924   3.242 -0.0225  0.1562 -0.0378
16068W        W32252  11.300   5.049   2.830  0.1711  0.1423 -0.0688
16069W        W32253  10.487   9.869  12.091  0.0098 -0.1662  0.3259
16070W        W32254   5.376   8.489   2.630 -0.3761  0.2049  0.1915
16071W        W32255  14.244  15.300  13.179 -0.1358  0.1784 -0.0188
16072W        W32256   9.205  13.593  11.471 -0.0877 -0.2242  0.1709
16073W        W32257  16.490   3.013   3.761 -0.2850 -0.1417 -0.0266
16074W        W32258   4.556   7.594  12.987  0.1121 -0.1018  0.0692
16075W        W32259  13.134   8.480   3.103  0.3639 -0.0614  0.2006
16076W        W32260   3.917  15.329  11.823 -0.0180 -0.3153  0.0210
16077W        W32261  12.575   7.961   2.532  0.0103 -0.3112  0.1557
16078W        W32262  15.935   4.539  12.864 -0.1218 -0.0268  0.0142
16079W        W32263  17.779  16.872   2.886  0.1622 -0.0625 -0.0378
16080W        W32264  16.745   3.444   4.044 -0.2308 -0.2206  0.2342
16081W        W32265  12.426   6.297   0.512  0.0489 -0.2410  0.2534
16082W        W32266  17.126   3.377  12.862  0.0195 -0.0169  0.1833
16083W        W32267  13.021  12.407   1.427 -0.2780 -0.4034 -0.0394
16084W        W32268   8.544  19.166   3.997 -0.4960 -0.1877 -0.2592
16085W        W32269   2.851   9.088  11.321 -0.1920  0.1247 -0.2530
16086W        W32270   7.239   7.661   2.378  0.2606  0.0091  0.3983
16087W        W32271  10.762   1.917   3.667  0.1385  0.2028  0.4633
16088W        W32272   5.152  11.360   1.434  0.0322 -0.1269 -0.1679
16089W        W32273   8.767  14.940   2.339 -0.1487  0.2149 -0.3194
16090W        W32274  17.781  15.977   0.874  0.3146 -0.1899  0.3724
16091W        W32275   2.084  15.713   2.724  0.2572  0.0153  0.1803
16092W        W32276   1.990  15.942  13.912  0.4285  0.0769  0.3175
16093W        W32277   9.452   6.668  11.602 -0.2445 -0.1649 -0.0440
16094W        W32278  15.462  14.896   2.267 -0.0429  0.2132  0.0629
16095W        W32279  13.439  18.829   5.198 -0.1372 -0.1937  0.1119
16096W        W32280  19.343  12.589  12.546  0.3848 -0.2566 -0.0553
16097W        W32281   0.536   8.791  13.367  0.1982 -0.1843 -0.1821
16098W        W32282   8.631  13.228  12.519 -0.1298 -0.2841 -0.1425
16099W        W32283   5.026   5.061   4.175  0.1584  0.2527 -0.2938
16100W        W32284  17.779   2.767  10.723  0.2970 -0.2044  0.3950
16101W        W32285   3.876  19.381  13.620  0.3627 -0.0080 -0.1537
16102W        W32286   7.378  15.367   1.873 -0.1634 -0.3009  0.1574
16103W        W32287   1.118  19.319   1.306  0.0287 -0.2783 -0.0673
16104W        W32288  10.552   4.008   1.466 -0.1558  0.0263 -0.3117
16105W        W32289  15.433   0.583  11.495 -0.2951  0.1863  0.1255
16106W        W32290   7.036   4.503  14.806 -0.1431 -0.1407  0.2906
16107W        W32291   7.876   1.165  11.551  0.0562  0.2723 -0.2711
16108W        W32292   6.348   0.398  11.405  0.2173 -0.0408  0.2048
16109W        W32293   0.975  16.462   2.470 -0.1313 -0.3230 -0.1355
16110W        W32294   0.444   7.697  12.207 -0.0947  0.4201  0.1848
16111W        W32295   1.324   8.341   1.499  0.3180 -0.0357  0.2686
16112W        W32296   9.528   8.472   2.651  0.3803  0.0961 -0.2115
16113W        W32297  12.184   4.838   3.005 -0.2545 -0.1222  0.2247
16114W        W32298   3.989  13.133   5.369 -0.5318 -0.0057 -0.0357
16115W        W32299  16.770   9.680   2.368  0.0562  0.0493 -0.3213
16116W        W32300   3.875  15.125   4.561  0.1268  0.2261  0.1949
16117W        W32301   2.418   0.002   2.768 -0.2524 -0.1388 -0.1552
16118W        W32302   9.348  10.441   3.218  0.2543 -0.3104 -0.0600
16119W        W32303  13.714   7.257   0.825 -0.0441  0.3681 -0.1617
16120W        W32304  10.320   6.818   4.220 -0.2120 -0.1162  0.1075
16121W        W32305   5.861  11.300  12.340  0.0348  0.1061  0.3274
16122W        W32306  17.185   9.440   3.773 -0.4601  0.3447  0.0077
16123W        W32307   2.404   4.940  14.080  0.2039  0.1449  0.0262
16124W        W32308   5.665   0.466  13.585  0.0713 -0.0276  0.0086
16125W        W32309  19.184  18.967   1.479 -0.1269  0.1456  0.2727
16126W        W32310  17.452  11.501  12.884 -0.1860 -0.0150  0.3029
16127W        W32311  16.930  10.039   1.962 -0.0964 -0.0644 -0.3453
16128W        W32312  18.538   8.922   4.622  0.1019 -0.2104 -0.1914
16129W        W32313   7.562  13.605   2.147 -0.1757  0.0086  0.1423
16130W        W32314  13.427   3.786  10.295 -0.1354 -0.1049 -0.0859
16131W        W32315   8.509  15.823   1.040  0.2675  0.0035 -0.1120
16132W        W32316   6.783   8.465   0.487  0.1710  0.0021  0.0286
16133W        W32317   1.630   4.320   3.065  0.2755  0.0148 -0.0346
16134W        W32318  12.313  14.453  14.920  0.0696 -0.0353  0.3603
16135W        W32319   2.066  11.782  11.693 -0.1794  0.1169 -0.3066
16136W        W32320  17.193  10.736   4.866  0.2483 -0.4322 -0.1913
16137W        W32321   0.586   9.114   1.457  0.2233  0.2095 -0.1647
16138W        W32322   7.860   3.541  11.396  0.2284 -0.1672 -0.2250
16139W        W32323   2.785  11.066  13.634  0.1017 -0.1236  0.1501
16140W        W32324   6.091   1.854   3.159 -0.3588 -0.0162 -0.1312
16141W        W32325   1.904  13.105   1.707  0.1124  0.1665  0.1933
16142W        W32326   2.010   0.258  11.729 -0.1407  0.0101  0.2792
16143W        W32327   7.256   1.929   0.043  0.2226 -0.1573  0.1218
16144W        W32328   4.987   0.239   1.304  0.0685 -0.1848 -0.2012
16145W        W32329   7.798   6.579  10.963  0.2505 -0.0420 -0.2089
16146W        W32330   0.104  12.811   4.750 -0.1349 -0.1316 -0.1630
16147W        W32331   1.285  11.670   3.978 -0.0519  0.1024  0.2520
16148W        W32332  13.465  14.570  11.598 -0.0400 -0.0083  0.2901
16149W        W32333   6.468  16.420   4.786  0.0633 -0.2114 -0.0963
16150W        W32334  13.335   5.974  11.559 -0.0728 -0.1186 -0.1097
16151W        W32335   1.668  16.353  11.056 -0.3868 -0.0086  0.2036
16152W        W32336  18.578   2.439   2.674 -0.1889  0.0078  0.0091
16153W        W32337   6.490  11.112  11.134  0.1286  0.2437  0.2936
16154W        W32338  12.970   9.619   4.262  0.1112  0.1549 -0.0495
16155W        W32339   0.406  12.924   2.552 -0.0209 -0.2945 -0.2017
16156W        W32340  13.549  13.959   3.053  0.1247 -0.1723 -0.2372
16157W        W32341   5.181   9.654  11.370 -0.0762  0.0539  0.0016
16158W        W32342  19.327   3.368   2.043  0.1155  0.3864  0.0602
16159W        W32343  11.998   9.722  11.547 -0.0669 -0.1983 -0.2334
16160W        W32344   5.764  19.182   0.810  0.1959 -0.2554  0.2848
16161W        W32345  16.943  10.811  14.132 -0.1685 -0.1712 -0.3100
16162W        W32346   0.555   5.674   2.541  0.3315 -0.1588  0.1575
16163W        W32347  13.457   1.106   0.395 -0.0496  0.0379  0.0683
16164W        W32348  13.784   7.709   4.922  0.0612  0.2754  0.2888
16165W        W32349  15.058  16.756   2.663 -0.2088 -0.0753  0.3140
16166W        W32350  13.768   0.287   4.180  0.5513 -0.0507  0.2707
16167W        W32351   3.480   7.801  13.470  0.2324 -0.0867  0.1123
16168W        W32352   7.796  14.594   0.668 -0.0032  0.0212 -0.2001
16169W        W32353   7.300   9.872  14.191  0.1495 -0.2075  0.1699
16170W        W32354  12.129  11.152  11.348 -0.3428 -0.0034  0.0825
16171W        W32355   7.501  18.468   1.042  0.0498 -0.0209  0.1051
16172W        W32356   8.607  11.747   1.478 -0.0222 -0.0378  0.1678
16173W        W32357   0.563  12.410   1.729 -0.0816  0.4607  0.0580
16174W        W32358  17.180  10.544   0.448 -0.1224  0.1356  0.1330
16175W        W32359   0.169  12.418   2.612  0.0947 -0.2161 -0.0104
16176W        W32360  11.739   6.881   8.714 -0.1171 -0.1373 -0.1187
16177W        W32361   8.350  18.021   3.239 -0.0344 -0.0402 -0.1570
16178W        W32362   8.699   0.751   3.950 -0.4629  0.0801 -0.1265
16179W        W32363   4.584   7.161  11.666 -0.0724  0.2835  0.1102
16180W        W32364   3.085  15.030  13.934  0.0810 -0.2127 -0.1633
16181W        W32365   7.034   3.242   5.503  0.2725  0.3605  0.0148
16182W        W32366   1.718   5.134   4.016  0.2770  0.0777 -0.0519
16183W        W32367   5.261   8.650   2.176  0.0810 -0.1637  0.2292
16184W        W32368   7.123   6.838   0.472  0.0434 -0.1030 -0.2061
16185W        W32369   0.127  13.239  13.910  0.0140  0.2743  0.1512
16186W        W32370  11.192  15.274   3.688 -0.1217 -0.1923 -0.0548
16187W        W32371  18.601  16.951   9.179  0.0724  0.2310  0.1107
16188W        W32372   7.741  17.083  11.114  0.1075  0.0221 -0.3710
16189W        W32373  16.218   9.677   2.615 -0.1137 -0.3027 -0.1471
16190W        W32374   5.090  15.184   4.787 -0.0702  0.1112 -0.0399
16191W        W32375  12.578   5.830   4.339  0.0967  0.3260  0.0123
16192W        W32376  14.068   7.256   2.803  0.2257  0.1745 -0.0322
16193W        W32377   5.411   1.072  14.676 -0.1432 -0.0022  0.1141
16194W        W32378   0.425  15.307  13.367 -0.1650  0.0900  0.1671
16195W        W32379  13.902  12.184   3.368 -0.0395  0.1479  0.0434
16196W        W32380   2.621   8.523  14.109 -0.2424  0.2605 -0.1664
16197W        W32381  17.113   7.008   4.320 -0.1272  0.1747 -0.1294
16198W        W32382  13.170  17.807  11.496 -0.2451  0.1414  0.1664
16199W        W32383   5.886   2.926  11.907  0.1166  0.1657  0.3680
16200W        W32384   6.187  19.226  14.396 -0.1719  0.0648 -0.1401
16201W        W32385   6.646  14.163   3.100  0.1883 -0.2566  0.0408
16202W        W32386  15.839   9.339   1.976 -0.0469  0.1355 -0.0291
16203W        W32387   5.264   3.832  12.830  0.4467 -0.2285 -0.1999
16204W        W32388  10.759   3.777   2.260 -0.1761  0.2538 -0.2091
16205W        W32389   9.775  15.139   1.791  0.2142 -0.0657 -0.2721
16206W        W32390  12.662  17.617   2.416  0.2013 -0.0563  0.0425
16207W        W32391  11.190  18.199  10.963  0.1874  0.3471 -0.1110
16208W        W32392  10.500   7.718  12.626  0.3757  0.1597  0.1259
16209W        W32393  15.273  10.086   2.419 -0.0011 -0.0836 -0.2239
16210W        W32394   0.666   4.872   1.489 -0.2032  0.1756  0.0178
16211W        W32395  14.711   8.291  10.665 -0.3819  0.2661  0.6724
16212W        W32396  15.447   6.181   4.094 -0.1121 -0.1398 -0.0224
16213W        W32397  17.768  17.071  11.164  0.0916 -0.0058 -0.0427
16214W        W32398  16.528  19.027  10.572 -0.4116  0.3120  0.1437
16215W        W32399  13.845   7.734  11.968  0.0966  0.3509  0.1442
16216W        W32400  18.794   0.819   4.215  0.0574  0.0081  0.1111
16217W        W32401   3.527   4.937  13.899 -0.0224 -0.1452 -0.0812
16218W        W32402  15.704  17.092   4.141  0.1876  0.0163 -0.1191
16219W        W32403  17.388  17.456   2.107  0.2814  0.0528 -0.1132
16220W        W32404  15.517  10.014   0.783 -0.3229 -0.1084 -0.4930
16221W        W32405  16.796   2.717  13.937 -0.2393  0.1864 -0.2930
16222W        W32406  14.357   5.056   1.270  0.0147 -0.3325  0.1053
16223W        W32407  10.304   1.207   2.368 -0.0445  0.0618 -0.1801
16224W        W32408  17.320   8.602   4.838 -0.2605 -0.1950  0.0717
16225W        W32409   7.386   6.307  13.374  0.1710 -0.0519  0.2337
16226W        W32410   2.661  18.677   2.656 -0.2356 -0.1451 -0.0074
16227W        W32411  18.471   3.063   3.426  0.2632 -0.1429 -0.1329
16228W        W32412   5.884   2.789  12.639 -0.0400 -0.0624  0.0357
16229W        W32413  13.476  16.425   0.100 -0.0918  0.0049 -0.2295
16230W        W32414  17.759   5.902   4.376 -0.0033  0.0797 -0.0220
16231W        W32415  15.976  14.140  10.795  0.1575 -0.1471  0.0180
16232W        W32416   0.701  17.990   4.549 -0.0207 -0.3793 -0.0284
16233W        W32417  10.978  13.202   5.190 -0.1182 -0.2473  0.2216
16234W        W32418  10.798  11.175  12.668  0.0419 -0.2344  0.0304
16235W        W32419  17.686  14.403  13.226 -0.3185 -0.0227  0.3725
16236W        W32420   3.386   8.197   4.946 -0.1802  0.0297  0.0393
16237W        W32421   9.348   4.612  13.168  0.1221  0.1108 -0.2545
16238W        W32422   4.079   8.375   1.497  0.3899  0.2617 -0.3705
16239W        W32423   1.079   6.938   1.606 -0.0056  0.0543 -0.3259
16240W        W32424   0.140  17.253   0.707 -0.0850  0.3205  0.2126
16241W        W32425   2.011  13.729  10.781  0.0291  0.0284  0.3023
16242W        W32426   4.890  19.153  10.379  0.3762 -0.1118  0.2356
16243W        W32427   9.053  16.717   4.755  0.0778 -0.0426  0.1208
16244W        W32428   2.267  16.381  12.194 -0.3938  0.1653 -0.2189
16245W        W32429  10.884   4.097   1.878 -0.0465  0.1605  0.3361
16246W        W32430  19.362   1.162  11.301  0.1915  0.0615 -0.2621
16247W        W32431   5.693   9.736   4.745 -0.0059  0.3371  0.3938
16248W        W32432  14.351   1.631   5.316  0.0475 -0.0715 -0.0142
16249W        W32433   7.545  12.485   4.256 -0.0875 -0.0780  0.1084
16250W        W32434  12.658  11.822  14.103  0.0718  0.1633  0.1322
16251W        W32435   1.595   4.789   4.944  0.1124  0.3651  0.0505
16252W        W32436   0.612   3.777  13.840 -0.3504 -0.2985  0.2954
16253W        W32437  11.779   3.028   2.973 -0.0167 -0.3754 -0.0552
16254W        W32438   8.349  18.500  12.171 -0.0316 -0.2006  0.1911
16255W        W32439   4.100  18.137  14.615  0.0571 -0.0981 -0.0696
16256W        W32440  10.344  13.127   3.200 -0.1513  0.1532  0.0763
16257W        W32441  10.286   1.854   9.291 -0.0027  0.4112 -0.1483
16258W        W32442  10.790  15.207   1.790 -0.0366  0.0672  0.0363
16259W        W32443   0.808   7.995  11.987 -0.0791 -0.1946  0.1485
16260W        W32444   8.818   1.218   1.450 -0.0020 -0.1356  0.3138
16261W        W32445   6.985  12.543  11.455  0.1170 -0.0701  0.1811
16262W        W32446  16.487   4.244   2.365  0.0742  0.4017  0.0901
16263W        W32447  12.632   0.031  13.414  0.0407 -0.3451  0.1172
16264W        W32448  17.158  17.081  14.372 -0.0179  0.3196 -0.1700
16265W        W32449  11.543   2.381  13.943  0.0881  0.0481 -0.1950
16266W        W32450  13.766   5.054  13.554 -0.1993 -0.0693  0.1133
16267W        W32451   4.998  16.592   4.776  0.0124  0.1512  0.1312
16268W        W32452   9.175   3.031  14.908 -0.6979 -0.2705  0.0405
16269W        W32453  18.742   3.098   9.641  0.5441 -0.0220 -0.0135
16270W        W32454   2.954   5.725  11.769  0.0366 -0.2145  0.0435
16271W        W32455   0.328   4.512   4.553 -0.1306 -0.2112 -0.0877
16272W        W32456  14.309  19.015   4.575  0.0134 -0.1087  0.0833
16273W        W32457  12.232  13.549   2.423 -0.1925 -0.0405 -0.0955
16274W        W32458  16.491   1.254  12.071 -0.0015  0.0148 -0.0556
16275W        W32459   3.535   6.159   2.005 -0.0626  0.0166  0.3328
16276W        W32460  15.831  14.859  12.637  0.2113 -0.1319 -0.0000
16277W        W32461   9.848  11.781   0.501 -0.0176  0.2993  0.1392
16278W        W32462   7.914   5.241   0.935 -0.0250 -0.0724 -0.0085
16279W        W32463  15.338   7.917  10.058 -0.1869  0.1647  0.2601
16280W        W32464  13.737  14.418  13.941  0.0113  0.1748 -0.0948
16281W        W32465   9.795   2.131  10.754  0.1115 -0.1878  0.0441
16282W        W32466  14.125  15.773   0.414  0.0455 -0.1376 -0.2099
16283W        W32467   6.716   5.846   3.086 -0.1111 -0.1566  0.3790
16284W        W32468  10.742   6.928   1.525 -0.0219 -0.0473 -0.2258
16285W        W32469  15.033  10.570   3.176  0.2022 -0.0191  0.0013
16286W        W32470  17.991   1.441   1.151 -0.1750  0.2108 -0.1237
16287W        W32471   9.620   5.955   1.061 -0.3201 -0.0639  0.1544
16288W        W32472   9.512  11.736   2.277 -0.0928  0.1158 -0.2413
16289W        W32473  13.284   8.998  11.681  0.0266  0.4229  0.2463
16290W        W32474  15.096  18.031  14.745  0.4716  0.4949 -0.2232
16291W        W32475   4.474  15.540  12.444 -0.3879 -0.1720  0.0081
16292W        W32476   1.755   5.638  14.543 -0.0992  0.0920 -0.2209
16293W        W32477  12.843   5.533   3.773  0.3621 -0.1234 -0.1625
16294W        W32478   0.717   2.991   1.537 -0.1732  0.0596  0.1111
16295W        W32479   0.502  15.019   0.454  0.3952 -0.3529 -0.1882
16296W        W32480  12.283  16.656  13.333  0.0717 -0.3664 -0.1741
16297W        W32481   6.184   7.122  12.863 -0.0083 -0.2423 -0.4331
16298W        W32482  16.671  17.538   2.001 -0.1147 -0.2833 -0.0491
16299W        W32483  13.371  14.657   3.362 -0.1238 -0.3958  0.0392
16300W        W32484   3.863   6.272  11.768 -0.3544 -0.0167 -0.0502
16301W        W32485   8.210  13.745  10.540  0.0793  0.1164 -0.2680
16302W        W32486  11.205   2.310   1.881 -0.1794  0.1282 -0.1540
16303W        W32487   5.193  10.232   2.460  0.0197  0.2341  0.1738
16304W        W32488  17.842   6.460  13.603  0.1364 -0.0386  0.1488
16305W        W32489   9.999  12.310   4.159  0.2611  0.0639  0.1055
16306W        W32490  12.376   9.695  14.912  0.0969  0.1997 -0.0418
16307W        W32491  18.807   4.214  13.864  0.1363 -0.2258  0.0032
16308W        W32492  18.557   6.294  12.143 -0.0431  0.3183  0.0470
16309W        W32493  12.816  14.459  14.183 -0.1890  0.1147  0.0801
16310W        W32494  17.503   6.576   0.465 -0.2080  0.1303  0.2785
16311W        W32495   0.835   2.242   4.264 -0.1278  0.3785  0.2666
16312W        W32496   9.803   5.840  11.791  0.1191 -0.0585  0.0512
16313W        W32497  18.376  12.330   3.705 -0.0155 -0.1498  0.1282
16314W        W32498   4.739   3.648  11.668  0.1264  0.2216 -0.0415
16315W        W32499   5.863  18.774   3.606 -0.0468 -0.0072  0.1821
16316W        W32500  12.823  15.559   0.346 -0.3087  0.0603 -0.4325
16317W        W32501   6.673   9.676   4.429 -0.1444 -0.1398 -0.2016
16318W        W32502  18.470   8.867  11.713 -0.0432 -0.1897 -0.0718
16319W        W32503   0.651   9.986   2.477 -0.2747 -0.1738 -0.0471
16320W        W32504  11.063  18.721   1.058  0.0502  0.2106 -0.1953
16321W        W32505   2.832   6.567  10.339  0.2680  0.0720  0.0205
16322W        W32506  17.454  12.428   4.583  0.1282  0.0826  0.4427
16323W        W32507  14.370  18.033  14.351 -0.1796  0.3746  0.0771
16324W        W32508   0.781  14.279   0.257 -0.1241  0.1256  0.2424
16325W        W32509   2.346   5.738   4.818  0.0506 -0.0245 -0.3662
16326W        W32510  16.651   3.645   1.657 -0.1701 -0.3036 -0.1957
16327W        W32511  18.581  12.098   3.276  0.3134 -0.0333 -0.2168
16328W        W32512  11.491  14.271   4.870 -0.2696 -0.1995 -0.1458
16329W        W32513   7.021  17.637  10.975 -0.3379  0.0235 -0.0057
16330W        W32514   8.134  17.117  11.475 -0.4534  0.1986  0.2351
16331W        W32515  16.648   0.607   3.775 -0.1312  0.1534 -0.1396
16332W        W32516   0.939   6.204   1.088 -0.0758 -0.2639  0.0566
16333W        W32517   8.750  18.336   4.579  0.2454 -0.1076 -0.1110
16334W        W32518  14.730   1.897   2.727  0.2422 -0.0837 -0.0014
16335W        W32519   4.997   0.688   2.051  0.0847  0.0423 -0.1701
16336W        W32520  11.446   2.560   4.051  0.1710  0.1826  0.0618
16337W        W32521  11.101  13.077   4.700  0.1287 -0.0534  0.2873
16338W        W32522  16.905  12.465   1.985 -0.1398 -0.0272  0.1903
16339W        W32523  12.085   3.496   2.513  0.1107  0.3852  0.0197
16340W        W32524   5.442   6.727   3.031  0.1105 -0.4857 -0.1371
16341W        W32525   8.312   4.853  12.908  0.1829  0.3791 -0.2819
16342W        W32526  12.913   5.410  11.969  0.1675 -0.6248  0.0370
16343W        W32527  18.319  10.648  11.656  0.2153 -0.3699 -0.0349
16344W        W32528   7.907   8.845   3.185 -0.1337 -0.0163  0.0245
16345W        W32529   0.121  16.358   2.734  0.0296  0.2682  0.1590
16346W        W32530  19.163  18.796   1.966  0.1300  0.1211  0.0698
16347W        W32531   6.215   1.196   1.912 -0.2107 -0.3626 -0.0345
16348W        W32532   2.122   3.099   4.994  0.2215 -0.2500  0.1925
16349W        W32533   1.402   1.887   1.058  0.3522 -0.0907  0.0222
16350W        W32534  14.958  10.490  12.587  0.0551  0.0692  0.2553
16351W        W32535  17.148  12.774  12.662  0.1474  0.0761 -0.1179
16352W        W32536   8.627   9.104  14.401  0.0497 -0.1937 -0.2161
16353W        W32537  13.603   5.807   3.622  0.0629  0.0724  0.0247
16354W        W32538   8.619   7.269   0.979  0.3941  0.1629  0.0733
16355W        W32539  16.945   7.647   3.294  0.2808 -0.1486 -0.0377
16356W        W32540   6.062   4.020   2.481  0.0578  0.1326 -0.0589
16357W        W32541  11.918  15.642   1.777 -0.0721  0.4077  0.1024
16358W        W32542  12.838   2.964   2.892 -0.1104  0.1564  0.1030
16359W        W32543   0.401  11.684   0.859  0.1881  0.0653  0.4099
16360W        W32544  12.492   2.434  10.832  0.1606 -0.0313  0.2549
16361W        W32545   5.890  18.864   9.656 -0.1325  0.4241  0.1860
16362W        W32546   4.353  11.121   1.899  0.1491  0.0494 -0.1818
16363W        W32547  19.210   3.461   3.800  0.1568  0.3200 -0.0524
16364W        W32548  15.279   9.720  11.284  0.1259  0.0356 -0.4525
16365W        W32549  14.270  13.836   1.210  0.2899 -0.1177 -0.0054
16366W        W32550  13.235   4.319  13.402  0.2245 -0.0391 -0.0862
16367W        W32551  18.522  18.953   3.097  0.3870  0.0536  0.1948
16368W        W32552  14.460   0.307   0.335 -0.1836 -0.1916  0.2357
16369W        W32553  18.786   7.455  14.633 -0.1490 -0.1684  0.5054
16370W        W32554  17.654   0.608   4.647 -0.0254  0.1166  0.1122
16371W        W32555  18.651  11.301  10.772  0.0665  0.0530  0.0872
16372W        W32556   2.367   4.902  13.150 -0.2076  0.0142  0.1856
16373W        W32557   4.362  10.264   0.493 -0.2934  0.1377  0.0229
16374W        W32558  11.204   0.974  14.686  0.0246 -0.1259  0.2935
16375W        W32559   3.782   6.746   2.715  0.1577  0.2044  0.0174
16376W        W32560  13.147  13.735  13.556  0.1510  0.2190  0.4535
16377W        W32561   8.414   3.331  12.076  0.2043  0.2066  0.0074
16378W        W32562  15.747  11.691   5.395  0.0281 -0.3212 -0.0660
16379W        W32563  12.015   9.703  10.759  0.1293 -0.0607 -0.0407
16380W        W32564   4.253  13.260  11.766  0.2852  0.0419 -0.0217
16381W        W32565   7.721   4.562   5.659  0.1847 -0.2620 -0.0487
16382W        W32566  17.989   7.336  13.321  0.2717 -0.0733  0.1291
16383W        W32567  13.425  11.530   4.377  0.1907  0.2071 -0.1772
16384W        W32568   6.661  12.216   1.672  0.1303  0.3549 -0.2015
16385W        W32569  14.547   3.783  14.580 -0.0767 -0.3794  0.1221
16386W        W32570  12.329   0.697   2.876 -0.0511 -0.1298  0.0552
16387W        W32571   7.460   7.687   3.901 -0.1370  0.2649 -0.2418
16388W        W32572   7.824   3.930   0.731 -0.0112 -0.0079  0.0103
16389W        W32573  17.462   3.239  12.487  0.1135 -0.1804 -0.1899
16390W        W32574  17.015   6.315   2.782 -0.1685  0.3904 -0.2282
16391W        W32575   8.596  15.996  13.123 -0.1123 -0.2209  0.4439
16392W        W32576   0.083  12.941  11.053 -0.0202  0.1407  0.1241
16393W        W32577   6.633  13.563  10.923 -0.0837 -0.1571 -0.0279
16394W        W32578   0.963  15.436   5.500  0.0195  0.1321  0.0428
16395W        W32579  16.003   9.205   5.128  0.1151  0.1141  0.1240
16396W        W32580  17.397   3.891   4.649  0.0709 -0.0151  0.0637
16397W        W32581   9.652  15.994  11.824  0.0523  0.1665 -0.1534
16398W        W32582  11.616   6.978   4.791  0.5137  0.0903  0.0141
16399W        W32583  10.622   3.960   5.344 -0.1861 -0.2325 -0.2968
16400W        W32584  16.890  17.603   4.689  0.2090 -0.1400 -0.1376
16401W        W32585   2.343  13.075   1.421  0.0259 -0.1491 -0.0656
16402W        W32586   3.449  12.866   4.368  0.0496  0.0460 -0.0771
16403W        W32587   0.595  15.068   1.395  0.0582 -0.1397  0.2931
16404W        W32588  17.270  11.752   2.807  0.1591  0.0671 -0.4598
16405W        W32589  10.087   1.393  11.660 -0.0583  0.2262  0.2215
16406W        W32590   8.163   3.033  13.665 -0.1561 -0.3702  0.0821
16407W        W32591   0.435   1.667  14.527  0.1861  0.1610  0.1399
16408W        W32592  15.660   5.440  14.510 -0.0430  0.4973  0.3098
16409W        W32593  10.489  17.163  12.154 -0.0120 -0.2054  0.4002
16410W        W32594   5.780  17.432   0.979 -0.1272  0.0051  0.0760
16411W        W32595  10.056  19.344  12.768  0.1979 -0.1236 -0.1168
16412W        W32596  18.303   3.119   0.126 -0.4120 -0.0958  0.0393
16413W        W32597   9.970   2.653   1.513 -0.0774  0.0028  0.1478
16414W        W32598  12.170  16.057   0.059 -0.2115 -0.2089 -0.1168
16415W        W32599  14.595  12.963  10.401  0.1019  0.4308  0.1388
16416W        W32600   3.205  12.139  12.048 -0.0365  0.0561  0.1782
16417W        W32601   3.772   8.557   0.571  0.1465  0.0286  0.2074
16418W        W32602   2.260   0.723  11.015  0.2382 -0.0260  0.2292
16419W        W32603   0.805   4.872  11.585  0.1923  0.2571 -0.1410
16420W        W32604   9.041   4.714   3.029  0.1494  0.1464  0.1880
16421W        W32605  15.303  15.789   0.002 -0.0510 -0.0240  0.4483
16422W        W32606  10.727  17.674   3.317 -0.0178  0.0755 -0.1947
16423W        W32607   1.724   9.130   1.991  0.1634  0.2722  0.0707
16424W        W32608   7.833  17.119   2.012 -0.0924 -0.1015 -0.3158
16425W        W32609  12.394  13.218  12.355 -0.0485 -0.1493 -0.1479
16426W        W32610   4.502   8.026   0.795  0.1137 -0.1898  0.1556
16427W        W32611   6.881   8.610  12.269 -0.1535 -0.2462 -0.2814
16428W        W32612  16.062  14.331   1.983 -0.1354 -0.0168  0.3978
16429W        W32613   1.578  14.103   2.897  0.0889  0.1273  0.1550
16430W        W32614   8.755  19.288  14.865 -0.0749  0.1172  0.4505
16431W        W32615  13.114   2.595   1.833  0.0778  0.1749  0.1095
16432W        W32616   0.543   9.453  14.796 -0.0527 -0.2191 -0.3444
16433W        W32617   3.025   3.012  14.002  0.2008 -0.0195  0.0880
16434W        W32618   6.347  12.145  12.146 -0.0609 -0.0955  0.0097
16435W        W32619  10.477  17.545   4.923  0.1989  0.0243  0.2327
16436W        W32620  17.667   1.307   1.516 -0.0094  0.1955 -0.2684
16437W        W32621   4.189   8.947  10.953  0.2095 -0.2058 -0.0441
16438W        W32622   5.703   2.855  14.117  0.3219 -0.1880  0.0489
16439W        W32623   8.341   6.032   1.681 -0.1167  0.0427 -0.1569
16440W        W32624  17.695  14.964  11.847  0.2896  0.0877 -0.1898
16441W        W32625   9.359  11.623  11.632 -0.0369 -0.1215 -0.1855
16442W        W32626   0.439  10.575   4.196  0.2948  0.1521 -0.0223
16443W        W32627  11.303  12.892   1.198 -0.2001  0.0670  0.2726
16444W        W32628  11.777  17.470  11.518  0.1865 -0.4561  0.1228
16445W        W32629   4.092  17.837  12.689  0.0997 -0.2926 -0.3894
16446W        W32630   7.655   7.633  14.601 -0.0017  0.3046  0.0136
16447W        W32631  17.747   1.032  14.257 -0.1165 -0.1345  0.3069
16448W        W32632   3.298   7.320  12.741 -0.1422 -0.1104  0.3599
16449W        W32633   7.255   1.740   0.908 -0.3666  0.0905 -0.1839
16450W        W32634   0.907  12.764   4.824 -0.1790  0.2377 -0.1063
16451W        W32635   0.176  16.772  14.688  0.0991  0.1056 -0.3462
16452W        W32636  18.329  17.069  11.339 -0.1502  0.1509  0.1390
16453W        W32637  18.199  10.611   4.374 -0.0962 -0.3937  0.0006
16454W        W32638  11.369   0.143  10.312  0.0347 -0.4400  0.0439
16455W        W32639   1.946   0.657   3.447  0.4959 -0.0242  0.0697
16456W        W32640  12.872  15.513   2.460 -0.0221  0.0563  0.1709
16457W        W32641  11.209  16.821  14.583  0.2415 -0.0766  0.0418
16458W        W32642  10.233  16.807   9.944  0.4835 -0.1217 -0.1647
16459W        W32643  16.836   6.520   1.881 -0.1568 -0.1471  0.1749
16460W        W32644  17.092   9.496   5.154  0.2091  0.3190  0.2237
16461W        W32645   4.280  11.849  13.292 -0.2561 -0.0868 -0.3388
16462W        W32646   0.458   0.756   3.410  0.0373  0.1618 -0.0411
16463W        W32647  17.546  13.880  13.451  0.1481 -0.0432  0.0124
16464W        W32648   3.925  15.057   0.497  0.2892 -0.1407  0.0727
16465W        W32649  15.212   0.226  13.680  0.1469  0.2832  0.0444
16466W        W32650   8.173  15.792  11.372 -0.1810 -0.2684 -0.1591
16467W        W32651  10.274   5.026   4.367  0.1521  0.2194 -0.0424
16468W        W32652   6.025   6.525   0.619 -0.0156 -0.0544 -0.1732
16469W        W32653   6.501  15.286   0.554  0.0363  0.0915 -0.2202
16470W        W32654   3.733   4.568   5.184  0.1614 -0.0581 -0.0862
16471W        W32655   9.189  13.816   2.940 -0.0165  0.4412 -0.2614
16472W        W32656  19.005   4.361  11.391 -0.1285  0.1740 -0.2230
16473W        W32657  14.315   5.992   0.260  0.2754 -0.0792 -0.0590
16474W        W32658   3.788   9.331  13.050 -0.0467 -0.2791 -0.4113
16475W        W32659  16.826  11.948  10.294 -0.0031 -0.3114 -0.0205
16476W        W32660  17.954  17.430  14.358 -0.0740  0.3034 -0.0353
16477W        W32661   4.069  11.021   5.910 -0.0946  0.2256 -0.0142
16478W        W32662  16.339   2.889   2.357 -0.2147 -0.0472  0.3098
16479W        W32663   4.781  19.332  14.513  0.0339  0.2399  0.3890
16480W        W32664   6.337   6.203  11.259 -0.0522  0.1492 -0.3124
16481W        W32665  10.091  11.904  12.098  0.2913  0.1524  0.1472
16482W        W32666   3.621  14.896  14.921 -0.4084  0.0295 -0.2392
16483W        W32667   0.898  13.729   1.361 -0.0160  0.0358 -0.2635
16484W        W32668  15.230   1.861  14.937  0.0162 -0.0337 -0.3437
16485W        W32669  16.353   3.329  11.304  0.0108  0.1350  0.1716
16486W        W32670  14.035  10.815   3.327  0.2075  0.2389 -0.0324
16487W        W32671  13.065  10.570   9.399 -0.1728 -0.0882  0.2734
16488W        W32672   5.772  11.652   4.647  0.1631 -0.1433  0.1154
16489W        W32673  15.316   9.715   2.930  0.5710 -0.2731  0.0265
16490W        W32674  16.332  13.783  12.407 -0.0023 -0.1505  0.0179
16491W        W32675  19.275   9.235   4.973 -0.0234  0.2684 -0.0431
16492W        W32676   6.962  17.962   2.170  0.0954 -0.1027 -0.1235
16493W        W32677  14.992  16.694   3.528  0.3250 -0.1062 -0.0369
16494W        W32678   9.804  18.514   0.738  0.0635  0.0228  0.1551
16495W        W32679   6.299  10.779   0.132 -0.1671 -0.1977 -0.0544
16496W        W32680  18.794   3.897   3.532  0.0359 -0.0981  0.0665
16497W        W32681   2.038  17.810   1.848 -0.0113 -0.3478 -0.2859
16498W        W32682   1.189  18.091  13.476 -0.0865  0.0646  0.5099
16499W        W32683   0.881   7.158   3.727 -0.0015 -0.3927  0.0078
16500W        W32684   3.046   5.584   5.556  0.1548  0.0490  0.1936
16501W        W32685   6.012   3.778   0.325 -0.0986  0.1088  0.0763
16502W        W32686   4.822   8.829  12.779  0.0019  0.2796  0.1891
16503W        W32687  18.246   2.669   4.608  0.3429 -0.1330  0.2105
16504W        W32688   2.083   9.418   3.568  0.0306  0.2064  0.0411
16505W        W32689   5.609   5.038   1.502 -0.1355 -0.1910 -0.1401
16506W        W32690   0.049  13.014   3.597 -0.2867  0.2199  0.1231
16507W        W32691   7.426  18.056   1.862 -0.3471  0.0064 -0.0259
16508W        W32692   6.949   6.270   0.439  0.1781  0.0122 -0.0513
16509W        W32693  18.609   5.958  14.252 -0.3287 -0.1558  0.0646
16510W        W32694   3.528  12.212  11.660 -0.2306  0.2598  0.3930
16511W        W32695  17.316   1.671  11.928  0.0078  0.3103 -0.0921
16512W        W32696  11.059  18.055   2.183 -0.1016  0.0270 -0.4762
16513W        W32697   5.945  10.250   0.421 -0.1708 -0.4335  0.1890
16514W        W32698   7.000  11.685   0.556  0.2198 -0.0392  0.1571
16515W        W32699  15.604  19.376   1.132  0.0238  0.2180 -0.0721
16516W        W32700   2.136  11.642  10.915 -0.2153 -0.0303 -0.2381
16517W        W32701   8.617   9.716   3.917 -0.1529 -0.0566 -0.0201
16518W        W32702   6.363  18.147   0.678 -0.1555 -0.0417  0.0492
16519W        W32703   5.153  11.584  12.834 -0.4251  0.2396 -0.3553
16520W        W32704   0.472  12.462   4.832 -0.3364  0.1814  0.1210
16521W        W32705   5.679  14.627   4.597  0.4680 -0.0759  0.1353
16522W        W32706  15.679  14.609   0.437 -0.1669 -0.0467  0.0072
16523W        W32707  18.661  10.987  14.414  0.0398  0.1289 -0.2631
16524W        W32708  17.093  17.571  14.504 -0.1292 -0.0233  0.1242
16525W        W32709  13.902  12.682   3.868 -0.2295  0.2003 -0.2121
16526W        W32710   2.121   9.282   0.804 -0.2563  0.0297  0.0121
16527W        W32711   8.866  16.595   3.081  0.2885  0.0683 -0.3302
16528W        W32712  12.280  11.625   5.052  0.0119  0.1709 -0.1947
16529W        W32713  12.129  14.853   0.294 -0.2187 -0.0798  0.1102
16530W        W32714   9.291  12.700   4.633 -0.0672 -0.1147 -0.0663
16531W        W32715   5.800  16.526  10.155 -0.1820  0.2694  0.0057
16532W        W32716   2.286  10.749   0.987  0.0552 -0.2168 -0.0622
16533W        W32717   2.861  12.698  12.771  0.1087  0.1003  0.1824
16534W        W32718  13.433  17.614  12.167  0.0433  0.0544  0.0071
16535W        W32719   7.793   1.004   1.678 -0.2611 -0.0185  0.1121
16536W        W32720  14.558   1.307  14.486  0.0100  0.0790 -0.1560
16537W        W32721   2.857  14.138  10.601  0.2023  0.2475 -0.1936
16538W        W32722   6.970   9.714  14.495 -0.0300 -0.1520 -0.5812
16539W        W32723  15.242   4.242   0.475  0.0638 -0.1200  0.1153
16540W        W32724  15.086   7.870   3.591 -0.2471 -0.0021 -0.3481
16541W        W32725  16.770  15.212   4.606  0.0653 -0.0176  0.2907
16542W        W32726   2.491  11.488  11.485 -0.0317  0.0691 -0.1911
16543W        W32727   7.193   1.371  11.848  0.0030 -0.0805 -0.1625
16544W        W32728   3.245   1.426   4.137 -0.1977  0.0791 -0.2243
16545W        W32729   0.412  10.050   3.910 -0.2106 -0.0229 -0.3215
16546W        W32730   8.632   3.159  13.759  0.1001 -0.2804 -0.0528
16547W        W32731  16.724   3.390  12.536 -0.1168 -0.0133  0.1468
16548W        W32732  10.282   4.686  14.839  0.1475  0.2778  0.2003
16549W        W32733   2.123  17.072   2.297 -0.1697  0.2966  0.2933
16550W        W32734   3.831  11.443  12.183  0.1956 -0.3274  0.0696
16551W        W32735  14.707   5.833  14.470  0.0584  0.0006 -0.0812
16552W        W32736  17.466  16.629   8.943 -0.1201 -0.2199  0.0424
16553W        W32737   4.737   7.125  14.674 -0.2539 -0.2936  0.3110
16554W        W32738   9.095  11.270   4.468 -0.0767  0.1224 -0.0431
16555W        W32739  10.396  12.577   3.325 -0.0174 -0.0144  0.2238
16556W        W32740   1.452  15.953  13.998 -0.2104  0.1655  0.3118
16557W        W32741   7.467   6.489  12.374 -0.0350 -0.0152 -0.0809
16558W        W32742   4.248  19.163   3.253 -0.0106  0.2283  0.5133
16559W        W32743  17.053  11.131   5.257 -0.1121 -0.2296 -0.0685
16560W        W32744   6.141  14.173  11.292  0.1237  0.4135 -0.1481
16561W        W32745   6.684   3.115   0.107 -0.1185 -0.2140 -0.1066
16562W        W32746  12.106  15.316   3.702  0.0850  0.0316  0.4978
16563W        W32747   7.628  11.815   2.413  0.2673 -0.4630  0.0668
16564W        W32748   2.342   8.472   2.738  0.0492  0.2491 -0.1645
16565W        W32749   4.450  17.741  14.789  0.0681 -0.0418  0.1221
16566W        W32750  11.622   8.940   2.771 -0.0124  0.0186  0.0923
16567W        W32751   0.990   0.825   1.466 -0.0834 -0.2718  0.4949
16568W        W32752  18.432   5.080  11.579 -0.0380  0.0354  0.0531
16569W        W32753  16.875   9.787   3.876  0.2430  0.1926  0.0447
16570W        W32754   3.196   3.031   1.824  0.1360 -0.0721  0.2315
16571W        W32755  16.395  12.658   0.491  0.2528  0.2243 -0.1257
16572W        W32756   6.187  16.200  10.388 -0.1504  0.0690  0.3714
16573W        W32757   0.169   2.568   2.267  0.0156  0.2668 -0.2122
16574W        W32758  19.382   5.851  14.166 -0.2513 -0.2073 -0.2811
16575W        W32759  15.911   2.897   4.464  0.1436  0.1063 -0.5696
16576W        W32760   7.481   5.828  14.110  0.2259 -0.1341  0.2297
16577W        W32761   8.311  18.641  13.327  0.1758 -0.1849 -0.4076
16578W        W32762  15.969   2.339   5.365 -0.0701 -0.3733 -0.0112
16579W        W32763  15.334   8.481   4.407  0.1463  0.0685 -0.0511
16580W        W32764   5.715   8.033   2.449 -0.1809 -0.2019 -0.1199
16581W        W32765   9.378  12.536   5.072  0.1363  0.0738  0.0380
16582W        W32766  16.944  12.071   4.522  0.0163 -0.0772 -0.0828
16583W        W32767  11.607  10.327  10.069 -0.0227 -0.0637 -0.3279
16584W        W32768  13.410  12.770   2.240 -0.0126  0.1586 -0.1648
16585W        W32769  13.700  13.287   2.321 -0.3976  0.0679  0.2219
16586W        W32770  17.253   5.682  12.596  0.0712 -0.0845  0.1204
16587W        W32771   7.646  11.049  14.514  0.1475 -0.2856 -0.1912
16588W        W32772   7.961   6.286   3.020  0.2913 -0.1296 -0.3124
16589W        W32773   4.526  15.347   1.215 -0.2444 -0.0515  0.0680
16590W        W32774   9.152   1.030  12.303 -0.0882 -0.1701  0.1450
16591W        W32775  14.968  12.175  14.773  0.3121 -0.1088  0.1638
16592W        W32776  15.450   5.442  12.039  0.2078  0.4277  0.2646
16593W        W32777   0.859  15.881   2.597  0.0072  0.0975  0.1901
16594W        W32778  16.413   4.034  14.426  0.1526 -0.0795 -0.2846
16595W        W32779   5.668   0.414   3.435  0.1182 -0.3068 -0.0346
16596W        W32780   8.595  16.969  13.876  0.0548 -0.2084 -0.0542
16597W        W32781   6.937  17.215  11.711 -0.2710  0.2955 -0.0490
16598W        W32782   5.715   7.148   3.418 -0.0905  0.1263 -0.2689
16599W        W32783  16.665   2.623  13.420  0.3868  0.0496  0.0636
16600W        W32784  10.090   8.983   1.705 -0.0711 -0.0352 -0.2673
16601W        W32785  12.653  16.617   4.357  0.1465 -0.0627 -0.0176
16602W        W32786  18.319  11.009   2.420  0.1988  0.0162 -0.1952
16603W        W32787   4.074   5.474   0.123 -0.0325  0.0007  0.0358
16604W        W32788  13.631   5.311   3.725  0.2386  0.1310  0.0727
16605W        W32789   1.282   8.797  13.958  0.3632  0.2477 -0.3339
16606W        W32790   2.841   1.668   3.405  0.0239 -0.1500  0.1228
16607W        W32791   0.487   3.981  11.883  0.2038 -0.1339 -0.0763
16608W        W32792   8.513   3.475   2.696  0.1347  0.2258  0.0412
16609W        W32793  11.684   1.936  13.955  0.1490  0.1631 -0.0516
16610W        W32794  12.013   3.153  10.975 -0.1278  0.2210  0.4723
16611W        W32795   3.824  18.239   5.457 -0.1913  0.1874  0.0716
16612W        W32796   3.936   4.031  14.259 -0.0274 -0.1497  0.2260
16613W        W32797   7.670  18.454   2.283  0.2644 -0.4186  0.3858
16614W        W32798  12.370   1.290   0.744 -0.0454  0.1452  0.1036
16615W        W32799   0.335  17.635  10.730 -0.1457 -0.0739  0.3034
16616W        W32800   9.475  17.820  12.777  0.0800  0.0890 -0.1298
16617W        W32801   5.870  17.195  10.768  0.0901  0.1529  0.0718
16618W        W32802   7.177  10.303   0.179 -0.0965  0.0701  0.1600
16619W        W32803   9.548   2.346   3.532 -0.3347 -0.0846  0.0808
16620W        W32804   1.988   4.906  13.457 -0.0337 -0.1886 -0.3103
16621W        W32805   7.688   9.245   1.117 -0.3370  0.2774  0.0128
16622W        W32806   6.135   5.991  12.038  0.2915  0.0215  0.1693
16623W        W32807   1.303   3.694  11.848  0.0118  0.0178  0.0948
16624W        W32808   8.952  10.398  11.468  0.0215  0.1025  0.0552
16625W        W32809   1.933  16.538   0.108 -0.0207  0.1004 -0.2087
16626W        W32810  17.834   6.737  13.991  0.1254  0.2534  0.0136
16627W        W32811   9.614  12.837  13.818 -0.0969 -0.0285  0.0216
16628W        W32812  18.523   7.039   1.589  0.3592 -0.0209  0.1881
16629W        W32813  18.574  14.688   4.247  0.0691 -0.0435  0.1724
16630W        W32814  15.147  18.825   0.427 -0.2982 -0.0547  0.2359
16631W        W32815   8.592  19.215  13.908 -0.1854  0.2061 -0.1102
16632W        W32816   0.990   9.922  10.378 -0.1883 -0.1966 -0.0051
16633W        W32817   5.314  14.791   5.032  0.2062  0.0306  0.0176
16634W        W32818  10.153   3.725   1.824  0.0250  0.2242 -0.0484
16635W        W32819  15.666  19.105  12.415 -0.0760 -0.0651  0.2459
16636W        W32820  10.040   8.378   2.492 -0.1593 -0.2637  0.1900
16637W        W32821   0.538  18.141  12.515  0.1074 -0.3535  0.3579
16638W        W32822   7.961  14.126  13.970  0.6806  0.0829 -0.0593
16639W        W32823   9.498  15.245  12.294 -0.0205 -0.0228  0.0325
16640W        W32824   0.634  15.855   4.333  0.1525 -0.1052  0.1242
16641W        W32825   5.835   1.858   2.591 -0.0082  0.0031  0.0941
16642W        W32826   5.105  12.198  13.604 -0.3306 -0.1818  0.0771
16643W        W32827  17.621   7.993  12.632  0.0486  0.0092 -0.0554
16644W        W32828   0.466  10.658   0.371 -0.0942  0.0364  0.1082
16645W        W32829   6.852  15.520   1.999  0.0513  0.0005  0.0766
16646W        W32830  17.949  12.557  13.565  0.0959  0.2037 -0.0495
16647W        W32831  17.534  15.074  11.380  0.0353  0.1605 -0.1872
16648W        W32832  14.265  16.725  13.888 -0.1944  0.0006 -0.3431
16649W        W32833   5.978  15.152   1.170 -0.0481 -0.0195 -0.0908
16650W        W32834   8.870  18.160  10.760  0.0139  0.0963  0.1643
16651W        W32835   3.127   5.905   3.955 -0.0098  0.2524  0.0033
16652W        W32836  15.072  16.285   1.377 -0.0495  0.0019  0.0561
16653W        W32837  17.103   3.293   3.352 -0.3446  0.0994  0.0979
16654W        W32838   2.038   5.766  13.224 -0.0387  0.1259  0.1442
16655W        W32839  18.266  15.277   3.359  0.1497 -0.0800 -0.6180
16656W        W32840   7.522  15.354  11.755  0.0531  0.4959 -0.4606
16657W        W32841   4.068   0.179  11.472 -0.3561  0.0268 -0.0371
16658W        W32842   8.366  14.942   1.863 -0.0180  0.1394 -0.0532
16659W        W32843  18.003   5.317  11.644  0.2329  0.0427 -0.0578
16660W        W32844  13.142   5.533   1.637  0.4676 -0.0545 -0.5161
16661W        W32845  17.545   8.008   3.608  0.1671 -0.0026 -0.0899
16662W        W32846   1.652   5.309  13.691 -0.1327 -0.0230 -0.1108
16663W        W32847   9.980  14.465   3.105  0.3061  0.0310  0.1146
16664W        W32848  16.494   6.682   2.180 -0.0076 -0.0964 -0.1097
16665W        W32849  11.433   4.886  12.048  0.1273 -0.1476  0.1072
16666W        W32850   6.423  16.042  12.258 -0.1658 -0.0046  0.0324
16667W        W32851   8.961  18.920   1.447 -0.3677  0.0076 -0.1684
16668W        W32852  10.398   9.525  12.533 -0.2990  0.3295  0.0950
16669W        W32853   4.415  10.127   1.751 -0.1920 -0.0681 -0.2010
16670W        W32854  12.932   1.574   1.973 -0.1162  0.2413  0.2754
16671W        W32855  17.184   1.552   0.533 -0.0880 -0.0378  0.3871
16672W        W32856  19.179   3.242   0.168  0.0906  0.1328 -0.1372
16673W        W32857  19.299  18.432  13.995 -0.3107 -0.0076 -0.0132
16674W        W32858   3.169  16.460  13.617  0.0613 -0.2270 -0.1496
16675W        W32859  19.113  11.698   5.579  0.1636 -0.1409 -0.1151
16676W        W32860  12.540  14.302   1.670 -0.0358  0.2930  0.0120
16677W        W32861  18.558  14.660  13.201  0.0141  0.3558  0.3588
16678W        W32862  15.007   1.668   3.193 -0.1635 -0.0100 -0.0685
16679W        W32863  13.719  17.846   4.195 -0.0642 -0.0404  0.0421
16680W        W32864   9.825  10.009  13.167 -0.3087 -0.3093  0.1456
16681W        W32865   9.417   8.046   5.293 -0.1701  0.0151 -0.3637
16682W        W32866   5.711   4.122  13.540  0.2127  0.1921 -0.0885
16683W        W32867   9.791   1.179  13.694 -0.0360  0.1482 -0.0889
16684W        W32868  13.998  17.031   0.501 -0.0613 -0.0275 -0.0317
16685W        W32869  14.649   7.665  11.422 -0.2922  0.1817  0.0624
16686W        W32870   9.110  14.098   5.740  0.1321 -0.2910  0.3835
16687W        W32871  12.713  10.614  14.080  0.0125  0.0695 -0.1386
16688W        W32872   9.189   7.597   1.235 -0.1503 -0.1040  0.3322
16689W        W32873   6.028   2.351   5.341 -0.2110 -0.2995 -0.2050
16690W        W32874  12.308   0.187   0.301  0.3461 -0.4841  0.0976
16691W        W32875   3.678  18.618  13.228 -0.1459 -0.0280 -0.0472
16692W        W32876   7.067  13.292  12.784 -0.5226 -0.1297 -0.3197
16693W        W32877  19.128   5.701   6.080  0.0680  0.0076 -0.1245
16694W        W32878  14.885   7.466   9.496  0.1320 -0.0895  0.1398
16695W        W32879   9.565   5.805   1.506 -0.1039 -0.0661 -0.1249
16696W        W32880  15.943  13.712   1.643 -0.0112  0.1905 -0.1886
16697W        W32881  17.774   1.386   3.288 -0.0274  0.0953  0.2988
16698W        W32882  16.043   2.299   1.744 -0.2307  0.2516  0.0195
16699W        W32883   2.403   3.184  12.686 -0.0235  0.2131 -0.0515
16700W        W32884   7.009   9.983   4.692 -0.5174  0.2333  0.2197
16701W        W32885  13.573   0.395  14.723 -0.1879 -0.0737  0.1738
16702W        W32886   5.985   8.824   4.484  0.0646  0.0406  0.1566
16703W        W32887  17.305  10.253   4.533 -0.1874 -0.2086  0.3785
16704W        W32888  17.906  15.488  10.715 -0.1252 -0.1168 -0.0525
16705W        W32889  17.222   2.989  13.961  0.1216  0.0338  0.0982
16706W        W32890  15.739   6.457   0.770  0.0428 -0.2101 -0.0811
16707W        W32891   3.854   5.387  13.169 -0.1490  0.2698  0.0997
16708W        W32892   8.053  19.319  14.928  0.0174  0.1137  0.2605
16709W        W32893  16.646   9.853  12.040 -0.0047 -0.1476 -0.1793
16710W        W32894  12.599  10.496  13.183  0.2064 -0.0840  0.0365
16711W        W32895  19.098  19.384  11.539  0.3080 -0.3154 -0.2476
16712W        W32896   0.274  10.006   1.253 -0.1852  0.0236  0.0503
16713W        W32897   1.611   1.430   9.653  0.0989 -0.1791  0.1068
16714W        W32898  16.202   2.620   0.337 -0.1048  0.1076 -0.1343
16715W        W32899   5.874   8.134   3.755  0.0033  0.0073 -0.1466
16716W        W32900  11.489   9.372   1.751 -0.1204 -0.1205 -0.1741
16717W        W32901   1.849   1.280   4.215 -0.4648 -0.5100 -0.4268
16718W        W32902  18.912  17.658  12.551 -0.1159 -0.0668 -0.1066
16719W        W32903  15.331  19.161  13.436 -0.0206 -0.2022  0.1234
16720W        W32904  14.260   0.474   4.375 -0.2093  0.0332 -0.3702
16721W        W32905   7.751  18.279   4.524 -0.0705 -0.0097  0.0107
16722W        W32906   8.242   9.950   2.174  0.2316 -0.0406 -0.0787
16723W        W32907  16.071  12.271  11.670 -0.1195 -0.0670 -0.1375
16724W        W32908  14.702   4.580  14.130  0.2093 -0.0036  0.0506
16725W        W32909   5.392   0.705   3.750 -0.1723  0.0294  0.0391
16726W        W32910  14.362   6.115  14.723  0.1947 -0.0778 -0.0019
16727W        W32911  10.093   5.204  12.462 -0.0342  0.0126  0.1030
16728W        W32912  16.583   6.509   1.463  0.0030  0.0809  0.2687
16729W        W32913  12.589   9.983   2.231  0.3236 -0.0918 -0.2323
16730W        W32914  11.933   6.873  11.739 -0.0985  0.3957 -0.1379
16731W        W32915  12.457   5.835   0.270  0.2313 -0.0068  0.3595
16732W        W32916   5.759  13.932  12.614  0.1148 -0.3023  0.0413
16733W        W32917  17.498   3.746   5.132  0.0386  0.1282 -0.0208
16734W        W32918   9.651  19.226  13.028 -0.1020 -0.0914 -0.1687
16735W        W32919   1.093  16.930   2.341  0.1057  0.0050  0.0327
16736W        W32920   2.969  15.064   3.509 -0.0377 -0.2681 -0.1254
16737W        W32921  11.027   0.349   4.659  0.0538 -0.1450 -0.0667
16738W        W32922   5.890   4.845  14.169 -0.0243 -0.1242 -0.0420
16739W        W32923  10.510   8.285  13.159 -0.0008  0.4480  0.4792
16740W        W32924  14.519   0.792   4.650  0.1092 -0.3291  0.0259
16741W        W32925  12.593  15.304  13.206  0.0947 -0.0543  0.0139
16742W        W32926  17.625  15.700   9.856  0.2283 -0.1405 -0.0803
16743W        W32927   4.887   2.350   1.129 -0.3138  0.1310  0.1724
16744W        W32928  16.997   1.617   0.023 -0.1428  0.1373 -0.3286
16745W        W32929  17.391  16.660   2.547  0.3738  0.0614 -0.1446
16746W        W32930   8.678   7.491   3.668  0.2484  0.2154  0.4197
16747W        W32931  10.826  19.214   0.353 -0.3508  0.2512  0.2775
16748W        W32932   8.711   2.273  12.254  0.1806  0.0497 -0.0040
16749W        W32933  12.893   9.367   3.022  0.0390  0.2472  0.4272
16750W        W32934  16.778   0.958   2.630 -0.1156 -0.1260  0.4035
16751W        W32935  16.110   1.371  12.581  0.0956 -0.2058 -0.0164
16752W        W32936  10.998   6.425  12.525  0.0654 -0.0011 -0.3946
16753W        W32937   1.970  18.205   4.028 -0.1937 -0.3987 -0.1107
16754W        W32938   6.177   2.445  10.422 -0.1413  0.1718 -0.0225
16755W        W32939  16.434   9.918   2.082 -0.0599  0.1947  0.2545
16756W        W32940  12.544   7.338   1.763  0.1008 -0.1502 -0.0470
16757W        W32941  15.684   5.994  13.354  0.0521 -0.0706  0.0283
16758W        W32942  10.141   8.476   0.498 -0.3191 -0.0290  0.0436
16759W        W32943  11.467  10.527  14.816  0.3380  0.0794  0.3643
16760W        W32944   1.200   4.246  10.853  0.1270 -0.1223 -0.0749
16761W        W32945   4.272   3.215   1.683  0.0122 -0.2393 -0.2512
16762W        W32946   7.394   2.397   1.398  0.2033  0.2834 -0.0918
16763W        W32947  16.804   8.569   2.161 -0.2480 -0.2279  0.1932
16764W        W32948   6.402   4.940   3.729 -0.0104  0.1860  0.2283
16765W        W32949  17.463  14.252  12.362  0.3632 -0.2158 -0.0010
16766W        W32950   0.504   7.442   2.006 -0.0194 -0.0699 -0.1757
16767W        W32951   3.130  11.472  13.581 -0.4044 -0.1223 -0.1412
16768W        W32952   9.703  19.126   3.479 -0.2541 -0.0362  0.0410
16769W        W32953   3.840   4.450   0.504  0.0938  0.0528  0.1575
16770W        W32954  14.184  17.950   0.581  0.4022 -0.2685  0.1025
16771W        W32955  15.517  13.747   0.825 -0.1971  0.0800 -0.0911
16772W        W32956   7.010  14.999   0.743 -0.2935 -0.1484 -0.0562
16773W        W32957   8.076  17.585  12.643 -0.0912  0.0925  0.0054
16774W        W32958   9.165   1.917  12.983 -0.0248  0.3282 -0.0633
16775W        W32959   3.299   4.389   5.264 -0.0107 -0.1802  0.3671
16776W        W32960  18.414   6.568   1.978  0.0334  0.2211  0.1538
16777W        W32961   6.863  10.586   3.732 -0.1055 -0.1523 -0.1485
16778W        W32962  12.588   7.658  12.262 -0.2800 -0.0290 -0.1565
16779W        W32963  13.668   2.620  11.803  0.4554 -0.0003 -0.0750
16780W        W32964  12.416  15.460   2.210 -0.1950  0.1194  0.2187
16781W        W32965   1.260  11.234   6.110  0.1406 -0.2206  0.1885
16782W        W32966  18.071  16.239  12.928  0.1364 -0.1867 -0.0849
16783W        W32967  18.467  18.107  14.275 -0.2024  0.0894  0.1263
16784W        W32968   1.906  19.327   0.573  0.2575 -0.1150  0.3525
16785W        W32969   6.263  18.011  13.750  0.2780 -0.2299  0.3338
16786W        W32970   3.044   9.665   3.254 -0.2772 -0.1559 -0.3463
16787W        W32971   4.537  13.282   1.907 -0.0906 -0.1609 -0.2189
16788W        W32972   0.794   9.928   1.709  0.2336 -0.1187  0.0384
16789W        W32973   4.274  18.649   1.204 -0.2766 -0.3143 -0.1228
16790W        W32974  15.688   9.517   1.500 -0.1104 -0.1586 -0.2402
16791W        W32975   2.257   1.234   2.206 -0.0981 -0.1500 -0.1470
16792W        W32976   9.155  16.310   1.471  0.3140 -0.2006 -0.2095
16793W        W32977  13.575   3.510   0.520  0.2311 -0.3762  0.0770
16794W        W32978   6.032   3.425  11.966 -0.2664 -0.2116  0.2998
16795W        W32979  12.143   5.312   2.881 -0.0857 -0.0278 -0.2684
16796W        W32980  18.248   9.681   0.560 -0.0654 -0.1356 -0.0452
16797W        W32981  18.601  14.550  10.262 -0.0861  0.0969  0.3599
16798W        W32982  18.886  16.517   4.334 -0.3160  0.1428 -0.1632
16799W        W32983   7.941   6.276  12.105  0.2767  0.2577 -0.0136
16800W        W32984   8.980  19.194   0.646  0.0199 -0.0013 -0.2275
16801W        W32985   0.995  12.788  11.535  0.3640  0.2528 -0.2041
16802W        W32986  11.223  18.848   2.691  0.1097  0.1352  0.1129
16803W        W32987   3.750   1.780   0.712  0.2353  0.3310  0.0360
16804W        W32988   1.817  17.950   1.012 -0.0365 -0.1584  0.3730
16805W        W32989  12.375   6.245  10.235  0.1296 -0.0444  0.1183
16806W        W32990   6.960   1.515   3.096 -0.4593  0.2306  0.1037
16807W        W32991   3.116   8.555   5.577 -0.0606  0.1417  0.1430
16808W        W32992  11.532  13.542  11.380  0.0525 -0.0094  0.0130
16809W        W32993  12.636   6.348   4.204 -0.2009 -0.1236 -0.0322
16810W        W32994   0.823   6.512  14.021 -0.2322  0.0616  0.0177
16811W        W32995  13.923   2.707  12.631  0.2116 -0.1665 -0.2288
16812W        W32996   8.754  15.625   2.911  0.0299  0.0137 -0.0616
16813W        W32997   8.018   0.066  14.455  0.0424 -0.1783 -0.0561
16814W        W32998   6.920  15.001  13.352 -0.0067 -0.0416 -0.1273
16815W        W32999  10.634  18.403   0.693 -0.2381 -0.0446  0.0656
16816W        W33000   4.727   7.950   1.669 -0.0566 -0.0559  0.1836
16817W        W33001  13.517  10.984   4.452 -0.2187  0.0738 -0.0523
16818W        W33002   1.695   0.288  12.966 -0.1139 -0.2766 -0.4123
16819W        W33003  17.576  16.111  14.865 -0.0746  0.0226 -0.1710
16820W        W33004   3.186   6.059   3.411  0.0239  0.0803 -0.2056
16821W        W33005  17.155   2.041   0.549 -0.0418  0.3719 -0.0376
16822W        W33006  14.726   7.157   3.328  0.0450 -0.3354  0.1897
16823W        W33007  16.133  19.317   0.082 -0.2044  0.2443 -0.1933
16824W        W33008  15.777   7.278   4.421  0.4784 -0.1424 -0.0142
16825W        W33009   8.232   0.138  14.030  0.1515 -0.2213  0.3355
16826W        W33010  13.850   7.486  11.142  0.1909 -0.2421  0.1302
16827W        W33011   8.354  10.677  12.681 -0.3039 -0.1870 -0.2516
16828W        W33012  15.154  14.449   5.362 -0.1258 -0.3486  0.3494
16829W        W33013   3.976   0.640  14.925  0.1791  0.1470  0.2227
16830W        W33014   5.689  12.340   0.920  0.0224 -0.0302  0.2107
16831W        W33015   2.079   1.202  13.872  0.0797 -0.4172  0.0434
16832W        W33016   4.748   4.151   1.023 -0.1415 -0.3847 -0.2998
16833W        W33017  10.602   5.844   1.213 -0.2214  0.2287  0.0020
16834W        W33018   0.614   9.620  12.560 -0.2734  0.0450  0.3843
16835W        W33019  18.293   1.139   3.287 -0.0898 -0.1323  0.0417
16836W        W33020  10.250  16.318   1.056 -0.0884  0.0290 -0.3698
16837W        W33021   0.333   0.442   0.838  0.0502  0.1934 -0.1126
16838W        W33022   0.619   3.508  14.819  0.0952  0.0732 -0.3383
16839W        W33023  14.300   4.313  12.470 -0.0460 -0.0616  0.0466
16840W        W33024   4.763   9.971   2.630  0.0286 -0.0455 -0.0255
16841W        W33025   8.165   4.485   3.478 -0.1054  0.1838 -0.0755
16842W        W33026  12.241  12.542   3.376 -0.3304 -0.2501 -0.1787
16843W        W33027   9.489  17.112   3.052  0.2333  0.4867 -0.1162
16844W        W33028   4.859  14.595  11.872 -0.1638  0.2901  0.0373
16845W        W33029  16.622   8.355   2.984 -0.0108  0.1163 -0.3100
16846W        W33030  14.869  14.606   2.770  0.3091  0.1061 -0.0182
16847W        W33031  17.903   6.878   0.629  0.0875 -0.1707 -0.1649
16848W        W33032   8.849   2.491   2.974  0.2680  0.1888  0.1484
16849W        W33033   8.027  18.983   3.084  0.0934  0.1522  0.1669
16850W        W33034   7.779   9.865  12.286 -0.1595 -0.0784 -0.1296
16851W        W33035   4.517  14.140  12.585 -0.0429  0.1171  0.3453
16852W        W33036  19.025  11.413  12.746  0.1733 -0.0696 -0.1123
16853W        W33037  16.251  17.239   9.640 -0.1122 -0.0349 -0.0182
16854W        W33038   5.346   8.125   5.308  0.0642  0.2858  0.1132
16855W        W33039  14.513   9.489  12.566  0.0134 -0.2562  0.1306
16856W        W33040   1.611   9.696  12.199 -0.1138 -0.1476  0.0183
16857W        W33041  18.907   5.022  14.293  0.0689 -0.1241 -0.5654
16858W        W33042  12.353  12.664  12.183  0.2509  0.0336 -0.1048
16859W        W33043   4.418  13.994   3.120  0.0430  0.1326 -0.1611
16860W        W33044  14.565  19.258   4.926 -0.0490  0.0693  0.1990
16861W        W33045  18.367  11.319  11.250  0.1340  0.4490 -0.1177
16862W        W33046  13.889   9.987   4.773  0.3209  0.0028  0.2814
16863W        W33047  11.036  11.276  13.291 -0.2993  0.2167  0.1751
16864W        W33048   6.830   4.267   3.974  0.1354  0.0176 -0.0318
16865W        W33049   4.525  18.968  14.274  0.0897  0.0058 -0.1245
16866W        W33050   2.776  11.473  12.796 -0.3421  0.1458 -0.1557
16867W        W33051   9.591  10.749   5.036 -0.0160 -0.0184  0.0777
16868W        W33052   5.891   1.031   0.104  0.0220 -0.0575  0.3137
16869W        W33053  12.399   1.976   1.719  0.1605  0.1799 -0.0169
16870W        W33054   3.652   0.914  10.996  0.1168 -0.1816  0.1306
16871W        W33055  13.636  14.587   0.899 -0.1388  0.2657  0.0283
16872W        W33056  15.252   1.626  14.070 -0.0498  0.0286  0.0020
16873W        W33057   4.072   1.163  11.077 -0.3432 -0.1173  0.1570
16874W        W33058   0.753   9.003  11.551  0.0145  0.1016  0.2501
16875W        W33059  14.350   4.692  11.855 -0.0099  0.2176 -0.1615
16876W        W33060   3.232  12.896  12.487  0.2678 -0.0939  0.2862
16877W        W33061  18.273   0.062   4.765  0.1183  0.2198 -0.1837
16878W        W33062   2.029   1.674   4.665  0.2608  0.2060  0.3553
16879W        W33063   2.108   0.009  10.547 -0.0327 -0.1168  0.0613
16880W        W33064  13.318   9.596  13.282  0.1376 -0.0982  0.2410
16881W        W33065   5.348   6.241   0.799 -0.2540  0.1600  0.1920
16882W        W33066   4.152   6.389   3.750  0.0719 -0.2857 -0.1812
16883W        W33067   1.794   4.561  12.202  0.0540  0.0202  0.2182
16884W        W33068  15.174  15.521   2.709  0.0336 -0.1429 -0.0744
16885W        W33069   0.687   1.760   1.858  0.0166  0.2563  0.1120
16886W        W33070  17.689   7.286  14.696  0.0183  0.0037 -0.2069
16887W        W33071  13.602   4.440   1.975  0.1863 -0.0142 -0.1773
16888W        W33072   1.877   5.262   6.064 -0.1066  0.3480  0.2307
16889W        W33073  12.561   8.268  14.409 -0.0059  0.2503  0.1792
16890W        W33074  10.463   9.389  12.029  0.0815  0.1870 -0.3294
16891W        W33075   9.596   0.915   0.822  0.1822  0.2575 -0.0110
16892W        W33076  18.898  15.763   2.369  0.0433 -0.0884 -0.1176
16893W        W33077  11.858   2.767  12.349 -0.1817 -0.3648 -0.2059
16894W        W33078   0.452   0.565   3.876  0.2961 -0.0110  0.2099
16895W        W33079  16.463  18.141   1.255  0.2937  0.3446 -0.1114
16896W        W33080  16.201   8.725  14.321 -0.0455 -0.1810 -0.2779
16897W        W33081   5.330  17.642   0.781  0.3311  0.2429  0.1348
16898W        W33082   6.812   8.650   5.946 -0.0512 -0.1682  0.0302
16899W        W33083  10.008  17.300   0.341 -0.2800 -0.3751 -0.1669
16900W        W33084  17.631   3.641   3.902 -0.2264 -0.1432  0.3161
16901W        W33085   7.589   6.769  13.315  0.0601 -0.0308 -0.0847
16902W        W33086   7.898   4.040  11.088 -0.3849  0.3431  0.0051
16903W        W33087  11.983   8.403  11.396  0.0646  0.1051 -0.1057
16904W        W33088  18.172   0.443  11.543 -0.1018  0.2510  0.3212
16905W        W33089  14.878  13.578  12.501 -0.2153  0.0567 -0.1943
16906W        W33090   7.441  15.940  11.012  0.0291 -0.0460 -0.0880
16907W        W33091   0.053   5.674   3.001  0.0901  0.1385  0.3275
16908W        W33092  16.854   3.025   2.429 -0.1825  0.2760  0.0642
16909W        W33093  12.834  13.478  10.199 -0.0293  0.0678 -0.3391
16910W        W33094   2.708  15.222   1.040 -0.1134 -0.3934 -0.3705
16911W        W33095  19.056   0.988  10.748  0.2820 -0.4522 -0.1883
16912W        W33096  13.967  15.843   3.139 -0.1648 -0.0704  0.0926
16913W        W33097   4.962  15.762  10.247  0.3248  0.1830 -0.1196
16914W        W33098  17.859  19.186   2.827  0.4743 -0.2649  0.0068
16915W        W33099   3.384   1.922  14.710  0.2293  0.0668 -0.0947
16916W        W33100  18.964   6.405   4.838 -0.2081 -0.3657  0.1795
16917W        W33101  14.032   3.801  12.397 -0.0046 -0.0338  0.2973
16918W        W33102  11.814   6.671  14.163 -0.0442  0.0193 -0.0100
16919W        W33103   2.058   9.408   1.691 -0.0075 -0.1192 -0.1063
16920W        W33104   0.058  14.622  12.280 -0.2679 -0.3180 -0.0903
16921W        W33105  12.105   1.562   0.460  0.2587 -0.2973  0.2724
16922W        W33106   2.421  15.974  11.188 -0.1875  0.0578  0.1335
16923W        W33107  17.032   3.972  10.975 -0.1998  0.2333  0.3356
16924W        W33108  19.353   5.392   1.666  0.3168 -0.0933  0.4573
16925W        W33109  17.150  19.269  12.418 -0.1392  0.0172 -0.1842
16926W        W33110  16.116  18.406   5.211  0.0573  0.0463 -0.2971
16927W        W33111   9.553  14.466  14.484 -0.0105 -0.0045  0.2163
16928W        W33112   9.092  14.755  13.078 -0.0341  0.1850  0.0272
16929W        W33113  10.329   7.740   2.183 -0.0955 -0.1212  0.1458
16930W        W33114  10.044  11.515   1.090  0.0085  0.1114  0.3430
16931W        W33115   8.769   5.424   0.358 -0.0675  0.0210  0.0368
16932W        W33116   2.403   3.947   2.546  0.0630 -0.2425  0.0537
16933W        W33117   5.939  12.778   3.141  0.0591 -0.0635  0.0300
16934W        W33118   1.677  12.488   1.448  0.0859 -0.0630 -0.3834
16935W        W33119   0.165   3.617   2.751 -0.0942 -0.0961  0.1538
16936W        W33120   0.900   7.747   2.010 -0.1102  0.0308 -0.4716
16937W        W33121   9.753  16.524  12.565 -0.3551  0.3584  0.0735
16938W        W33122  13.902  17.929   1.291 -0.0461 -0.5736 -0.0182
16939W        W33123   2.345   7.738  10.867 -0.0719 -0.0154 -0.1124
16940W        W33124  11.244   3.246  11.727  0.0673  0.1882 -0.1477
16941W        W33125   7.914  16.789   9.590  0.0743  0.0089 -0.1957
16942W        W33126  10.487   0.499   4.629 -0.1162  0.2997  0.0905
16943W        W33127  16.963   4.441   1.089 -0.1866  0.3182 -0.2875
16944W        W33128  14.108  13.985  14.075 -0.0719 -0.0853 -0.3641
16945W        W33129  16.852  12.623  11.424 -0.3393  0.0764  0.3555
16946W        W33130   2.482   5.647   3.256  0.2608 -0.0358 -0.0268
16947W        W33131   2.883   2.924   0.194 -0.3275 -0.0150  0.1230
16948W        W33132   5.385   7.977  11.840  0.0180 -0.1814 -0.1012
16949W        W33133   3.798   7.454   4.898  0.0830  0.0816  0.0369
16950W        W33134  10.937  19.165   3.442 -0.2109 -0.1782  0.1686
16951W        W33135   2.438   0.968   4.039  0.0786  0.1422 -0.2069
16952W        W33136   8.134  13.364  10.164 -0.0371 -0.0034  0.1039
16953W        W33137  18.322   6.862   2.987 -0.0792  0.0500  0.0705
16954W        W33138  13.092   5.439  12.443  0.0685 -0.0723 -0.0227
16955W        W33139   3.002  16.971   3.271 -0.0562  0.1146  0.2360
16956W        W33140  12.919  11.763   4.351 -0.0185  0.0732 -0.1016
16957W        W33141   0.065   2.805   4.977  0.0470 -0.0869  0.0339
16958W        W33142  17.574   7.656  11.990  0.1852 -0.2205 -0.0276
16959W        W33143  18.925  12.124  13.380 -0.0567 -0.2266  0.1055
16960W        W33144   3.958   7.226   4.013 -0.0715 -0.0173 -0.0105
16961W        W33145  13.136  18.059  14.377  0.2994 -0.4079 -0.0290
16962W        W33146   7.796   9.929   2.482  0.2422 -0.1667  0.0746
16963W        W33147  16.840  14.415   2.131 -0.0151 -0.2878 -0.2478
16964W        W33148   7.940   3.637   4.372  0.1001 -0.1930  0.0782
16965W        W33149   7.370  14.599   0.841  0.2518 -0.0433 -0.0344
16966W        W33150  15.927   4.031   9.928 -0.1129  0.2259 -0.3674
16967W        W33151   9.911  13.996   1.586 -0.1330  0.2124 -0.0656
16968W        W33152  11.533   1.078  12.440  0.0899  0.0639  0.1727
16969W        W33153  14.981  17.495  11.272  0.2432  0.2028  0.0027
16970W        W33154   6.119  10.801   4.427  0.2500  0.2844  0.0453
16971W        W33155   3.038   7.609   3.835 -0.1827  0.4071 -0.0298
16972W        W33156  19.296   4.779  12.277  0.2165 -0.3038  0.1192
16973W        W33157   8.765   2.053   0.025  0.1981 -0.0284 -0.0252
16974W        W33158  17.910  17.642   1.130 -0.2016  0.3031 -0.2648
16975W        W33159   6.078   2.286   2.807  0.0324  0.3677  0.0370
16976W        W33160   2.434   8.535  14.665 -0.1320 -0.1273 -0.0787
16977W        W33161  15.216   7.443   2.113 -0.1090  0.0814  0.0900
16978W        W33162  19.365   7.812   0.353 -0.0353  0.0745 -0.1173
16979W        W33163   8.793   8.606   3.094 -0.1688  0.2026  0.1334
16980W        W33164   7.973   9.113  10.115  0.0665  0.1619 -0.0491
16981W        W33165  16.046  15.096   2.297  0.1035  0.0885  0.0490
16982W        W33166  17.543  17.497   0.792 -0.2868 -0.0421 -0.0398
16983W        W33167   9.626  16.463  12.032 -0.0612  0.1234 -0.0066
16984W        W33168   8.672  12.947   3.710 -0.0020  0.1830  0.1450
16985W        W33169  16.993   7.155   3.846 -0.2609 -0.0100  0.1310
16986W        W33170   5.277   3.810   2.827 -0.3212 -0.2027 -0.0725
16987W        W33171  10.306  12.663   4.881  0.0118  0.1042  0.2587
16988W        W33172  14.252  12.628  14.490 -0.0859 -0.0192 -0.0308
16989W        W33173  10.616  16.642   1.388 -0.0105 -0.2092 -0.0260
16990W        W33174   1.175  13.796  14.909  0.0965  0.3158  0.0964
16991W        W33175  12.672  17.323  13.922 -0.2388 -0.2902  0.1676
16992W        W33176  14.589  18.742   3.330  0.0697 -0.2996 -0.2386
16993W        W33177  17.522  14.853   1.166  0.0652  0.2560  0.0610
16994W        W33178  18.603  14.450   1.710 -0.1799  0.4469 -0.0577
16995W        W33179   6.685   7.159   2.380 -0.3133  0.1064 -0.2145
16996W        W33180  15.639   2.193   3.954 -0.1365 -0.1013  0.0100
16997W        W33181   3.647  13.772   3.710  0.3490 -0.0556 -0.1462
16998W        W33182  17.726  19.309   0.029 -0.3836 -0.2542  0.1639
16999W        W33183   2.442  17.760  10.482  0.0436  0.1964  0.1335
17000W        W33184   6.130   7.076  13.800  0.0069  0.4645 -0.1011
17001W        W33185  16.558  15.861   3.351  0.1117  0.0821  0.2766
17002W        W33186   9.220   3.297   1.889 -0.3364 -0.0306 -0.0554
17003W        W33187   3.984  15.343   1.395  0.0754 -0.4387 -0.1291
17004W        W33188  17.766   0.326  13.686  0.0617 -0.1966  0.0838
17005W        W33189  15.578  17.556   3.903  0.0692  0.1958  0.0243
17006W        W33190  15.154   8.680  12.350  0.0510 -0.2501  0.1430
17007W        W33191  17.922  11.286   3.191 -0.1517 -0.3102 -0.0243
17008W        W33192   0.751   6.457  12.342  0.0292 -0.0882 -0.1768
17009W        W33193   9.372  17.292  11.914  0.0238 -0.0264 -0.1637
17010W        W33194  11.153   4.082   4.383 -0.2426  0.1650 -0.2494
17011W        W33195  11.755   9.339  10.554  0.4992 -0.0351 -0.1189
17012W        W33196   0.085  11.385   2.027 -0.2873 -0.0620  0.1726
17013W        W33197  17.355  15.437   3.196 -0.1633 -0.2337  0.1238
17014W        W33198  18.796  18.256  14.621 -0.2628  0.0107  0.1872
17015W        W33199   8.835  18.706   4.910 -0.0906 -0.0285 -0.2711
17016W        W33200   0.389  17.238   1.138 -0.2142  0.0802  0.0254
17017W        W33201   7.980  12.159   4.254 -0.1129 -0.1692 -0.1772
17018W        W33202  15.322   5.306   0.603 -0.0987  0.0147 -0.1449
17019W        W33203   5.776   3.425  10.735 -0.0738  0.0155  0.1450
17020W        W33204  13.525   0.614  10.665 -0.0930 -0.1412 -0.0155
17021W        W33205   8.459  12.334   4.439 -0.0363  0.0537  0.0813
17022W        W33206   4.279   5.665   4.636 -0.2736 -0.1348  0.2037
17023W        W33207   2.899   6.798   4.957  0.2735 -0.0302 -0.0709
17024W        W33208   6.671   8.898   2.014 -0.0510  0.3707 -0.3834
17025W        W33209   1.446   9.135   0.077 -0.0730  0.0267 -0.0231
17026W        W33210  18.148  14.405   1.480  0.2737  0.1384 -0.1381
17027W        W33211   3.375   6.615   4.206  0.1283 -0.4143  0.1138
17028W        W33212  16.477   0.901   1.205 -0.3251 -0.0413 -0.2240
17029W        W33213  11.897   2.373   4.182  0.1310  0.1048 -0.0188
17030W        W33214   7.328   9.584  12.407  0.0612  0.1912  0.2451
17031W        W33215  11.395  15.765   2.469 -0.2657  0.0530 -0.4338
17032W        W33216   9.614  14.212  10.280  0.1959 -0.4839  0.2702
17033W        W33217   5.680  16.511  12.323  0.0292 -0.2784 -0.2117
17034W        W33218   8.890  13.674   9.849  0.0730 -0.1126  0.1342
17035W        W33219   9.095  18.299   3.352 -0.0080 -0.1202  0.0438
17036W        W33220   1.134   5.179  13.621 -0.1599 -0.0468  0.3948
17037W        W33221   2.379   8.114  11.156 -0.0177  0.0822  0.5094
17038W        W33222   5.656   3.823   4.538 -0.3245 -0.0906  0.1968
17039W        W33223   7.322  13.927   9.903  0.2761  0.2087 -0.3024
17040W        W33224   7.941  16.081  14.760 -0.0816 -0.1980 -0.0718
17041W        W33225   0.456   8.131  12.400 -0.0164 -0.0504 -0.2563
17042W        W33226  15.095   9.726   1.631  0.0524  0.0257  0.1262
17043W        W33227   7.537  13.654  11.938 -0.2879 -0.0107  0.1281
17044W        W33228  10.068   5.087  10.644  0.0048  0.3179 -0.0684
17045W        W33229   7.766  17.795   4.517 -0.2258  0.0130 -0.0871
17046W        W33230  16.223   2.059   0.501 -0.1076 -0.0583  0.0093
17047W        W33231  18.350  11.189   0.832 -0.0035  0.0739  0.0521
17048W        W33232  14.371  11.694   0.635  0.1082  0.1725  0.1122
17049W        W33233  15.537  17.764   2.809 -0.3485  0.0129 -0.0193
17050W        W33234  12.888   6.283   0.740  0.0817 -0.3151 -0.2380
17051W        W33235   2.535  18.995   1.831  0.0960 -0.0311  0.1701
17052W        W33236   7.944   1.943   2.023 -0.2993  0.0762  0.2348
17053W        W33237   4.779   1.777  12.102 -0.1799 -0.0622  0.0988
17054W        W33238   4.128  14.427   3.817 -0.1220 -0.1039  0.1434
17055W        W33239   4.592  18.853  11.422 -0.0572  0.2330  0.0925
17056W        W33240  16.463  16.119  10.267 -0.0847 -0.0572 -0.0140
17057W        W33241  15.449   5.852   0.378 -0.1385  0.0828  0.2033
17058W        W33242   5.552   8.673   4.683  0.4150  0.0771 -0.1705
17059W        W33243  10.661   6.394   1.154  0.2061  0.1026 -0.2699
17060W        W33244  15.450  13.214  13.429 -0.1929  0.0675  0.2068
17061W        W33245   7.838   6.473   4.093  0.0979  0.1521 -0.2431
17062W        W33246   7.374  10.137   2.282  0.0023  0.1234 -0.2211
17063W        W33247   6.440   4.956  12.713 -0.0078  0.2964 -0.0561
17064W        W33248  13.949  15.814  14.403  0.0026  0.1555  0.2264
17065W        W33249  11.506   9.771   4.915 -0.1335 -0.1086  0.0971
17066W        W33250  17.420  15.330  13.330  0.1759 -0.1450 -0.2835
17067W        W33251  17.180   6.661  11.091  0.2648 -0.0860 -0.0191
17068W        W33252  12.060   3.701   5.622 -0.0247  0.2449  0.1929
17069W        W33253   4.944  15.989  11.666 -0.1755  0.1504 -0.1092
17070W        W33254  15.529   9.104   4.597  0.2723 -0.0994 -0.1272
17071W        W33255  16.634  15.432  10.902  0.3876  0.4045 -0.3306
17072W        W33256  18.447   2.693  12.987 -0.0949  0.1088 -0.3878
17073W        W33257   9.831   8.585  11.196  0.1248 -0.0746 -0.4172
17074W        W33258   3.243   3.381   0.329  0.0255 -0.0485  0.0163
17075W        W33259  14.798  18.881  13.314  0.0406 -0.0433  0.0058
17076W        W33260   0.129   4.137  11.181  0.0622 -0.1010  0.1940
17077W        W33261  10.719  18.285   9.339 -0.1030  0.2169  0.0902
17078W        W33262  11.022  15.997  11.753 -0.0905  0.2202 -0.3030
17079W        W33263   1.729  10.949  14.073  0.0348  0.0322  0.0221
17080W        W33264   5.457  11.370  13.663 -0.2315 -0.1481  0.2250
17081W        W33265   6.792  11.792  12.928 -0.1581 -0.1970 -0.0964
17082W        W33266   9.861  16.952  10.329 -0.1860  0.2665 -0.0195
17083W        W33267   2.330   7.038   1.910 -0.2018 -0.0819  0.0658
17084W        W33268  12.140   4.388   2.493 -0.0410 -0.2165  0.1972
17085W        W33269  14.297  18.345   3.315  0.3170 -0.1691  0.1696
17086W        W33270   9.636   0.232   2.587 -0.1225 -0.3136 -0.0634
17087W        W33271  12.351  17.877   1.411  0.0216 -0.1677  0.0998
17088W        W33272   4.299  15.397  11.491 -0.1701 -0.1001  0.0687
17089W        W33273  10.295  15.144  12.240  0.1306 -0.3876 -0.0673
17090W        W33274   2.296   4.472   3.757  0.1943 -0.2818 -0.0417
17091W        W33275  17.667   7.286   5.041 -0.0890  0.0148 -0.1853
17092W        W33276  18.543  16.243   4.109  0.0542 -0.1280 -0.3914
17093W        W33277   7.190   1.288   1.735 -0.1546 -0.2828  0.0483
17094W        W33278   0.508  14.180  14.706  0.0581 -0.1649  0.1078
17095W        W33279  13.059  10.359  14.898 -0.0652 -0.0076 -0.1224
17096W        W33280  12.324   5.447  11.025  0.2638 -0.0668 -0.0873
17097W        W33281   2.345  19.027   3.307  0.1092 -0.2074  0.2523
17098W        W33282   2.958  19.041  10.729 -0.1780  0.4930 -0.3299
17099W        W33283   8.731  11.933   2.964  0.0031 -0.0173 -0.0662
17100W        W33284   8.578   6.937   4.416 -0.0320  0.0181  0.0349
17101W        W33285   4.470   2.935  12.212 -0.0050  0.2422 -0.0941
17102W        W33286   3.975   7.581   3.286  0.2976  0.0828  0.4293
17103W        W33287   0.149   9.398  10.507  0.0416 -0.0730  0.2514
17104W        W33288   1.531   6.601  13.414  0.1233 -0.0293 -0.0586
17105W        W33289  10.152  12.632  10.297 -0.0443 -0.2885 -0.1002
17106W        W33290   0.423  18.542  13.860 -0.0031  0.3370  0.0041
17107W        W33291  18.280   6.555  13.276 -0.0418 -0.2807  0.1132
17108W        W33292   5.262   4.386   0.266 -0.1826 -0.1121 -0.0554
17109W        W33293  16.187  14.374  11.571 -0.1215 -0.0558 -0.3191
17110W        W33294  14.822   9.269   1.654 -0.0405  0.3573 -0.1012
17111W        W33295   3.544   8.516   4.092 -0.2058  0.2908 -0.2363
17112W        W33296   1.028  19.131   0.189 -0.0434 -0.0789 -0.3541
17113W        W33297   4.536  13.471   2.380 -0.1505 -0.0504  0.3206
17114W        W33298  13.423   8.917   1.005  0.0207  0.0936  0.1689
17115W        W33299  13.567  11.237  14.681 -0.1521 -0.0807 -0.0297
17116W        W33300   7.679  16.292  11.937 -0.1264  0.4026  0.2283
17117W        W33301   3.528   5.024   5.110  0.4239 -0.0741 -0.3422
17118W        W33302  19.261  15.858   2.788 -0.0236  0.0136  0.0573
17119W        W33303  11.541   1.537  14.208 -0.1657  0.3248 -0.1249
17120W        W33304   9.981  12.346   5.137  0.0254  0.0616  0.4811
17121W        W33305  10.461   4.873  12.730  0.1856 -0.1290 -0.0704
17122W        W33306   8.814  11.490   0.370 -0.1108  0.2578 -0.2788
17123W        W33307  14.682   2.869  11.552 -0.0897 -0.0883  0.0958
17124W        W33308   3.981  10.127   0.821  0.1121  0.2958  0.1620
17125W        W33309  18.747   6.511  11.233  0.0499 -0.4498  0.1579
17126W        W33310  13.028   3.593   5.463 -0.3678 -0.2407 -0.0001
17127W        W33311  18.393  18.168   1.043  0.3749  0.1275  0.1042
17128W        W33312   9.767   6.938   3.633 -0.1737 -0.1812 -0.0093
17129W        W33313   8.005   8.042   4.952  0.2312 -0.0883 -0.0778
17130W        W33314   7.469  13.804  13.642 -0.0189 -0.1471  0.2116
17131W        W33315   9.434  12.697   0.830 -0.2684 -0.1878 -0.0440
17132W        W33316  13.638  13.939  12.592  0.1297  0.1463 -0.1428
17133W        W33317   4.827   8.597  14.833  0.0438  0.0718 -0.0845
17134W        W33318   1.314  19.333   4.275 -0.2969  0.2939 -0.1430
17135W        W33319  15.833  14.110  12.238  0.0285 -0.3782 -0.0491
17136W        W33320  16.155   5.111  11.401  0.1050  0.1059 -0.1462
17137W        W33321   5.296   8.898  12.652  0.0042 -0.0544  0.1833
17138W        W33322  16.954  18.551  13.568 -0.2430  0.0154  0.0739
17139W        W33323   9.090   4.114  10.762  0.3037 -0.4794 -0.0756
17140W        W33324  16.471   3.826  12.526 -0.0425  0.2492 -0.1086
17141W        W33325   9.572   4.916   1.425  0.2495 -0.0365  0.0424
17142W        W33326  18.550  16.965  14.316 -0.0383  0.3531 -0.0299
17143W        W33327  13.099   7.108   4.890  0.0181  0.1265 -0.1454
17144W        W33328  11.517  12.056   4.957 -0.1744  0.0772 -0.1478
17145W        W33329   9.777  14.534   1.457  0.0912  0.1771 -0.1391
17146W        W33330   4.839  16.767   3.856 -0.1936  0.1397  0.3795
17147W        W33331   4.059  13.466  14.693 -0.0279  0.3336 -0.3325
17148W        W33332  18.090   2.152  13.515 -0.2942  0.2067 -0.1585
17149W        W33333   4.906   3.634  11.186  0.1129  0.2493 -0.2606
17150W        W33334  14.344   0.728  12.655  0.1914 -0.0764 -0.1366
17151W        W33335  14.557   0.781  11.597 -0.0713  0.0923 -0.1781
17152W        W33336   8.655  14.708   4.839  0.0181 -0.4286 -0.2643
17153W        W33337  14.620  12.320  11.647  0.1650  0.0752 -0.0836
17154W        W33338  17.496   4.522  11.351 -0.3289 -0.3422 -0.3450
17155W        W33339   0.906  10.986   0.565  0.3117  0.2270  0.1062
17156W        W33340   8.510  13.704  12.292  0.0012  0.1000 -0.1812
17157W        W33341   1.981   4.246  11.491 -0.0951  0.1992  0.1769
17158W        W33342  16.771   9.737   5.441 -0.0164 -0.1066  0.2448
17159W        W33343   4.477  12.126   0.125  0.0172 -0.0521 -0.1428
17160W        W33344   4.273  17.012  12.976  0.2379  0.0076 -0.0363
17161W        W33345  11.695   9.224   3.625  0.0433 -0.0891 -0.3915
17162W        W33346   5.451   2.982   2.980 -0.5764 -0.1157 -0.0945
17163W        W33347   9.556  17.655   2.146 -0.2286  0.0489 -0.0602
17164W        W33348  16.978  15.356  11.376  0.0579  0.1532 -0.1494
17165W        W33349  17.338   6.162   0.682  0.0729 -0.0075  0.0217
17166W        W33350  17.516  15.916   5.693 -0.0879  0.0195 -0.2170
17167W        W33351  13.517  16.932  10.102 -0.2507  0.0806 -0.1145
17168W        W33352  18.879   8.607   0.835 -0.0872  0.0803 -0.0620
17169W        W33353  16.728  11.009   4.796  0.3519 -0.2018  0.0719
17170W        W33354  10.652  10.516  12.963  0.3040 -0.1447  0.4017
17171W        W33355  10.966  13.705   3.776  0.1022  0.2378  0.1354
17172W        W33356  13.788   5.225   2.897 -0.2304 -0.2187 -0.3755
17173W        W33357   8.819  12.365   4.886 -0.1837  0.0106  0.0873
17174W        W33358   0.246  10.056  11.642 -0.1918 -0.3442  0.1627
17175W        W33359   9.496   2.021   3.071 -0.0762  0.1105  0.0394
17176W        W33360  17.263  11.436  14.196  0.0797  0.2722 -0.0393
17177W        W33361   8.907   6.911   0.085 -0.1022 -0.1288 -0.2240
17178W        W33362   8.451  12.419  11.161 -0.0823  0.0216  0.4059
17179W        W33363  12.688  14.337   2.730 -0.1823 -0.1393  0.1362
17180W        W33364   9.384   1.130  13.419 -0.0162 -0.1716 -0.0384
17181W        W33365  17.131   2.724  11.733 -0.1537 -0.1176 -0.0387
17182W        W33366  12.996  17.909   2.706  0.1355  0.1926  0.0512
17183W        W33367   8.412   0.658  14.068 -0.0999 -0.0293 -0.0245
17184W        W33368   4.521  18.944  13.163  0.3009  0.1083 -0.1362
17185W        W33369   5.524   0.134  11.725  0.0432 -0.0457  0.2791
17186W        W33370  19.351   8.109  13.979  0.0410  0.0703 -0.1213
17187W        W33371   5.453   2.863  10.612  0.2580  0.1534  0.2173
17188W        W33372   0.607  11.541   1.993  0.0620 -0.1513  0.1547
17189W        W33373  11.980   2.437   4.666  0.1356 -0.0477  0.0240
17190W        W33374   4.310   3.390   4.366 -0.1538  0.4039 -0.0899
17191W        W33375   3.852   0.284  12.321 -0.2096 -0.1536 -0.0329
17192W        W33376  16.998  11.084  12.678 -0.1483  0.1852 -0.1570
17193W        W33377   4.561  13.228   0.419  0.1810  0.3377 -0.1258
17194W        W33378   4.921   6.651  14.536 -0.1365 -0.1222 -0.4405
17195W        W33379  17.820   8.785   9.621  0.1794 -0.1101 -0.0219
17196W        W33380   7.153  15.589  14.188  0.1515 -0.3284 -0.0189
17197W        W33381   7.954  16.636  11.113 -0.2813 -0.2631  0.1352
17198W        W33382  19.335   7.461   5.094  0.0322  0.0520 -0.2297
17199W        W33383  11.824  14.006  11.846 -0.0455 -0.0010  0.1888
17200W        W33384  11.631   3.199   2.261 -0.0730 -0.0812  0.0714
17201W        W33385   6.091  13.587   2.950  0.1267  0.2686  0.2446
17202W        W33386   9.138  12.192   3.955 -0.2696 -0.0447 -0.1013
17203W        W33387  10.146  12.543  13.862  0.0896  0.0066  0.1789
17204W        W33388   1.213  16.410   5.662 -0.2694  0.0672 -0.3450
17205W        W33389  17.462  14.270   1.378  0.0528 -0.4411 -0.2412
17206W        W33390  13.641  14.189  14.544  0.2104 -0.0120  0.0436
17207W        W33391   1.572  11.139   0.171  0.0235  0.0787 -0.0441
17208W        W33392  13.999   8.760   3.702 -0.2000 -0.0838  0.0856
17209W        W33393   4.961   5.935  13.869  0.1931  0.2794  0.1698
17210W        W33394   5.932   1.655   3.853  0.2360 -0.1297 -0.0429
17211W        W33395  18.357   8.660   2.080 -0.3256 -0.1795 -0.1991
17212W        W33396  13.986  17.555   2.604 -0.4016 -0.3946 -0.5399
17213W        W33397  15.056   6.288   0.590 -0.1423 -0.0373 -0.0173
17214W        W33398  17.840  17.919  13.573  0.1066 -0.1558  0.1913
17215W        W33399   6.906  17.450   2.324  0.1847  0.0290  0.0801
17216W        W33400  17.359  12.949   1.182  0.0700  0.3570 -0.0180
17217W        W33401   5.327   4.231  12.189 -0.1528 -0.1020  0.0752
17218W        W33402   0.796  14.639   1.261 -0.0232  0.2323  0.0130
17219W        W33403   6.935   2.482  12.814 -0.0011 -0.3561  0.0314
17220W        W33404   7.267  11.782  13.554 -0.0442  0.2322  0.1617
17221W        W33405   5.005  15.216   1.126 -0.2341  0.0197 -0.0903
17222W        W33406  12.447   2.085   9.561 -0.1013  0.0002 -0.1060
17223W        W33407   5.964   9.213   0.324 -0.2452  0.2334  0.3349
17224W        W33408   0.605  17.461  11.896  0.1939 -0.0504  0.3750
17225W        W33409  16.187  17.750   3.588 -0.4006  0.1967  0.4166
17226W        W33410  12.133   6.047   3.518 -0.1165  0.1598 -0.2771
17227W        W33411   4.733   0.914   5.116 -0.2241 -0.3640  0.0201
17228W        W33412   5.080   0.208   2.264  0.0322  0.1967  0.0208
17229W        W33413  17.858  15.963   2.025 -0.1533 -0.1892  0.2063
17230W        W33414  10.917   4.271  12.608 -0.1505  0.1235  0.0632
17231W        W33415   2.532   0.398  10.531 -0.3829  0.0086 -0.2870
17232W        W33416  17.485   2.725   3.941 -0.0750 -0.0665 -0.1779
17233W        W33417   1.231  10.071  14.566  0.1947  0.0250 -0.2876
17234W        W33418   9.642  12.345   2.156  0.0467 -0.2816  0.1488
17235W        W33419   8.766  15.163   0.244  0.0960  0.1330 -0.1836
17236W        W33420   4.987  13.411  11.216 -0.2454  0.0929 -0.3396
17237W        W33421   2.513   1.308   3.214 -0.0908  0.3769 -0.1235
17238W        W33422   7.376   5.675   2.452  0.0106 -0.1813  0.2170
17239W        W33423   4.555  12.168   1.395  0.0298  0.0935 -0.1019
17240W        W33424   1.386   5.774   5.249 -0.1239  0.0987  0.0798
17241W        W33425   0.778  11.030  12.616 -0.1985 -0.3292 -0.0933
17242W        W33426  14.807   1.268  10.297  0.0368 -0.0258  0.1171
17243W        W33427   7.968  12.354   1.728  0.3666  0.2401  0.2193
17244W        W33428  12.495  17.742   1.906 -0.0195  0.2495  0.2963
17245W        W33429  17.077  11.528  10.754 -0.1162 -0.2357 -0.1917
17246W        W33430   8.404  17.075  13.393 -0.1383 -0.1430 -0.0491
17247W        W33431  11.577   1.857   4.056 -0.0839 -0.1390 -0.1314
17248W        W33432  17.596  11.604  13.903  0.1985 -0.4390 -0.2373
17249W        W33433  12.425  17.691   9.977 -0.0598 -0.1074  0.0461
17250W        W33434   6.524   3.260  14.545  0.0376  0.1023  0.4630
17251W        W33435   7.098   9.824  13.498  0.3054  0.0408  0.2571
17252W        W33436   4.428   8.018  11.713 -0.0774 -0.3114 -0.1089
17253W        W33437   4.963   0.975  14.344 -0.4712  0.1235 -0.1151
17254W        W33438  10.207  17.099  11.398 -0.1276 -0.2962  0.0934
17255W        W33439   9.199  12.781   2.212  0.1490 -0.0486 -0.0910
17256W        W33440   3.820  11.952  14.080 -0.1068 -0.1712  0.1845
17257W        W33441  11.779  10.522  12.208 -0.0758  0.0130 -0.0136
17258W        W33442  15.842  15.244  11.214  0.2726  0.2122  0.1971
17259W        W33443  11.669   0.766  13.460 -0.0214 -0.1277 -0.0788
17260W        W33444  16.093   1.374  10.264  0.0424 -0.2347  0.0787
17261W        W33445  17.436   6.292  13.299 -0.3145  0.1165  0.0755
17262W        W33446   8.518   7.276  14.237  0.2789 -0.2006  0.0724
17263W        W33447   7.866   7.224  11.571 -0.0232 -0.1517 -0.1774
17264W        W33448  10.805  12.630   9.524  0.2785  0.1988 -0.1370
17265W        W33449   7.668   8.329  11.276  0.3247 -0.2900 -0.0383
17266W        W33450  11.551  17.881  10.508  0.2664 -0.3852  0.0441
17267W        W33451   1.257  10.911  14.221  0.1804  0.4095  0.0247
17268W        W33452  13.749   9.800   1.193  0.2996  0.0322  0.2647
17269W        W33453  11.140  17.778   4.939 -0.1051 -0.1033  0.1598
17270W        W33454  11.188  17.289  14.726 -0.1226 -0.0997 -0.3019
17271W        W33455  17.653   3.901   2.901 -0.0175 -0.0407  0.1257
17272W        W33456  18.774  13.808  14.700 -0.0868  0.1106 -0.2476
17273W        W33457   4.546  11.565   3.373  0.5270  0.1931 -0.1510
17274W        W33458   9.196   7.904  13.083 -0.2947  0.1362  0.0268
17275W        W33459  15.381   4.635  10.855 -0.3677 -0.1900 -0.2203
17276W        W33460   2.914   8.084   3.040 -0.1729 -0.2637 -0.0349
17277W        W33461  19.133   1.443  13.900  0.0895 -0.1867  0.4230
17278W        W33462   4.444   3.393  11.325  0.1821 -0.2561  0.2983
17279W        W33463  17.768   9.877  14.424  0.1777 -0.1720  0.0387
17280W        W33464   5.024  19.172  14.922  0.3960 -0.4703  0.2533
17281W        W33465   1.468   6.689  11.246 -0.0131 -0.0869 -0.5466
17282W        W33466   3.542  11.047  12.433 -0.2606 -0.3418 -0.0844
17283W        W33467  15.642   3.569   3.350  0.0480  0.1085  0.0286
17284W        W33468  18.136  17.538  11.392 -0.2492 -0.0091 -0.3859
17285W        W33469   6.789  11.999   3.950  0.0658  0.2363 -0.0149
17286W        W33470  10.978   2.745   5.278 -0.1665  0.1002 -0.0045
17287W        W33471   7.997  12.759   4.882  0.0703  0.0544 -0.1968
17288W        W33472  18.224  14.428   4.600 -0.2797 -0.0156  0.0364
17289W        W33473   7.742  16.409  12.984  0.1712  0.2979  0.1102
17290W        W33474  18.252   3.427   2.466 -0.2268  0.2347 -0.2847
17291W        W33475  11.864   4.522  10.638  0.0567 -0.1073 -0.0477
17292W        W33476  13.364   3.737  11.745 -0.0049  0.3198  0.1210
17293W        W33477  18.651  15.817  14.162  0.0587 -0.1299 -0.0866
17294W        W33478   4.749   8.819   4.539  0.0362  0.1153 -0.0841
17295W        W33479  14.203   2.643  11.732  0.3498 -0.2836 -0.0268
17296W        W33480   2.915   8.027   4.671  0.1125 -0.0934  0.0167
17297W        W33481  16.768  14.088   1.251 -0.1483  0.2951  0.1901
17298W        W33482  18.778  11.614   3.228 -0.0102 -0.0593 -0.1136
17299W        W33483  10.772  12.744  14.743 -0.3798 -0.0887 -0.0340
17300W        W33484   3.238  12.402  12.924  0.0909 -0.0860  0.1654
17301W        W33485  10.530  17.141  10.370  0.0200 -0.0485 -0.0386
17302W        W33486  12.792   6.724   5.109  0.2415 -0.2808 -0.0322
17303W        W33487  18.143   3.927   5.551  0.1965 -0.3460  0.0570
17304W        W33488  13.254   2.092  10.277 -0.0384  0.0961  0.0253
17305W        W33489  15.474  12.877  11.843 -0.1257 -0.0186  0.1233
17306W        W33490  15.924   2.727  12.453 -0.0963 -0.0088  0.2164
17307W        W33491  19.125   2.437  13.520  0.1103 -0.0995  0.0197
17308W        W33492   9.415  14.668   4.740 -0.0361  0.2997  0.0149
17309W        W33493  11.989  17.108   2.874  0.0523 -0.0758 -0.3329
17310W        W33494   7.327  18.585   4.267  0.1949 -0.1204 -0.1347
17311W        W33495   1.462   4.899   0.614 -0.3260 -0.1202  0.2722
17312W        W33496   5.046   3.337  11.962  0.1222 -0.0686 -0.0237
17313W        W33497  18.021  18.827  14.635  0.2324 -0.0884  0.0163
17314W        W33498   1.765  16.636  13.569  0.2075 -0.3182 -0.0742
17315W        W33499  16.276  10.628  14.611  0.1678 -0.0215 -0.1749
17316W        W33500   0.363  11.466  13.628  0.3073  0.1739 -0.1491
17317W        W33501  14.504   9.031  12.284 -0.2763  0.0850 -0.2266
17318W        W33502  10.629   8.437  10.294  0.0507 -0.2213  0.0790
17319W        W33503   2.157   8.661  14.271  0.3912  0.3042 -0.0855
17320W        W33504  11.971   4.556  11.704 -0.0723  0.0540 -0.0773
17321W        W33505  17.513  15.282   4.466 -0.0910 -0.2650  0.1043
17322W        W33506   5.756   1.005  10.776 -0.3054  0.1647 -0.0584
17323W        W33507  14.280  17.387   3.665  0.3514 -0.0115  0.0271
17324W        W33508  10.413   8.120  12.370  0.0038 -0.1691  0.0425
17325W        W33509  16.777   6.248  12.269  0.2076 -0.2142 -0.1527
17326W        W33510  10.524   1.445   0.543 -0.0718 -0.0901 -0.1141
17327W        W33511  14.793   0.273  12.274 -0.3726 -0.1894  0.1371
17328W        W33512  15.726   6.438   0.271 -0.0520  0.1496 -0.0936
17329W        W33513  16.326   1.479   3.434  0.1583 -0.4211  0.1194
17330W        W33514  12.562   7.951   2.054  0.2115 -0.3861 -0.2536
17331W        W33515   0.512  10.118  12.720  0.1477 -0.3372  0.2391
17332W        W33516  15.497  13.393  11.230  0.1912  0.2890  0.1477
17333W        W33517   8.243  10.465  14.022 -0.5243  0.0760 -0.1568
17334W        W33518   5.061   5.416  11.145  0.1920 -0.0141  0.0388
17335W        W33519   0.682  19.067   3.077 -0.0009  0.4432 -0.0787
17336W        W33520  16.137   9.464  13.414 -0.1156  0.2405 -0.2646
17337W        W33521   2.414  19.214  10.159 -0.2927  0.0601 -0.0434
17338W        W33522  17.585   7.502  14.189  0.1386 -0.4309  0.2834
17339W        W33523   3.035   8.061  11.872 -0.0811 -0.0605 -0.1051
17340W        W33524  11.621  12.296   0.010  0.2985  0.2242  0.2558
17341W        W33525   9.686  12.812  12.488 -0.0000 -0.0396 -0.1413
17342W        W33526   7.947  17.129   3.949  0.4054  0.0542 -0.1845
17343W        W33527   2.073  18.221  14.748  0.0785  0.2571  0.2307
17344W        W33528   5.681   3.612  13.497  0.0533 -0.0054 -0.1323
17345W        W33529   9.589  19.273   9.113 -0.0446  0.1992  0.0984
17346W        W33530  16.140   0.486  12.601  0.0068 -0.2411  0.0612
17347W        W33531   2.396  18.329   0.782  0.2232 -0.0814  0.1117
17348W        W33532  13.512   0.709  13.817 -0.1339 -0.2688 -0.0473
17349W        W33533  13.129   5.701   3.437 -0.3414  0.3996 -0.1202
17350W        W33534  15.266   9.255  11.851 -0.0529 -0.3853 -0.1381
17351W        W33535  15.258   6.495   4.449 -0.0398  0.2192  0.2275
17352W        W33536  10.192   8.683   3.810  0.0817  0.0333 -0.0424
17353W        W33537  16.065   1.308   1.082  0.0169  0.1495 -0.2999
17354W        W33538  14.822  14.078   1.353 -0.0467  0.2202 -0.1593
17355W        W33539   5.962   7.434   1.620 -0.3295  0.2714 -0.0461
17356W        W33540   3.914   3.680   4.175 -0.2794 -0.4946 -0.0889
17357W        W33541  17.864  15.662   2.538  0.4080  0.2081 -0.0163
17358W        W33542   7.020   1.725   1.882  0.1837 -0.0603 -0.0891
17359W        W33543  14.927  17.853  14.268 -0.4768  0.1629 -0.0557
17360W        W33544   6.061   9.827   4.124 -0.3169  0.0614  0.3167
17361W        W33545   3.382  18.564  12.258 -0.3630  0.0026  0.2970
17362W        W33546  11.391  11.185   0.582  0.0355  0.0077 -0.1883
17363W        W33547   3.654  19.361  14.331  0.1247 -0.1953 -0.2000
17364W        W33548  17.741   4.592  12.394  0.1133 -0.0193  0.0904
17365W        W33549   0.048  10.368  12.582 -0.1943 -0.0806  0.2108
17366W        W33550  15.562   3.342  11.942  0.0623 -0.3174 -0.2220
17367W        W33551   6.111  15.058  10.858  0.4962  0.1694  0.1117
17368W        W33552  19.004   8.961  11.606 -0.0384  0.1157 -0.1527
17369W        W33553   0.479   1.080  13.590 -0.6209 -0.3706  0.3062
17370W        W33554   4.189   2.077   1.757  0.2932 -0.1557  0.2919
17371W        W33555   5.472   9.764   1.548  0.0737  0.1572 -0.3336
17372W        W33556  17.406  17.840  12.967 -0.1529  0.0245 -0.0726
17373W        W33557  13.976   5.369  14.521 -0.0483  0.1040  0.0896
17374W        W33558   5.097   9.184   3.362 -0.2107 -0.5273  0.0210
17375W        W33559   1.366   4.194   2.001 -0.3715  0.0064  0.0641
17376W        W33560   0.678   6.829  11.246 -0.1429  0.4112 -0.0115
17377W        W33561   6.507  16.449   1.585  0.0885  0.0748 -0.0242
17378W        W33562  14.844   3.945   0.089  0.4990  0.1649  0.4921
17379W        W33563   7.091  18.006  13.680 -0.2068 -0.1880  0.0518
17380W        W33564  16.392   2.312   1.317  0.2646 -0.2099  0.0565
17381W        W33565  17.432   8.477   3.847  0.0769  0.0582  0.0057
17382W        W33566   3.936  18.876   2.565  0.0946 -0.0207  0.1272
17383W        W33567   9.337   4.602   3.765 -0.0091  0.0245  0.0038
17384W        W33568  19.171  10.143   2.661 -0.3526 -0.0356  0.2811
17385W        W33569  14.745   6.104   0.165 -0.4529 -0.0813  0.1325
17386W        W33570   6.444  13.850   1.512 -0.3172  0.2763  0.1388
17387W        W33571   8.302  11.706  14.720  0.1974  0.0356  0.0247
17388W        W33572   2.270   1.652   2.892  0.2489 -0.0817  0.0297
17389W        W33573  13.434   9.650   0.819  0.3571  0.0001 -0.0381
17390W        W33574  10.918  17.227  12.435  0.1632 -0.1450 -0.0360
17391W        W33575  12.054  17.102  13.458  0.2879 -0.2284 -0.0918
17392W        W33576  17.963   2.865   3.172  0.1311 -0.1590  0.1572
17393W        W33577   8.836   6.953   2.043  0.0494  0.0717  0.2696
17394W        W33578  13.331   9.261   4.158  0.2849  0.2776  0.0072
17395W        W33579   1.056  15.629  11.151 -0.2701  0.0925  0.2495
17396W        W33580  16.542  18.114   1.796  0.0593 -0.1820  0.1371
17397W        W33581  13.024   0.258  13.898  0.2184  0.3935  0.1447
17398W        W33582   2.470   9.048   2.613  0.4192  0.0557  0.0648
17399W        W33583   6.693  13.312  12.243  0.1531  0.2782  0.3440
17400W        W33584   4.001   9.066  13.805  0.2354  0.1693 -0.0361
17401W        W33585  13.915   2.108  12.688  0.2185  0.1009  0.2316
17402W        W33586   1.650   6.550   2.199  0.2595 -0.1548 -0.0402
17403W        W33587   6.256  10.248   0.030  0.0933  0.1012  0.2475
17404W        W33588  10.149  18.688   1.201  0.2500  0.0042  0.0431
17405W        W33589   9.684   3.012  14.623  0.0040  0.2111 -0.0719
17406W        W33590  19.358   7.328   3.845  0.1132  0.2449  0.1370
17407W        W33591   0.511   9.774  13.089  0.0870 -0.1722 -0.0228
17408W        W33592  12.041  13.854  12.682 -0.3329 -0.0130 -0.0082
17409W        W33593  14.449  14.591   2.573  0.0141 -0.1161 -0.0733
17410W        W33594  18.635   4.558  11.706 -0.3693 -0.2240  0.1368
17411W        W33595   0.923   6.398   4.399  0.2879 -0.2092 -0.2091
17412W        W33596  15.417   2.468   1.060 -0.3086 -0.1243 -0.2008
17413W        W33597   8.196  18.803  11.688  0.0246 -0.2102  0.5599
17414W        W33598   6.322  11.659  13.812  0.0291 -0.2461 -0.4256
17415W        W33599   1.611   0.654   3.049 -0.0504 -0.1708  0.1231
17416W        W33600   7.319   1.005   4.005 -0.0160  0.0720 -0.4479
17417W        W33601   5.887  13.280  12.629 -0.0937 -0.1666 -0.1929
17418W        W33602   1.784  19.070   5.462 -0.0654 -0.0906  0.1771
17419W        W33603  12.154  11.033  10.221 -0.0281 -0.1235 -0.2499
17420W        W33604  17.116  18.423   2.885  0.1569  0.3806 -0.0608
17421W        W33605   5.793   0.142   5.202 -0.0568 -0.2522  0.4558
17422W        W33606   7.967   6.292   0.669 -0.1228  0.0132 -0.2133
17423W        W33607  11.461  13.276  13.956  0.0626  0.2535 -0.2066
17424W        W33608   9.181   0.083  13.007 -0.2122  0.0269 -0.0575
17425W        W33609   5.398   4.614   3.917 -0.2111 -0.2029  0.2720
17426W        W33610   4.944   1.149  14.909  0.1793 -0.1784 -0.0125
17427W        W33611  13.826   7.149   2.339  0.2241 -0.1816 -0.0361
17428W        W33612   5.621  10.732   3.524 -0.1606 -0.4554  0.1549
17429W        W33613   0.715  15.591  10.760 -0.0957  0.2949 -0.1316
17430W        W33614  10.646   2.412  13.804  0.3984 -0.0885  0.3041
17431W        W33615   2.999  19.203   4.621  0.2473  0.1975 -0.2959
17432W        W33616   4.614   0.342   3.469  0.1086  0.0521  0.0640
17433W        W33617  19.213  12.699   3.977  0.3317 -0.2833 -0.3206
17434W        W33618  12.835   8.815   1.186  0.0129 -0.1664 -0.3707
17435W        W33619   6.165  15.863  14.653  0.0037  0.0712 -0.0548
17436W        W33620  16.751  19.060   4.972  0.2653 -0.3231 -0.0277
17437W        W33621   7.537  16.199  13.472  0.0325 -0.0519 -0.0492
17438W        W33622  12.359   5.815   1.251 -0.2101 -0.3180 -0.6054
17439W        W33623   3.849   8.070  14.668  0.0198 -0.1164 -0.0086
17440W        W33624   1.921  15.108   5.552 -0.2822  0.0784 -0.2658
17441W        W33625   9.303  10.423   3.766 -0.1812 -0.1324 -0.1541
17442W        W33626  16.453   7.402  12.930 -0.1323  0.1970  0.0111
17443W        W33627   1.182   9.279  14.061 -0.1481  0.1105  0.0073
17444W        W33628  16.963   2.816  12.982  0.0423  0.0110  0.2270
17445W        W33629  17.165  17.195   3.432  0.0623 -0.2876  0.1694
17446W        W33630  17.941  14.268  10.990  0.1685 -0.1142 -0.1718
17447W        W33631   1.103   7.198  12.441 -0.2634  0.0418  0.0100
17448W        W33632   6.700  11.089   3.819 -0.0510 -0.0930 -0.3633
17449W        W33633   6.380   5.043   0.434  0.0480 -0.1611  0.0525
17450W        W33634  18.460   5.284  14.291 -0.0681  0.0392 -0.0449
17451W        W33635  19.153   1.617   5.898  0.2585  0.2904 -0.1908
17452W        W33636  12.844  14.117  12.089 -0.1916 -0.4198 -0.3183
17453W        W33637  12.324   1.089   3.694  0.0386 -0.2854  0.1542
17454W        W33638  12.779  11.606  13.352  0.0608 -0.1139  0.1592
17455W        W33639   3.420  14.209   3.879 -0.1978  0.5594 -0.2398
17456W        W33640  13.009  11.081   9.573  0.2335 -0.1592 -0.2003
17457W        W33641   0.722   0.940  11.429  0.2611 -0.0693  0.0152
17458W        W33642   8.101   5.326  12.920 -0.0691  0.1150  0.2133
17459W        W33643  10.395   7.596  11.896 -0.3200 -0.2218 -0.2446
17460W        W33644  11.812  18.962  14.148 -0.1292 -0.1746  0.1383
17461W        W33645  11.009  10.817   2.642 -0.1761  0.1942  0.2659
17462W        W33646  13.557   4.167  14.171 -0.3106 -0.2088  0.1322
17463W        W33647  18.855   2.215   5.372  0.4847  0.2283 -0.0517
17464W        W33648  16.990   1.145  14.837 -0.1319 -0.0618  0.3059
17465W        W33649  17.851  15.688  14.664 -0.0160 -0.2397 -0.2146
17466W        W33650  15.956   8.358  12.520 -0.0848 -0.1568  0.0229
17467W        W33651  17.945  13.414   2.367  0.1391 -0.1298  0.0111
17468W        W33652  14.583   4.406   4.555  0.1607  0.3678 -0.2162
17469W        W33653   5.057  11.795   2.110  0.2188 -0.1095  0.0914
17470W        W33654   8.432  17.557   3.021  0.1626 -0.0742  0.0550
17471W        W33655  12.526  12.835  13.245  0.3224 -0.3245 -0.0437
17472W        W33656   6.051   4.307   1.485  0.2015  0.0475 -0.0534
17473W        W33657   8.423   6.560   4.067  0.0979 -0.0252 -0.0181
17474W        W33658   1.569   2.826   2.694  0.0574 -0.2601 -0.1447
17475W        W33659   7.059  18.556   1.188  0.1322  0.1974 -0.0433
17476W        W33660  12.233   0.456   9.792  0.2747  0.2541 -0.0035
17477W        W33661  17.027   2.654   3.205 -0.0138 -0.0202  0.0243
17478W        W33662  16.351   9.209  12.046  0.5165  0.2564 -0.0973
17479W        W33663   3.337  16.008  12.649  0.4098  0.1188  0.0902
17480W        W33664   3.972   6.796  13.812  0.0304  0.0998  0.1945
17481W        W33665  15.693  15.921   4.623  0.0782 -0.1772  0.2550
17482W        W33666  12.608   7.145   2.232 -0.4312  0.0391 -0.3282
17483W        W33667  16.747   7.583   3.964 -0.2259  0.0316  0.1064
17484W        W33668  12.596   0.560   2.485  0.1518 -0.2244  0.1892
17485W        W33669   0.520   3.620   1.869 -0.0047  0.1230 -0.3212
17486W        W33670   4.101  16.227   3.210  0.0922  0.1541  0.1072
17487W        W33671   6.701   4.518   1.281  0.2454 -0.0291 -0.3148
17488W        W33672   6.940   4.955  12.563  0.0205  0.0353  0.0115
17489W        W33673   7.471  14.003   4.118 -0.3327 -0.0674  0.0582
17490W        W33674  17.622   1.317  11.635 -0.0268 -0.2349  0.2566
17491W        W33675   5.701   0.951   3.296 -0.2160  0.3835  0.6204
17492W        W33676  15.840   5.377  13.175 -0.0673 -0.0298 -0.0147
17493W        W33677   0.172   2.365  13.939  0.1071 -0.2516 -0.1125
17494W        W33678  11.014   5.656   1.431  0.1494 -0.1469 -0.1265
17495W        W33679   1.496  12.818  11.628 -0.1383 -0.0136  0.0063
17496W        W33680   0.447   3.359   1.456 -0.0484 -0.1945 -0.0501
17497W        W33681   1.493  18.211   1.391  0.1128  0.0389  0.0968
17498W        W33682  10.335   7.623  14.506  0.0357  0.2836 -0.0974
17499W        W33683   0.793  18.384   1.545  0.3397  0.3322  0.2542
17500W        W33684  14.213  10.539  13.850 -0.2252 -0.3896 -0.0469
17501W        W33685   1.561  15.020   4.175  0.0243  0.3440  0.0685
17502W        W33686   8.060   5.754   0.806 -0.0171  0.1323 -0.2084
17503W        W33687   4.456   1.032  14.883  0.1361 -0.0959  0.1677
17504W        W33688  13.375   2.148   2.106 -0.1030  0.0622  0.0047
17505W        W33689  10.118  15.397  14.803 -0.0821 -0.0688 -0.1369
17506W        W33690  19.168  11.867   3.964 -0.2000  0.0030 -0.1155
17507W        W33691   8.282   3.265   4.417 -0.0296 -0.1676 -0.5043
17508W        W33692   6.655   4.650  13.438  0.1907 -0.1370 -0.1500
17509W        W33693  10.688  11.242   3.396  0.0460 -0.0675 -0.1101
17510W        W33694   7.290  12.611   3.641  0.2294  0.1415 -0.1666
17511W        W33695   0.462   7.098   5.297 -0.1406  0.2418  0.1957
17512W        W33696  18.555  13.386  14.542 -0.4444 -0.0231  0.0703
17513W        W33697  14.721   1.645  14.026  0.0107  0.1210 -0.0286
17514W        W33698   3.550  18.052  13.984 -0.1116 -0.2183  0.2096
17515W        W33699  12.436  18.623   0.615  0.2553  0.2152  0.0060
17516W        W33700   6.204   2.727  12.231 -0.0216  0.5429  0.1068
17517W        W33701  15.393   8.394  13.788  0.0761  0.1188  0.0598
17518W        W33702  15.296   5.706   9.813 -0.0745 -0.1849 -0.0165
17519W        W33703   6.090   7.583   5.057  0.0463 -0.2227  0.2138
17520W        W33704   5.060  14.168   1.390  0.1230  0.0264 -0.1196
17521W        W33705   7.493   3.868   4.372 -0.0366 -0.0887 -0.0804
17522W        W33706  15.947   3.535   9.592 -0.2051  0.2229  0.0267
17523W        W33707  12.617   4.051   1.259  0.0453 -0.0386 -0.0675
17524W        W33708  11.179   8.238   3.048 -0.2755 -0.1729 -0.1604
17525W        W33709   0.026  15.569  12.850 -0.1510 -0.0911 -0.1114
17526W        W33710  13.173  15.157   3.337  0.0845 -0.1843  0.0479
17527W        W33711  13.637   6.005  13.488 -0.3299 -0.1190  0.0916
17528W        W33712   2.033  18.857  12.277  0.1503  0.2121 -0.0313
17529W        W33713   7.633  11.472  13.567 -0.2044  0.3240 -0.2424
17530W        W33714  11.041   1.925   2.669 -0.5142  0.0813 -0.0536
17531W        W33715   8.937  13.012   0.905  0.1194  0.2935  0.0814
17532W        W33716   2.964  16.158  14.061  0.0992 -0.1879 -0.0256
17533W        W33717   3.458   2.797  10.751 -0.0029  0.1794 -0.1440
17534W        W33718  17.115  10.961  12.021  0.3876  0.0965 -0.3201
17535W        W33719   8.393  17.260   3.900 -0.1176 -0.0391  0.0505
17536W        W33720  11.811   6.104   3.089 -0.1451  0.1437 -0.1190
17537W        W33721  12.650   0.287   1.692  0.3965  0.1782 -0.1724
17538W        W33722   2.674  16.752  13.511 -0.3197  0.0362  0.1712
17539W        W33723   5.325   3.918   1.953 -0.3310 -0.0372  0.0486
17540W        W33724  18.128  12.244  11.959 -0.0547  0.1376 -0.0948
17541W        W33725  18.880   7.738   5.393 -0.2163 -0.1696 -0.0332
17542W        W33726   8.178   5.104  14.506 -0.0667  0.1575 -0.1492
17543W        W33727   2.065   7.116  14.246  0.0775 -0.0535 -0.1899
17544W        W33728  10.270  15.150  12.865 -0.0511  0.2124  0.0474
17545W        W33729   4.812   5.002   2.150  0.0086 -0.1086  0.3621
17546W        W33730  11.587  18.336  11.918 -0.2068  0.0814  0.0536
17547W        W33731   8.644   9.481  11.495  0.2967 -0.0098  0.1100
17548W        W33732  17.369   9.335   4.267 -0.0557  0.4905 -0.3696
17549W        W33733  18.104   7.870   0.708  0.0302 -0.1140 -0.1201
17550W        W33734  18.695   5.171   5.160 -0.1649 -0.0748  0.3732
17551W        W33735  13.936   4.317  12.011 -0.1840 -0.0884  0.0844
17552W        W33736   5.361   5.220  14.706  0.1861 -0.3183  0.2875
17553W        W33737  16.074  17.207  14.889 -0.0961 -0.0899  0.3476
17554W        W33738  11.992  15.865   3.380  0.0867 -0.1913 -0.0008
17555W        W33739   0.917  18.813   1.934 -0.0001 -0.0556 -0.0676
17556W        W33740   6.561   4.293   4.400  0.1848  0.0222 -0.1623
17557W        W33741   2.983   7.663   0.940  0.4865  0.0255 -0.1755
17558W        W33742  15.165   7.258   3.468 -0.0621  0.1106 -0.1400
17559W        W33743   7.660   3.759  11.948 -0.0043 -0.0823  0.3423
17560W        W33744   1.595  18.952   0.416 -0.2610 -0.0151  0.3553
17561W        W33745  12.070   3.665  10.837  0.1725 -0.2621 -0.3412
17562W        W33746   8.729  11.960  11.284  0.1680  0.0246 -0.0487
17563W        W33747  10.350   7.687  13.768  0.0525 -0.0443 -0.2466
17564W        W33748   1.056   7.876   1.572 -0.3417  0.4490  0.0475
17565W        W33749   2.932  18.368   0.940  0.3246  0.2814  0.5703
17566W        W33750   7.547   3.044  12.143  0.2755  0.1349 -0.1012
17567W        W33751   5.226   4.856   0.243 -0.1508 -0.0392  0.2655
17568W        W33752  15.191  10.065   0.384  0.0684 -0.1789 -0.1581
17569W        W33753   4.064   9.393   4.175 -0.0437 -0.4181 -0.0304
17570W        W33754  14.904  17.901  12.515  0.0928  0.0426  0.0580
17571W        W33755   2.744   1.863  11.684 -0.0467 -0.1307  0.0082
17572W        W33756   6.887   9.765  12.701  0.2042  0.2706  0.0873
17573W        W33757   9.840   6.998   0.456 -0.2499  0.1633  0.0701
17574W        W33758   1.109  10.395   1.686 -0.0775 -0.0477 -0.0844
17575W        W33759   1.935   6.596   1.774  0.0442  0.2764  0.1416
17576W        W33760  14.115  16.913   2.132  0.0502  0.1238  0.1390
17577W        W33761   8.784  12.483   2.109 -0.1137 -0.0464  0.1446
17578W        W33762   0.159   6.012   3.428  0.0103  0.1519  0.1949
17579W        W33763  17.256   8.435   0.325 -0.2583 -0.2898 -0.0936
17580W        W33764   1.121   9.656  13.566  0.2401  0.4553 -0.1165
17581W        W33765  16.047  14.243   3.223 -0.4706  0.0585 -0.1337
17582W        W33766  16.162  10.190  13.076  0.3553 -0.2061 -0.0470
17583W        W33767  17.577  15.053   3.892  0.1128  0.4299 -0.1469
17584W        W33768   9.968   9.554   0.617 -0.0449 -0.1224 -0.0706
17585W        W33769  12.388   8.987   0.126 -0.2213 -0.2088  0.1709
17586W        W33770  18.095  15.838  12.637  0.3244 -0.1384 -0.1590
17587W        W33771   4.885  18.423   4.505  0.1633 -0.1075  0.1721
17588W        W33772  16.999  13.290   3.038 -0.1787  0.3077 -0.0982
17589W        W33773  15.282   4.903   2.561 -0.0788 -0.0222  0.1350
17590W        W33774   1.330   5.135   1.192 -0.2609  0.4320  0.1147
17591W        W33775   5.935  15.934   1.029 -0.0363  0.1792  0.2112
17592W        W33776  14.350   4.752  14.508 -0.1466  0.0904  0.0451
17593W        W33777   6.248  16.288   5.293 -0.3833 -0.2190 -0.0533
17594W        W33778   4.303   2.108   0.067 -0.1578 -0.1900  0.3129
17595W        W33779   6.030  11.946   1.754 -0.0125 -0.2594 -0.2450
17596W        W33780   1.209   9.762  11.872 -0.3554 -0.2259 -0.0387
17597W        W33781  12.121   8.785   3.715  0.0605 -0.0978  0.0744
17598W        W33782   8.034   2.973  12.227  0.0288  0.1989  0.0444
17599W        W33783   8.143  10.788   1.674  0.0385  0.0438  0.0697
17600W        W33784   6.554  16.173  10.776 -0.2185 -0.2558  0.0008
17601W        W33785  12.882   6.687  13.279 -0.1916  0.2775  0.2044
17602W        W33786   0.976  17.809  14.736  0.1407  0.1071 -0.0841
17603W        W33787   9.751  17.391  12.791 -0.3792  0.1595 -0.1658
17604W        W33788  13.373   7.085   0.448 -0.0328 -0.1631 -0.0063
17605W        W33789  12.116   4.804   3.520 -0.2289  0.4771  0.1475
17606W        W33790   8.364  10.376  10.844 -0.1498 -0.4406  0.1873
17607W        W33791  15.365   1.311   2.960  0.3710  0.1186 -0.1361
17608W        W33792  13.915  17.592   1.726 -0.2276 -0.2816 -0.0859
17609W        W33793  11.424  13.789   1.922  0.1486 -0.3163  0.0379
17610W        W33794  13.817  13.641   1.391  0.2812 -0.1963 -0.0728
17611W        W33795   1.968   7.316  12.857  0.0755  0.1512  0.1546
17612W        W33796   7.707   7.735   1.408  0.1582 -0.3169  0.0351
17613W        W33797  15.781   4.928   2.050  0.0020  0.0690  0.2546
17614W        W33798  13.906  14.078  13.618 -0.2468  0.0507  0.1301
17615W        W33799   3.350   0.352   1.745 -0.0301  0.0512 -0.2432
17616W        W33800  17.937  11.827  11.379  0.4084  0.0379 -0.2192
17617W        W33801   6.101   1.501  14.127  0.2586 -0.1122 -0.0393
17618W        W33802  10.918   8.012   0.690  0.1448  0.2962 -0.2942
17619W        W33803   6.317   9.180   5.593  0.0381 -0.4812  0.0178
17620W        W33804   2.917   2.508   4.487 -0.1195 -0.1804 -0.2600
17621W        W33805   9.291   6.429   3.722 -0.0907 -0.1127  0.1025
17622W        W33806   1.769  18.884  13.637 -0.0339  0.1696 -0.3034
17623W        W33807   9.458  16.769  14.558  0.2075  0.0826  0.3012
17624W        W33808   1.313   4.835  11.434 -0.3806  0.0128 -0.2023
17625W        W33809   7.646  12.761  11.629 -0.0748  0.1119 -0.1462
17626W        W33810  15.843   1.998   3.218  0.0382  0.4409 -0.1512
17627W        W33811   1.414  14.218  13.626 -0.0106  0.0344 -0.0531
17628W        W33812   7.697   2.831  10.571 -0.0794 -0.1526 -0.2754
17629W        W33813  17.320  14.270  10.387 -0.0781 -0.0908 -0.2103
17630W        W33814  16.452   4.464  13.605  0.0031 -0.1890 -0.0240
17631W        W33815   7.449  15.855   1.693  0.1141  0.2382  0.0275
17632W        W33816   8.143   9.135  14.421 -0.0301  0.2294  0.1011
17633W        W33817   8.515  14.249   1.181 -0.1073  0.0067 -0.1640
17634W        W33818  12.577  16.320   4.767  0.4156 -0.3191 -0.0930
17635W        W33819  16.884   0.932   4.119  0.0064  0.1757 -0.2597
17636W        W33820   2.081   0.510   0.371 -0.2830  0.0128 -0.3439
17637W        W33821   1.952   7.106  14.774 -0.0018 -0.2161  0.1909
17638W        W33822  11.396   8.209   3.946  0.1871 -0.1290 -0.1073
17639W        W33823  17.434   1.128  13.246  0.0627 -0.1520 -0.0155
17640W        W33824  11.830  18.872  13.702 -0.0450 -0.0436 -0.1171
17641W        W33825   5.200  14.346   3.262 -0.0054  0.1074  0.0899
17642W        W33826   4.301  13.606  13.338 -0.0498  0.0124  0.3036
17643W        W33827  18.963  16.514   1.034  0.3810  0.0015  0.0749
17644W        W33828   8.517   5.677  11.090 -0.0119 -0.0629  0.0034
17645W        W33829  14.173  11.009   0.477 -0.3229  0.1102 -0.2121
17646W        W33830  17.711   5.299  12.619 -0.0090 -0.0266  0.0458
17647W        W33831   5.291   7.939   3.644 -0.3490 -0.2042 -0.1119
17648W        W33832  13.928   3.846  11.802  0.1461  0.2281  0.0609
17649W        W33833   4.822  13.140   1.274 -0.0510  0.2273  0.0130
17650W        W33834  15.955  10.320   4.128 -0.0311  0.0859  0.0833
17651W        W33835   6.280  13.497   1.086  0.4452  0.1225  0.1569
17652W        W33836  18.195  16.753  11.731  0.0368  0.1457 -0.2541
17653W        W33837  17.410  16.881   3.820 -0.1141  0.1947 -0.0235
17654W        W33838   3.514  14.920   5.743  0.0776  0.3599  0.4041
17655W        W33839   7.513   4.385   0.007 -0.3197 -0.1682 -0.2654
17656W        W33840  11.715  11.227  13.882  0.3375 -0.0158  0.0424
17657W        W33841  14.594  10.884   0.259  0.0189  0.0537 -0.1125
17658W        W33842  13.121  11.003   3.144 -0.1647  0.2931  0.3791
17659W        W33843   4.972   0.705  12.315  0.1197 -0.0990 -0.0403
17660W        W33844  13.004  14.964   0.132 -0.0879  0.0443 -0.1489
17661W        W33845   0.586   8.809   0.599  0.1479  0.3041 -0.3895
17662W        W33846  16.618  14.058  12.808 -0.0596  0.1645  0.0498
17663W        W33847  11.191  15.504   3.229  0.0179  0.0150  0.2063
17664W        W33848   7.445   4.854   4.566  0.1549 -0.0077 -0.1675
17665W        W33849   9.606   7.342   2.756 -0.0900 -0.2512  0.0942
17666W        W33850  18.795   6.862   2.593 -0.0402 -0.1136 -0.2129
17667W        W33851  10.747  16.021  14.074  0.1396 -0.0619  0.2183
17668W        W33852   4.822  12.987  13.291 -0.0884  0.0806 -0.1804
17669W        W33853  18.385  12.031  10.632  0.2148  0.2555  0.1565
17670W        W33854   9.072  17.560  13.107  0.1336  0.1631  0.0138
17671W        W33855  18.217   5.952  12.338 -0.3538  0.1209  0.3519
17672W        W33856   3.734   0.120  13.105  0.4134 -0.2132  0.4043
17673W        W33857   2.796   1.721  10.906 -0.1383 -0.4845  0.2152
17674W        W33858   5.184  11.531  14.685 -0.0197  0.0770 -0.0100
17675W        W33859   1.938  10.059  13.478  0.0086 -0.0668 -0.1282
17676W        W33860   9.304  10.240   2.315 -0.2828 -0.1669 -0.0597
17677W        W33861  19.200  10.944   2.872  0.4535  0.1295 -0.1762
17678W        W33862  11.505   8.784  13.158 -0.3650  0.3100  0.0508
17679W        W33863  13.865  14.061  10.811  0.1230 -0.0534  0.2530
17680W        W33864   4.505   2.209  12.877  0.0827  0.0791  0.1050
17681W        W33865  11.140   7.388  14.370  0.0741 -0.0495  0.0807
17682W        W33866   7.442   6.396   3.291 -0.0314 -0.0002 -0.3383
17683W        W33867  14.337  12.622  11.274  0.1733 -0.1216  0.0067
17684W        W33868  18.365  12.447  13.334  0.0986 -0.2358 -0.0238
17685W        W33869   3.839   5.357   4.297 -0.0552  0.1895  0.1782
17686W        W33870   2.809  11.795   2.298  0.0815 -0.2550  0.0328
17687W        W33871  12.591   4.907  13.924  0.2184 -0.0730 -0.2598
17688W        W33872  10.547  11.941  14.553 -0.0117  0.0734  0.0124
17689W        W33873   0.939   1.567  14.342  0.0664  0.3055  0.1478
17690W        W33874   0.657  12.008   5.621 -0.1256 -0.0007  0.1893
17691W        W33875   1.737   5.648   5.699  0.0588 -0.0663  0.2005
17692W        W33876   6.810   4.425  14.350 -0.2370 -0.0725 -0.0776
17693W        W33877  14.637  11.969   9.816  0.0410  0.0238  0.0226
17694W        W33878   8.035   5.474   4.734 -0.2638  0.1654 -0.0083
17695W        W33879   0.541  12.896   4.541 -0.1143  0.1290  0.1053
17696W        W33880   9.605   4.453  12.538 -0.0172 -0.0175  0.2102
17697W        W33881  12.253  18.102  11.283 -0.1245 -0.4106 -0.2853
17698W        W33882  15.012  17.384  14.135  0.3634 -0.0207  0.2838
17699W        W33883  16.221   0.128   2.995 -0.1153 -0.0059  0.2751
17700W        W33884  18.770   1.304   3.411 -0.4047 -0.0511 -0.0094
17701W        W33885  14.474   1.688  10.972  0.3422  0.2649 -0.1242
17702W        W33886   4.405   7.871   2.430 -0.0716  0.0469 -0.1261
17703W        W33887  18.388   8.453   1.199 -0.4559  0.1242  0.1533
17704W        W33888   5.142  16.794   3.503  0.1819  0.2298  0.2710
17705W        W33889  16.622   2.925  14.524  0.1008 -0.1150  0.1253
17706W        W33890  18.851   3.271   1.960 -0.2759 -0.0052  0.3878
17707W        W33891   8.600   3.290   0.087  0.0007 -0.0200  0.0749
17708W        W33892  12.592  17.286  10.216  0.2867  0.0716 -0.2335
17709W        W33893   0.334   2.244   3.455 -0.1311  0.0207  0.0868
17710W        W33894   1.115   2.684  12.297 -0.1771  0.3055  0.0332
17711W        W33895   0.264   5.373   4.339  0.1440 -0.0840 -0.1461
17712W        W33896  17.741  15.764  14.123  0.1091  0.2968 -0.1790
17713W        W33897  16.637  16.728   3.668  0.3365 -0.1638  0.0468
17714W        W33898  13.171  12.838   3.168 -0.1414  0.4078 -0.1822
17715W        W33899  16.902   6.296  14.824 -0.1779  0.1699 -0.1722
17716W        W33900   4.559   9.394   1.844 -0.3017 -0.0015 -0.1034
17717W        W33901  13.838   9.064   2.870  0.0149 -0.0678 -0.2099
17718W        W33902  10.370   4.239   1.097 -0.0286 -0.0569 -0.0782
17719W        W33903  11.066  13.041   4.133  0.2581 -0.0751  0.2439
17720W        W33904  15.948  12.671  11.914  0.0148 -0.3053 -0.1964
17721W        W33905   3.698   4.897  13.244 -0.0863 -0.3242 -0.0823
17722W        W33906   9.610  11.999   0.069 -0.0990 -0.0601 -0.2150
17723W        W33907  19.078  15.115  11.525 -0.0386 -0.1848 -0.2191
17724W        W33908  10.915  14.926   2.971 -0.1796 -0.0760 -0.1530
17725W        W33909   0.682   9.378  13.436 -0.1405 -0.1882 -0.1086
17726W        W33910   8.856   6.959   2.544 -0.0169  0.0541 -0.2458
17727W        W33911   6.068  18.847  14.003 -0.1234 -0.0385  0.1146
17728W        W33912   2.763  15.596  14.715  0.2656 -0.0367 -0.0633
17729W        W33913  16.112  15.500  12.381 -0.0003  0.0479  0.3465
17730W        W33914   2.341  13.009  10.068 -0.1238  0.1960 -0.1429
17731W        W33915  14.606   4.422  10.753 -0.0769 -0.0196  0.2674
17732W        W33916  18.188   4.860   4.380  0.1584 -0.2755 -0.1674
17733W        W33917  10.156   9.017  11.851  0.2675 -0.1174 -0.1659
17734W        W33918   2.445  18.468   2.218 -0.2066  0.0553 -0.3077
17735W        W33919  14.527   3.612  11.080  0.2671  0.1564  0.1699
17736W        W33920  15.293   6.844   1.366  0.0700 -0.0394 -0.3964
17737W        W33921   6.161   9.736   2.323 -0.0084  0.0715  0.0177
17738W        W33922   9.540   5.941   3.531  0.0548 -0.0910 -0.0739
17739W        W33923  14.177   7.584   1.000  0.0520 -0.0928 -0.4929
17740W        W33924  13.061   1.600  11.760  0.0011  0.0435  0.0606
17741W        W33925  15.245   0.250  13.213  0.1203 -0.0868 -0.0574
17742W        W33926   0.851  17.330  13.696 -0.1140 -0.0394  0.0734
17743W        W33927  10.048   3.768  11.378  0.1053 -0.0752  0.1184
17744W        W33928   6.616  12.261   0.353 -0.4784  0.0646 -0.1207
17745W        W33929  14.455  17.457   9.922  0.1840  0.1710 -0.5869
17746W        W33930   8.218   9.332  14.882 -0.2512 -0.6412 -0.1249
17747W        W33931  12.192  15.633   0.876 -0.1466  0.0445 -0.0005
17748W        W33932  19.207  10.190   5.981  0.2625 -0.3064 -0.0757
17749W        W33933   6.412  18.018   3.268  0.2542  0.0159  0.0990
17750W        W33934  17.305   5.934   2.968 -0.0647 -0.0203  0.0750
17751W        W33935   7.085   0.851   1.267 -0.0342 -0.3268 -0.1642
17752W        W33936  11.393   1.465   9.553 -0.0234 -0.1680 -0.1871
17753W        W33937  11.480  11.759   3.156 -0.2433 -0.2846  0.0253
17754W        W33938   7.802   8.716  11.871 -0.0228 -0.1872 -0.1503
17755W        W33939   1.788   5.553   2.484 -0.3456 -0.2076 -0.1648
17756W        W33940  15.537  18.066  12.912  0.2320 -0.2042  0.2605
17757W        W33941  10.312   2.303  14.182 -0.0869 -0.1981 -0.2840
17758W        W33942  13.037   4.499   2.323 -0.0798  0.2974  0.2234
17759W        W33943   1.630  15.546   4.661  0.1177 -0.0068  0.0824
17760W        W33944  11.309  17.189   1.258  0.0811 -0.0634  0.0067
17761W        W33945  15.684   0.627   5.031 -0.1492 -0.2188  0.3701
17762W        W33946  17.901  13.547  13.570 -0.4383 -0.0877  0.1172
17763W        W33947   0.670  14.238   4.018 -0.0705 -0.0883 -0.3405
17764W        W33948  16.331  19.238  10.120  0.0367 -0.2133  0.1933
17765W        W33949   8.170  14.679   3.319  0.5968 -0.0961  0.3469
17766W        W33950   6.385   8.601   1.765  0.2293  0.1007  0.2144
17767W        W33951   8.100  15.750  13.013 -0.0259 -0.2486 -0.0278
17768W        W33952  19.003   7.173  12.432  0.2644 -0.0760  0.1856
17769W        W33953   9.092  15.712  10.839 -0.0984  0.0929  0.3868
17770W        W33954   2.196   8.379  13.679 -0.1075 -0.1235  0.1526
17771W        W33955   6.835   4.800   2.056 -0.0791 -0.0448 -0.0362
17772W        W33956   8.640   0.590   5.274  0.0077 -0.2502  0.3513
17773W        W33957   9.480   5.417  13.428  0.1467  0.1269 -0.2014
17774W        W33958   4.633  13.883   2.139  0.0674 -0.3738 -0.0697
17775W        W33959  18.088  12.411   5.142 -0.0945 -0.0926  0.0687
17776W        W33960   4.683  17.914  11.032 -0.1371 -0.0883  0.0488
17777W        W33961  12.194   1.712  12.401  0.0215  0.3673 -0.1449
17778W        W33962  13.568   2.716   0.666 -0.0999  0.1495  0.0619
17779W        W33963   7.708   7.739   4.615 -0.1880 -0.3619  0.3027
17780W        W33964   5.775   2.028  11.701 -0.1215  0.3402 -0.4834
17781W        W33965   3.916   8.097   2.415 -0.0942 -0.0733  0.1943
17782W        W33966  11.024  10.971   2.067  0.0025  0.1757 -0.1078
17783W        W33967   0.773   7.575   5.195  0.0418  0.1802  0.0824
17784W        W33968  14.193   0.097  13.084  0.2858  0.0072  0.2938
17785W        W33969  13.928  16.481   4.963  0.1486  0.1195  0.1411
17786W        W33970   7.162  12.053  13.166 -0.2493 -0.1039  0.1794
17787W        W33971   9.726  13.178   3.038  0.2344 -0.1140 -0.0660
17788W        W33972  16.297   2.400  12.245  0.2398  0.5773  0.2705
17789W        W33973   9.625  16.452   1.317  0.1189  0.3822  0.0029
17790W        W33974   5.311  12.008  10.720 -0.2784  0.1177  0.4071
17791W        W33975  14.898  11.120  14.848  0.1175  0.0685 -0.1546
17792W        W33976  15.045   5.610   1.879  0.2344 -0.0057 -0.3173
17793W        W33977   8.689  13.249  10.672  0.0749  0.0159  0.3373
17794W        W33978   8.387   6.583  12.540 -0.0670  0.2690 -0.0006
17795W        W33979  10.583   4.379   0.253  0.1667 -0.2978 -0.0034
17796W        W33980   2.165   0.104   4.186 -0.3312  0.0855 -0.1217
17797W        W33981  11.261   7.658   0.089  0.0033 -0.0970 -0.0450
17798W        W33982  12.218  14.720  13.416 -0.4426  0.2968 -0.2616
17799W        W33983  14.255  10.664  13.280  0.3501 -0.4004  0.2375
17800W        W33984  14.984  14.871  12.113 -0.0127 -0.0328  0.0926
17801W        W33985   6.650  16.336  10.190  0.0673 -0.1832 -0.1933
17802W        W33986  14.347  11.423   0.166 -0.2359  0.0007 -0.2835
17803W        W33987  19.269   9.246   3.884 -0.0018  0.3210 -0.1362
17804W        W33988  19.056   3.341   5.688 -0.1619 -0.0370  0.1843
17805W        W33989  12.372  13.493  10.400  0.2893 -0.2404  0.0686
17806W        W33990   2.974   7.803  10.975  0.0011  0.0733  0.1505
17807W        W33991   5.514  14.227   1.100 -0.0895  0.1054  0.1581
17808W        W33992  18.912  14.020   5.205  0.0357  0.0709 -0.0535
17809W        W33993   1.547  11.220   5.236 -0.2067 -0.2104  0.3483
17810W        W33994   5.448   7.557   2.186  0.2304 -0.1922  0.0606
17811W        W33995   0.822   2.010  14.462 -0.0320 -0.0491 -0.4035
17812W        W33996  15.663  15.437  12.627 -0.2985  0.1081 -0.2491
17813W        W33997   4.989  19.197  11.377  0.2256  0.1713 -0.1712
17814W        W33998  15.901   9.567  10.770  0.1612 -0.1331  0.1615
17815W        W33999  13.454  12.671   0.593 -0.1831 -0.1643  0.0736
17816W        W34000  10.558   5.861  13.553  0.0511 -0.0100  0.0531
17817W        W34001  17.375   8.995  12.767 -0.0575  0.4789 -0.1252
17818W        W34002  14.819   9.574  11.136 -0.5019 -0.1779  0.1885
17819W        W34003   6.564  16.922   0.526 -0.0211  0.2729  0.0790
17820W        W34004   4.589   6.720  10.714 -0.0342  0.2978 -0.3965
17821W        W34005  15.645  19.224   1.644  0.0505 -0.2363  0.1918
17822W        W34006   8.285  12.038   3.731 -0.0890  0.0015  0.3214
17823W        W34007  18.700  12.657  12.989  0.1465 -0.1025  0.0060
17824W        W34008  17.687  19.125   2.013 -0.2153 -0.0520  0.0302
17825W        W34009  14.956  14.492  11.448 -0.2645 -0.0520 -0.0722
17826W        W34010  12.548   4.033  10.699  0.0114 -0.0489  0.0395
17827W        W34011  16.665   5.634   1.210 -0.0876 -0.1778  0.1398
17828W        W34012   0.393  15.915   2.532  0.3230  0.1936 -0.1182
17829W        W34013   6.910  15.260  12.544  0.3185  0.4234  0.2634
17830W        W34014   0.006   3.216   4.227  0.0172 -0.1016 -0.1197
17831W        W34015  15.393  14.611  11.135 -0.0209 -0.0255 -0.1079
17832W        W34016  12.684  14.841  11.645  0.0880 -0.0976  0.0068
17833W        W34017   6.423  11.775   1.343  0.2008 -0.1342 -0.2283
17834W        W34018  14.977  15.162  13.814 -0.3726 -0.0264 -0.3096
17835W        W34019  16.752  16.315   4.673  0.0719  0.3970  0.1279
17836W        W34020   4.833   1.011   0.371  0.3134 -0.2238 -0.0948
17837W        W34021  12.007   2.785  10.587  0.0047 -0.1252  0.1485
17838W        W34022   5.858   6.036   4.164  0.2264  0.1435  0.1032
17839W        W34023  12.157   6.586  13.416 -0.0450  0.1002  0.0934
17840W        W34024  16.685  17.167   1.611  0.0897  0.1875 -0.1962
17841W        W34025   1.995  10.553   4.941  0.1293  0.0641  0.1095
17842W        W34026   7.527  11.331   0.398  0.1129 -0.0967 -0.0733
17843W        W34027   9.406  17.639   1.003  0.2038  0.3839 -0.0527
17844W        W34028   9.519   0.866   9.808 -0.2406  0.3088 -0.1134
17845W        W34029  15.503   5.250  13.836  0.2087  0.2375 -0.0012
17846W        W34030  19.177  10.263   3.391 -0.2051  0.1383  0.1700
17847W        W34031  17.903   3.216   2.105 -0.2981 -0.1759  0.1781
17848W        W34032  18.215  16.643  14.404  0.1186  0.1176 -0.0477
17849W        W34033   9.484   1.320   3.431  0.2666 -0.2175 -0.1838
17850W        W34034   8.396  19.306  12.601  0.2579  0.0784 -0.1234
17851W        W34035   7.029  11.570  11.440 -0.0929  0.0120  0.1279
17852W        W34036  17.756   1.815   2.271  0.1205 -0.1512 -0.0772
17853W        W34037  15.147  11.657  10.484 -0.2579  0.2167  0.3797
17854W        W34038  12.157   1.619   2.976  0.1562 -0.1316 -0.1422
17855W        W34039   9.272  12.471   1.810 -0.0923  0.0343  0.1877
17856W        W34040  14.403   1.464   1.271 -0.0318  0.3080 -0.2266
17857W        W34041   0.929   4.301   3.764  0.1745  0.0359 -0.0032
17858W        W34042  16.643  10.778  10.930  0.0435  0.3297 -0.0154
17859W        W34043  14.562   3.583   4.993  0.2464 -0.0458  0.2086
17860W        W34044   4.588  14.539  12.296  0.2337  0.1213 -0.0175
17861W        W34045   1.814  12.037   0.127 -0.3233 -0.1209  0.0638
17862W        W34046  16.352   9.011   9.811 -0.0230  0.2317  0.0205
17863W        W34047   3.891   5.953   3.523 -0.0281  0.0006 -0.3563
17864W        W34048   9.777  15.755   3.243 -0.0083  0.0510  0.2641
17865W        W34049  18.980  14.684   3.611  0.2499  0.3321  0.0535
17866W        W34050  14.468  18.013  13.003 -0.1527  0.0270 -0.0650
17867W        W34051   9.062  15.312  10.528  0.1983  0.0356  0.3197
17868W        W34052   6.787   4.518   5.239  0.0575  0.1005  0.5878
17869W        W34053  12.871   3.583   4.523  0.1839 -0.3202  0.1397
17870W        W34054  13.724   4.746  10.490  0.0545 -0.3199  0.0292
17871W        W34055   9.743  14.917  10.959  0.0844 -0.2634  0.0318
17872W        W34056   1.425   6.115  10.149 -0.1726  0.0611  0.1741
17873W        W34057   6.021  12.051   4.407 -0.1461 -0.0603  0.0724
17874W        W34058  14.624  11.237  12.720 -0.0509 -0.0824  0.1952
17875W        W34059  12.491  16.546   0.179 -0.2108 -0.2733  0.3545
17876W        W34060   8.668   1.353  10.983 -0.1746  0.0025 -0.0654
17877W        W34061  13.320  15.607  13.016 -0.0273 -0.0822  0.1653
17878W        W34062   1.726   7.103  13.369  0.1395 -0.1017  0.1879
17879W        W34063  12.915   9.562   4.739  0.0148  0.1227 -0.0828
17880W        W34064  12.691   0.873   1.792 -0.0157  0.0197 -0.3410
17881W        W34065  16.083  11.241  14.162  0.0694  0.1081  0.1898
17882W        W34066   4.328   6.330  11.953  0.0063 -0.2078  0.0695
17883W        W34067  10.877   7.421   1.512 -0.0109  0.1723  0.2404
17884W        W34068  13.822  15.530  13.061 -0.1742  0.0367 -0.1156
17885W        W34069  19.295   0.784  12.168  0.0688  0.0782 -0.1789
17886W        W34070  17.074   6.976   9.970 -0.3764 -0.0718  0.3332
17887W        W34071  13.688   0.680   2.568 -0.3951  0.1466  0.2500
17888W        W34072   8.571  18.212  13.823  0.3189 -0.1662  0.1226
17889W        W34073   7.407  18.971   1.811  0.0089 -0.0761  0.0505
17890W        W34074   9.693  10.097  10.506 -0.0661 -0.1121  0.0188
17891W        W34075   3.750   3.462   1.791  0.0699 -0.0860  0.0729
17892W        W34076  16.005   7.986  11.631  0.4789  0.1286  0.1406
17893W        W34077   1.934  11.267   2.124  0.2321  0.1332 -0.2000
17894W        W34078  13.544  14.611   1.434  0.0527  0.0069  0.0302
17895W        W34079   5.227  17.065  14.560  0.1020 -0.3570  0.1584
17896W        W34080  10.449   8.973   2.851 -0.1848  0.1085  0.0040
17897W        W34081   1.362  17.291   0.302  0.1715  0.1742 -0.2195
17898W        W34082   8.180   1.648  12.992  0.1326  0.0851 -0.1015
17899W        W34083  14.877  13.979  11.228  0.2375  0.0138 -0.1105
17900W        W34084  17.819   6.439   0.892  0.0545 -0.1748  0.0397
17901W        W34085   7.416  14.681  11.152 -0.0044  0.2137 -0.2773
17902W        W34086  18.589   7.148  14.220 -0.1497  0.3858  0.1742
17903W        W34087  14.090   6.508   3.073  0.2277 -0.1892 -0.4499
17904W        W34088  10.840  10.283  13.382 -0.0074  0.0145 -0.0162
17905W        W34089   4.044  15.372   4.107  0.1552  0.0448 -0.1084
17906W        W34090  18.714   2.063   2.182  0.3177 -0.2950  0.2055
17907W        W34091  13.162   0.582  11.674 -0.2122 -0.0148  0.0806
17908W        W34092  12.019   2.508   2.969  0.2277 -0.1639 -0.1052
17909W        W34093  16.345   3.759   2.209 -0.0424 -0.0050 -0.1320
17910W        W34094   4.355   0.652  12.255 -0.0697 -0.0141  0.1380
17911W        W34095  14.073   8.685  11.483 -0.0190  0.2785 -0.0811
17912W        W34096   7.771   8.435   5.221 -0.1962  0.1673  0.2074
17913W        W34097   2.310  16.881  12.871  0.0826 -0.0267  0.0233
17914W        W34098   4.138  11.041  13.963 -0.7043  0.0423  0.1666
17915W        W34099  16.404   2.710  10.583  0.1687  0.1105 -0.0427
17916W        W34100   8.556   8.492   0.601  0.0464 -0.0828 -0.1177
17917W        W34101  11.860   5.267   1.783  0.0480 -0.1980 -0.2915
17918W        W34102  15.328  17.733   1.960 -0.1580 -0.2555  0.0504
17919W        W34103  17.460   8.641  11.840 -0.1440  0.3520 -0.2833
17920W        W34104   6.161   3.271   0.262  0.0023 -0.0776  0.1071
17921W        W34105   0.417  14.732  12.809  0.1278  0.2010 -0.0545
17922W        W34106  11.925   8.920  11.302 -0.2363 -0.1813 -0.2202
17923W        W34107  16.223  12.136   5.574  0.0028 -0.1107  0.3689
17924W        W34108  17.210   9.032   1.945 -0.3658 -0.2382  0.2487
17925W        W34109   0.586  18.327   4.158  0.2176  0.1068  0.1519
17926W        W34110   7.885  11.478   2.971  0.0162 -0.2738  0.3310
17927W        W34111   3.260   8.789   0.302  0.0507  0.0850  0.2040
17928W        W34112   9.502   8.446   4.824  0.1971  0.1545 -0.2337
17929W        W34113  18.207  10.197   5.706  0.2857  0.0075 -0.0009
17930W        W34114   9.611   2.574  10.682 -0.0189 -0.0362  0.2210
17931W        W34115  15.307   5.105  14.593 -0.3045  0.0371  0.1461
17932W        W34116   3.922  11.216  12.792  0.2390  0.1743  0.1231
17933W        W34117  10.538  10.996   2.849 -0.0883 -0.0076  0.1285
17934W        W34118  10.427  10.786  10.863 -0.1105  0.1775 -0.2012
17935W        W34119  16.108  10.393   3.276 -0.1890  0.0684 -0.2123
17936W        W34120   4.098  16.113   0.599 -0.1515  0.1438  0.0111
17937W        W34121  16.202  16.881   4.682  0.1726  0.2904 -0.0128
17938W        W34122   9.159   3.004  13.249  0.3155  0.2807 -0.3765
17939W        W34123   9.203  10.165  11.997  0.2147  0.2520  0.1039
17940W        W34124  18.766   3.477  12.437 -0.1902 -0.1213  0.2070
17941W        W34125   9.990   4.886  13.822 -0.2912  0.0289  0.0859
17942W        W34126   6.770  15.828   0.321 -0.2369 -0.1771  0.1102
17943W        W34127   3.624   9.785   3.166 -0.1082 -0.0519  0.1138
17944W        W34128   3.171  11.382  14.625  0.2749  0.0579 -0.1664
17945W        W34129  18.520   1.406   0.964 -0.0564  0.0962 -0.0200
17946W        W34130  11.018   9.354  10.831 -0.0499 -0.0001 -0.0419
17947W        W34131  17.988   2.475  14.481 -0.1437 -0.0267  0.0332
17948W        W34132   4.956   9.127  12.348 -0.1095  0.0834 -0.1134
17949W        W34133   0.719  19.260   3.680 -0.0753  0.1768 -0.1715
17950W        W34134  17.254   9.820   4.236  0.2185 -0.0693  0.0750
17951W        W34135  15.224   5.785   2.335 -0.1058  0.1791  0.2223
17952W        W34136   0.339   4.799  14.813  0.3439  0.1581 -0.1206
17953W        W34137  11.784  14.311   1.228  0.0160 -0.0814 -0.1744
17954W        W34138   4.609  13.573  11.576 -0.1346 -0.2421 -0.3361
17955W        W34139  13.608   9.899  14.790  0.0368 -0.4065 -0.2124
17956W        W34140   0.115   3.878   2.282 -0.3222 -0.1713  0.0424
17957W        W34141   5.133  10.718   2.405 -0.4130  0.0441  0.0981
17958W        W34142  17.553   5.442   1.290  0.0446  0.1880 -0.0132
17959W        W34143   3.415   3.172   5.095 -0.0117 -0.1850 -0.1287
17960W        W34144   0.072  10.240  13.813 -0.1417 -0.2602  0.0995
17961W        W34145  14.820  18.298   3.313 -0.0801 -0.1495 -0.2391
17962W        W34146   8.935  12.277  12.992 -0.3395 -0.2468 -0.3371
17963W        W34147  11.244  15.344  13.922  0.1027  0.2394 -0.1497
17964W        W34148  11.080  18.493   4.368 -0.0269  0.0940  0.0693
17965W        W34149   3.975  13.223   3.670 -0.1785  0.1977 -0.3367
17966W        W34150   5.364   0.124   4.729 -0.1084 -0.3520 -0.4088
17967W        W34151  14.262  13.490   3.354  0.0748  0.1036 -0.3890
17968W        W34152   2.476   2.701   5.026 -0.0129 -0.0639 -0.0771
17969W        W34153  14.056   8.031   1.722  0.0735 -0.0270  0.0516
17970W        W34154   8.591  10.182   5.205 -0.0271  0.5347  0.3717
17971W        W34155  16.490   1.933  11.472 -0.2891  0.1474  0.0028
17972W        W34156  17.464  15.901   4.441 -0.3246  0.0093 -0.0927
17973W        W34157   9.557   7.397   1.002 -0.0666 -0.0179  0.0316
17974W        W34158   3.696  10.949  13.857  0.3133  0.0342  0.1383
17975W        W34159  15.631   3.301   1.362  0.0671  0.0267  0.1189
17976W        W34160  12.870  18.531   2.309 -0.4033 -0.0436 -0.0223
17977W        W34161   4.661  19.241  12.212 -0.4094  0.2104  0.3093
17978W        W34162  14.180  11.997   9.008  0.1487  0.1009 -0.1482
17979W        W34163  11.268   9.885  12.694  0.1121 -0.1975  0.0340
17980W        W34164  10.795   9.253  11.384 -0.0295  0.1816  0.1213
17981W        W34165  10.153  12.605  12.480 -0.1301 -0.1901 -0.2539
17982W        W34166  13.552  11.868  12.445  0.2997 -0.2646 -0.0286
17983W        W34167  10.546  16.344  12.584 -0.0427  0.2751 -0.1370
17984W        W34168  17.715   2.873  14.334 -0.0576  0.0901  0.0264
17985W        W34169  16.528   6.611  14.497  0.1746 -0.2027  0.1132
17986W        W34170  13.281  11.855  12.830 -0.1455  0.3488  0.0495
17987W        W34171  15.593   7.775  11.875  0.2804  0.0256 -0.0811
17988W        W34172   3.831  16.661   3.529 -0.0969  0.2106 -0.1091
17989W        W34173  11.962   1.912   4.479  0.0427  0.0019 -0.0448
17990W        W34174   3.469  18.839  10.835 -0.2030 -0.1085 -0.0017
17991W        W34175   4.354  16.336  12.310  0.1855 -0.1914 -0.0691
17992W        W34176  16.150  12.344  14.447 -0.1013  0.1322  0.1079
17993W        W34177  11.863   2.895  14.866 -0.2810  0.0744  0.2754
17994W        W34178   0.403   4.859   0.427 -0.0408 -0.2260  0.2436
17995W        W34179   4.584   4.353   2.846  0.0500  0.0694  0.2238
17996W        W34180   9.755   1.853  14.881 -0.0682 -0.2995  0.0714
17997W        W34181   2.240   6.799   1.118  0.1234 -0.1124 -0.1334
17998W        W34182   3.834  12.229  12.709  0.0428 -0.1454 -0.2713
17999W        W34183   6.159   2.682   3.065  0.8203 -0.0998 -0.0956
18000W        W34184  10.709  13.866  12.089  0.0584  0.0504 -0.0523
18001W        W34185  12.332   8.115  11.118 -0.0868  0.0181  0.0053
18002W        W34186   6.200  11.216   3.801 -0.1416 -0.0533 -0.1350
18003W        W34187   4.308  11.599   5.176 -0.0929  0.1778  0.1648
18004W        W34188  15.680   7.709  11.387  0.2965  0.0153  0.0602
18005W        W34189   9.606  17.873   3.349  0.0786 -0.0208  0.2731
18006W        W34190  17.966   6.122   1.278  0.1909  0.0850 -0.0311
18007W        W34191  11.978  16.846  11.352 -0.0127  0.0299 -0.3752
18008W        W34192  15.293  12.217  11.139 -0.0026  0.2635 -0.0520
18009W        W34193   9.865  11.504   4.733  0.0692  0.3843  0.1641
18010W        W34194   8.245  17.746   3.896  0.0436  0.1460  0.0370
18011W        W34195  14.572   5.068  13.746  0.0693  0.6324  0.2038
18012W        W34196   3.873   2.916   1.965  0.0711 -0.1966  0.2096
18013W        W34197  19.297   4.560   1.702  0.0684  0.0145  0.0339
18014W        W34198   7.083  13.518  13.247 -0.3292  0.1161 -0.0416
18015W        W34199   3.725   0.090   5.410  0.0145 -0.2545  0.0281
18016W        W34200   2.472  11.075   4.839  0.1573 -0.0515 -0.3466
18017W        W34201  10.042   5.846   1.447 -0.1096 -0.1023 -0.3820
18018W        W34202  18.073   7.568   0.194  0.0537  0.2406  0.2885
18019W        W34203  13.407   4.343   3.300  0.0645 -0.1075  0.0347
18020W        W34204   9.602  12.973  11.737  0.1810 -0.1827 -0.0781
18021W        W34205   2.790   8.818   5.321 -0.1469  0.1216  0.1909
18022W        W34206  10.325   7.032   4.685  0.1443 -0.0906  0.2975
18023W        W34207   1.096   6.085  12.194 -0.1800 -0.1418 -0.1768
18024W        W34208   1.951  12.965  12.500  0.0116  0.2567 -0.5018
18025W        W34209  14.479   9.832   0.367 -0.1613 -0.1127 -0.1334
18026W        W34210  12.261  15.838   4.670  0.0588 -0.0550 -0.0751
18027W        W34211   9.337  12.373   1.301 -0.0767  0.0631 -0.0222
18028W        W34212   6.945   9.484   0.148  0.5979 -0.0243 -0.1907
18029W        W34213  11.206  11.837   3.574 -0.0402  0.0041 -0.1121
18030W        W34214  10.542  14.044   5.516  0.0538 -0.1210 -0.1854
18031W        W34215  14.260  17.741  14.722 -0.4359  0.3198 -0.0145
18032W        W34216   6.738   2.735  13.333  0.0149 -0.1200 -0.1923
18033W        W34217   5.560   8.048   0.919  0.0955 -0.2284 -0.0987
18034W        W34218  13.741   6.160   2.774 -0.1744 -0.0390  0.6465
18035W        W34219  16.716  10.845  12.311 -0.1503  0.2868 -0.1290
18036W        W34220   2.810  19.154   2.615  0.0062 -0.1014 -0.0928
18037W        W34221   1.426  14.392   0.654  0.0069 -0.1530 -0.0516
18038W        W34222   7.792   5.060  12.596 -0.1480 -0.0220  0.1904
18039W        W34223  14.398   5.570   0.549  0.2324  0.1169  0.0017
18040W        W34224   8.462   9.864  10.986  0.0318  0.2497  0.2909
18041W        W34225  15.927   9.218   2.480  0.1571  0.1060 -0.0098
18042W        W34226   6.513   2.095  10.334 -0.1983  0.0299 -0.0042
18043W        W34227  16.154  11.391   3.200 -0.0566  0.0777  0.2150
18044W        W34228  12.510   9.656   0.499  0.0275  0.3014 -0.1418
18045W        W34229  11.802  16.730  12.683  0.1224  0.0905  0.0582
18046W        W34230   8.832  11.494   5.601 -0.2598 -0.2850 -0.1229
18047W        W34231  10.000   4.653   1.093  0.0016 -0.1204  0.0763
18048W        W34232   5.669   4.425   3.530  0.2424  0.0477 -0.1310
18049W        W34233   0.900   2.395   0.914 -0.0068 -0.1070  0.2830
18050W        W34234   2.120  17.560   2.363 -0.1133 -0.2199  0.2296
18051W        W34235   4.163   7.372   4.621 -0.4587  0.0102 -0.1473
18052W        W34236   5.113   7.666   5.271  0.0005 -0.1359  0.1075
18053W        W34237  11.772  14.077   1.670 -0.0707  0.1716 -0.4745
18054W        W34238  17.349  16.379   3.056 -0.0514  0.1845 -0.0154
18055W        W34239   1.835   4.950   0.945  0.1514 -0.1366 -0.0716
18056W        W34240  13.940   6.272  14.942  0.0892 -0.2422 -0.0234
18057W        W34241  15.503  16.274  10.443  0.2278  0.1989  0.2283
18058W        W34242  10.111  13.794   6.093  0.2348  0.3029  0.1226
18059W        W34243   1.602   1.530  11.467  0.3911 -0.1668  0.0086
18060W        W34244  18.039   3.620   4.283 -0.0529 -0.1359  0.1492
18061W        W34245  16.790   8.282   0.313 -0.0359 -0.1539 -0.1333
18062W        W34246  14.820   6.671  11.495  0.0864  0.1529  0.2214
18063W        W34247   3.584   6.143  12.600  0.3610  0.3895  0.1636
18064W        W34248  11.371   7.576   2.408  0.3442  0.4773 -0.1507
18065W        W34249  12.947  16.785  14.194  0.3690  0.2534  0.0085
18066W        W34250   7.220   8.564   5.648 -0.0274 -0.0962  0.1307
18067W        W34251  16.770  12.582  14.294 -0.0018  0.2164  0.2193
18068W        W34252   0.454   5.031  13.086 -0.2292  0.3463 -0.0253
18069W        W34253   1.041   0.667  12.461  0.0064 -0.2202 -0.1302
18070W        W34254   1.302  16.631  14.235 -0.1739 -0.0046  0.4605
18071W        W34255   1.000  16.329  11.947  0.2198  0.3368 -0.0775
18072W        W34256  18.937   7.821   0.186 -0.1968 -0.2944 -0.1667
18073W        W34257   2.809   7.193  13.057 -0.2452  0.2240  0.2414
18074W        W34258  15.370  18.718  14.743  0.0007 -0.0807  0.2325
18075W        W34259   4.179  14.063   1.869 -0.2424  0.1976 -0.0050
18076W        W34260   2.284   1.583  13.657  0.1764  0.0358  0.0387
18077W        W34261   9.748   5.145  12.995  0.3773 -0.2536 -0.1399
18078W        W34262   6.690   3.384  10.333  0.0735 -0.1833 -0.0467
18079W        W34263   5.768  10.428   0.922 -0.2524  0.1884  0.1717
18080W        W34264  16.878  17.043   3.995  0.2018  0.1328 -0.2196
18081W        W34265   7.097   5.027  14.907 -0.1698  0.0997 -0.1624
18082W        W34266  11.743   6.146   9.334  0.0050  0.1090  0.2638
18083W        W34267   7.451   1.162   1.348  0.0533 -0.0264  0.2356
18084W        W34268  12.864  19.115  12.513  0.0234 -0.2866  0.0546
18085W        W34269  14.096  13.191   0.175  0.1521 -0.1252 -0.0179
18086W        W34270   3.794  18.978   1.535 -0.1023 -0.2182 -0.0664
18087W        W34271  10.056   3.255   4.422  0.0443 -0.1633 -0.3048
18088W        W34272  18.894  12.507   3.244  0.1338  0.1759  0.1628
18089W        W34273   3.816   1.474  12.487 -0.1478  0.1151 -0.0479
18090W        W34274   6.983  16.793   2.229 -0.1328  0.2309  0.0014
18091W        W34275   4.955  14.391  11.367  0.2556 -0.0223 -0.1269
18092W        W34276  15.289   6.579  10.625  0.1591  0.0729 -0.0506
18093W        W34277   4.319   4.884  11.431  0.0415 -0.1639  0.0039
18094W        W34278   2.575  11.013  12.634  0.2918  0.2106  0.3052
18095W        W34279   4.997  13.587  12.180 -0.1678 -0.0682  0.1199
18096W        W34280   1.330  13.886   1.007  0.2764 -0.1374 -0.1739
18097W        W34281   7.802   5.682  14.501 -0.1508 -0.0177 -0.2026
18098W        W34282  11.104  13.337   2.520  0.0483 -0.3119 -0.2790
18099W        W34283   8.210   8.414  11.480  0.0473  0.1235 -0.2099
18100W        W34284  10.491   5.383   0.168  0.0821  0.0942  0.2002
18101W        W34285  18.332   7.917  13.833 -0.2833 -0.0027  0.1427
18102W        W34286  16.059   1.189  11.139 -0.1858 -0.0176 -0.0807
18103W        W34287  17.539   0.322  14.685  0.0200  0.3189  0.1428
18104W        W34288  17.413   8.870  13.940 -0.2560 -0.1807 -0.0437
18105W        W34289   4.308  16.545   3.496  0.4176  0.1125  0.0460
18106W        W34290  15.026  16.521  14.358 -0.1835  0.0770  0.1213
18107W        W34291   0.100   0.098  14.046 -0.1538 -0.2465 -0.1318
18108W        W34292  14.530  14.750  13.424 -0.0685 -0.0407 -0.0398
18109W        W34293   3.080   7.403   2.569  0.0791  0.1621 -0.2178
18110W        W34294   7.466  15.599   4.182  0.2413 -0.2203  0.2744
18111W        W34295  15.579  11.164   2.351  0.2187 -0.0691 -0.2670
18112W        W34296   0.754  15.686   0.002  0.0040  0.0054 -0.2451
18113W        W34297   5.059  18.762  10.555 -0.0057  0.1011 -0.3092
18114W        W34298   7.436   0.640   0.433 -0.3149 -0.2341  0.1916
18115W        W34299  14.058   1.506   2.448  0.1069 -0.1300 -0.2274
18116W        W34300  16.383   6.149  14.271  0.1177  0.2095  0.1187
18117W        W34301  10.292  15.718  14.102 -0.0748 -0.0191  0.1137
18118W        W34302  13.580   1.123   1.341  0.0671  0.1199 -0.1512
18119W        W34303  15.432   1.864   2.914 -0.0924 -0.2240 -0.1436
18120W        W34304   5.965  15.689   9.089  0.0574 -0.1879 -0.2402
18121W        W34305  17.280   7.334  14.938  0.6184 -0.0042  0.0179
18122W        W34306  13.458  10.247   3.773 -0.0889  0.1322 -0.3178
18123W        W34307  11.148  14.861  10.461  0.1046 -0.0312  0.0137
18124W        W34308  19.116  17.108  13.525  0.1944  0.1435  0.1034
18125W        W34309  14.375  10.672   2.547  0.2453  0.2863  0.2306
18126W        W34310   1.635  17.748  12.871 -0.2826  0.2926 -0.1613
18127W        W34311  15.912  13.614  12.204  0.0105 -0.2561  0.3010
18128W        W34312   6.336  17.009   2.941  0.0893 -0.3523  0.4321
18129W        W34313   8.254   2.221   5.312  0.1465  0.1711 -0.1981
18130W        W34314  17.230   1.494  11.441 -0.3854  0.1240  0.0195
18131W        W34315   5.138  12.749   3.039 -0.0978  0.1659  0.0848
18132W        W34316   8.592   2.481   1.082 -0.3726 -0.1112  0.1032
18133W        W34317  15.196   0.362   2.758  0.3276  0.1150  0.2838
18134W        W34318   5.910  16.169   3.513 -0.0171 -0.2217  0.1697
18135W        W34319   0.832   6.180  13.594  0.0268 -0.1330  0.3142
18136W        W34320   3.615  15.388  10.976 -0.0962 -0.0591  0.2150
18137W        W34321  11.636  17.021  14.768 -0.0052  0.1569 -0.0576
18138W        W34322  18.527   8.189   5.401  0.1366  0.4631 -0.1528
18139W        W34323   3.167  10.372  11.113 -0.3049  0.2660  0.1701
18140W        W34324   0.196  11.103   4.761 -0.1354  0.2307  0.3768
18141W        W34325   7.997   9.778  12.812 -0.0370  0.1596 -0.1370
18142W        W34326   2.949  19.289   0.931  0.0438 -0.2293 -0.0766
18143W        W34327   9.490  15.863   0.618  0.1538 -0.1004  0.4683
18144W        W34328   4.930  15.843  13.367  0.1756 -0.0763  0.0120
18145W        W34329  19.146   2.840   2.445  0.0587  0.0986  0.1538
18146W        W34330   8.629   7.189  10.919  0.0618 -0.1603  0.0346
18147W        W34331  10.426  19.192   1.440 -0.1665 -0.0816 -0.2857
18148W        W34332  18.357   6.149   2.252  0.1352  0.0777 -0.0631
18149W        W34333  17.334   2.639  10.464  0.1189 -0.0529 -0.4288
18150W        W34334  18.359  17.746   1.459  0.0351  0.0426  0.3530
18151W        W34335  16.755   9.841  11.162  0.2720 -0.1398  0.1677
18152W        W34336  17.619  13.707   9.115 -0.0834  0.0346  0.0611
18153W        W34337  16.868  17.053  11.769  0.1729  0.1848  0.2473
18154W        W34338   9.851  17.730   0.089 -0.4424 -0.0056  0.2439
18155W        W34339   3.952   2.997  11.986  0.1604  0.1943  0.2005
18156W        W34340  12.507  12.804  10.754 -0.0985  0.3126  0.0902
18157W        W34341   6.314  18.898  12.072 -0.1305  0.5830 -0.1134
18158W        W34342   1.365   8.010   2.053  0.0162  0.1893  0.0157
18159W        W34343  11.879   2.826   3.941  0.0005  0.0674 -0.1896
18160W        W34344  15.483   4.830  11.829  0.1382  0.2327  0.1664
18161W        W34345  10.023   7.636  11.575 -0.0095 -0.1258  0.1626
18162W        W34346   0.813  11.624   3.767 -0.2278  0.0166  0.1421
18163W        W34347  15.653  10.470  12.256 -0.1344 -0.0860  0.4489
18164W        W34348  16.378   7.559   3.072 -0.1520 -0.2151  0.0375
18165W        W34349  16.158   1.540   4.125  0.0528  0.2577 -0.1879
18166W        W34350   3.322   9.607  11.248  0.3501  0.1161  0.1490
18167W        W34351   4.273  17.143   3.222 -0.0799  0.1030 -0.1101
18168W        W34352  16.618  13.123   1.625 -0.2543 -0.1493 -0.0998
18169W        W34353  11.153   4.877  14.890  0.1203  0.2988 -0.5100
18170W        W34354   4.555  15.858  11.387 -0.1791  0.0747  0.2806
18171W        W34355   6.196  18.880   4.657  0.2736 -0.2068 -0.2529
18172W        W34356   4.210  14.187  11.178  0.0712 -0.1221 -0.0656
18173W        W34357  10.998  16.649  11.112 -0.0301  0.0819  0.3520
18174W        W34358  18.892  12.358   3.762 -0.0888  0.1204 -0.3703
18175W        W34359   2.190  14.173  12.344  0.0231 -0.1491 -0.3003
18176W        W34360  18.126   8.329  13.931 -0.0176 -0.3444  0.1287
18177W        W34361   8.364  14.072  12.621 -0.1356 -0.3611 -0.1988
18178W        W34362   7.269   8.475   4.129  0.2790  0.4783 -0.1361
18179W        W34363   5.614  12.853   1.002 -0.1731  0.0145  0.3256
18180W        W34364  18.233   6.321   4.006  0.2793  0.1570  0.0579
18181W        W34365  19.355  14.613   2.141  0.3631  0.1811  0.2689
18182W        W34366   8.380   3.611  10.597  0.1165  0.1784  0.0336
18183W        W34367   3.970  10.521  14.087  0.1539  0.1672  0.0544
18184W        W34368  14.343  14.981  11.524  0.2951 -0.1340 -0.0480
18185W        W34369  18.089   4.241  12.755  0.1910  0.1830  0.1746
18186W        W34370   9.056   5.400   2.168 -0.2044 -0.1205  0.4578
18187W        W34371  12.378   0.079  11.148 -0.0575 -0.3742 -0.0178
18188W        W34372   0.559  11.319  13.136  0.2777 -0.0733 -0.3870
18189W        W34373  15.339   4.874  14.084 -0.4059 -0.3206  0.0824
18190W        W34374  13.096  13.333   2.759  0.1797 -0.0955 -0.0223
18191W        W34375  12.858  11.702   3.333 -0.0592 -0.3963 -0.0159
18192W        W34376   6.680  11.600  13.385  0.1024  0.1484 -0.0727
18193W        W34377  15.092   8.779  13.605  0.2325  0.2304 -0.4443
18194W        W34378   1.028   7.308   2.735 -0.3272 -0.1796  0.2496
18195W        W34379  15.510   0.490  10.167  0.2292 -0.0348 -0.0358
18196W        W34380   2.833   6.617  12.973  0.0195 -0.0707  0.0404
18197W        W34381  17.213  16.490  10.278  0.3264  0.1386 -0.1576
18198W        W34382  16.670   6.353  11.769  0.0785 -0.0049 -0.2796
18199W        W34383  12.842  18.214  13.440  0.2440 -0.0127 -0.1397
18200W        W34384   3.440  15.982  11.590  0.0100  0.0769  0.1702
18201W        W34385  11.336   7.844   4.500 -0.0474 -0.0996  0.0044
18202W        W34386  15.162  11.325   2.584  0.1847  0.3738 -0.0267
18203W        W34387   1.389   5.562  12.084  0.4774  0.0295  0.2786
18204W        W34388  16.704  12.978   0.228  0.1688  0.0030 -0.2786
18205W        W34389  11.271   5.855  11.056  0.0466 -0.1982  0.1124
18206W        W34390   7.007   6.086   4.084  0.1082  0.0740 -0.0602
18207W        W34391   7.175  17.250  10.344  0.1709  0.2050  0.0517
18208W        W34392  12.159  16.496   4.555 -0.1720  0.4550 -0.0467
18209W        W34393   9.901   7.380  12.088  0.3774  0.1874  0.0633
18210W        W34394  18.128   4.694   1.743  0.3411  0.2448  0.0454
18211W        W34395  12.818  11.950  10.095  0.1969  0.1198 -0.5972
18212W        W34396   0.860   6.451   1.794 -0.1163  0.4263  0.4039
18213W        W34397   3.310  13.568   1.923 -0.0127 -0.0467 -0.0996
18214W        W34398   6.059  13.312  13.480 -0.1244 -0.2626 -0.1295
18215W        W34399  16.252   7.221   1.197 -0.1902  0.2688  0.1804
18216W        W34400  14.978   9.350   3.848 -0.3179  0.4500 -0.1069
18217W        W34401  12.824  13.028  14.682  0.1208 -0.1447  0.1971
18218W        W34402  14.891   0.602   1.065  0.3050  0.0347  0.0902
18219W        W34403  19.170  10.610  12.915 -0.0933 -0.0568  0.0208
18220W        W34404   3.068   4.996   1.427  0.2217  0.1025 -0.2366
18221W        W34405  11.691  14.016  12.369 -0.0337  0.0438 -0.1022
18222W        W34406  18.741   0.480   3.581 -0.0538 -0.0045 -0.0381
18223W        W34407  18.032  16.051  13.393  0.0650 -0.0398 -0.0458
18224W        W34408   6.201  13.945   4.600 -0.2338 -0.0158  0.3483
18225W        W34409   9.014  12.131  13.838  0.3299 -0.2368 -0.2566
18226W        W34410  18.101  14.833  13.257  0.0692 -0.0194  0.1879
18227W        W34411  12.231   2.111   5.489 -0.2222  0.0248 -0.1520
18228W        W34412   9.733  12.255   4.582  0.1136 -0.0614  0.0723
18229W        W34413  11.621   8.453   4.582  0.2096 -0.3202 -0.0370
18230W        W34414   2.848   5.519  12.792 -0.2454  0.0292  0.2035
18231W        W34415   8.531  16.661  10.631 -0.2850  0.0649  0.1637
18232W        W34416  10.657   6.537   0.704  0.1516  0.0983 -0.0007
18233W        W34417  18.067   8.363   4.477 -0.1841  0.2046 -0.0475
18234W        W34418   3.284  12.271  10.622  0.2409 -0.1669 -0.0799
18235W        W34419   9.218   9.191  10.868 -0.2573  0.1533 -0.0131
18236W        W34420  16.244  11.561   1.593  0.3545 -0.2437  0.0596
18237W        W34421   2.399   6.310  11.153  0.1648  0.1282  0.0508
18238W        W34422  16.108   5.591  10.347 -0.2248  0.1197 -0.1252
18239W        W34423  17.876  15.855   1.539 -0.0896 -0.2530  0.2468
18240W        W34424  19.060  17.696  10.085  0.1677  0.2569 -0.3250
18241W        W34425   9.096   3.168  12.438 -0.0601  0.0256  0.0005
18242W        W34426   3.907  12.785   6.249  0.1804  0.1323 -0.0007
18243W        W34427   6.716  17.118   1.001  0.2352 -0.1465 -0.1959
18244W        W34428  12.498   3.000   0.104  0.0425 -0.1682  0.1013
18245W        W34429   4.533  11.388   4.314  0.1657  0.4233 -0.0192
18246W        W34430   9.755   2.871   4.244  0.1404 -0.2923  0.3448
18247W        W34431   8.127   8.543  12.898 -0.1661  0.1215 -0.0912
18248W        W34432   1.288  18.585  11.572  0.2194 -0.2262 -0.1155
18249W        W34433   3.057  10.539  14.788  0.0886 -0.1519 -0.0391
18250W        W34434   3.067  13.178   5.821  0.0184  0.0866 -0.0823
18251W        W34435  16.522  19.095   5.536 -0.1155  0.2237  0.1052
18252W        W34436   8.208  14.154  14.842  0.1996  0.0339 -0.2419
18253W        W34437  13.297   5.120   4.350  0.0341 -0.0800  0.1538
18254W        W34438  18.940  14.805   3.010 -0.0053 -0.3613  0.2641
18255W        W34439   1.022   4.877  14.116 -0.1446 -0.2194  0.2709
18256W        W34440  18.707  14.111   0.743  0.2211  0.0858  0.0269
18257W        W34441   2.961   3.061   2.870  0.2655  0.1725  0.2474
18258W        W34442  15.479   2.060  12.852 -0.0910  0.2010  0.1723
18259W        W34443   4.390  11.904   4.132 -0.1079 -0.1389  0.1841
18260W        W34444  16.694   6.814  12.092 -0.0808  0.1739  0.0901
18261W        W34445   5.408  11.652  11.717  0.2402  0.2146 -0.1507
18262W        W34446   4.662  14.813   4.550 -0.4800 -0.1929  0.1141
18263W        W34447   3.992  11.285   0.567 -0.3258  0.0407 -0.0949
18264W        W34448  14.360  13.958   4.051  0.1832  0.0311 -0.2099
18265W        W34449   5.400   5.463   0.304  0.1388  0.0446  0.0978
18266W        W34450  19.245   9.643   0.594  0.1979  0.0399 -0.1633
18267W        W34451   8.273  15.618   0.539  0.2125  0.0993 -0.2240
18268W        W34452  17.871   0.885  13.597  0.0610  0.1374 -0.0208
18269W        W34453  10.311   8.623   0.012  0.1172  0.3017 -0.0644
18270W        W34454  11.697  10.410   3.214 -0.0026  0.0874 -0.1962
18271W        W34455   1.855   8.390   5.672  0.1632  0.1448 -0.0368
18272W        W34456   0.425  16.800   2.037 -0.1093  0.1458 -0.1329
18273W        W34457  17.155  12.624   5.061  0.0714 -0.4379  0.2493
18274W        W34458  18.694   6.948   2.026  0.0439  0.3518  0.1757
18275W        W34459  18.662   8.754  10.124  0.3375  0.2774 -0.0596
18276W        W34460  18.824   5.517  13.393  0.1992  0.2299  0.2120
18277W        W34461  14.410   7.884   2.064 -0.1077 -0.1992  0.4115
18278W        W34462   3.214  15.757   0.074 -0.4317  0.1722  0.0253
18279W        W34463   6.317  17.655   4.718 -0.0651 -0.1983  0.2923
18280W        W34464   4.044  18.553   4.283 -0.2771  0.2240 -0.3247
18281W        W34465  17.279  16.026  14.384 -0.4144 -0.1569 -0.3099
18282W        W34466  18.437  19.078  11.089 -0.2806 -0.0523 -0.2916
18283W        W34467  19.169   3.784   0.311  0.0667 -0.2858  0.2331
18284W        W34468   0.769   1.677   3.516 -0.3904 -0.1826  0.0682
18285W        W34469  10.566  17.378   3.661  0.1570 -0.0600  0.3499
18286W        W34470   6.927   5.589  12.232 -0.2309 -0.0277 -0.0812
18287W        W34471   1.200   1.954   3.516 -0.0535  0.1346 -0.0605
18288W        W34472   1.692  10.813  11.940  0.0850  0.1714 -0.0880
18289W        W34473   5.313  14.980  14.941 -0.4199 -0.1929 -0.1526
18290W        W34474  17.591  14.405  14.019 -0.3120 -0.4438  0.0527
18291W        W34475   1.320  12.751  11.039 -0.0191 -0.1175 -0.0674
18292W        W34476  15.885  12.006  12.077 -0.1565  0.0362  0.2665
18293W        W34477   7.104   1.754  13.140  0.1061 -0.1775 -0.2602
18294W        W34478   5.459   5.250   4.468  0.3220  0.4208 -0.1076
18295W        W34479  17.745  11.486  12.420 -0.1088  0.0266  0.1605
18296W        W34480   8.367  14.716   0.462 -0.0344  0.3927 -0.1414
18297W        W34481  17.756   0.271   0.716  0.3360  0.3461  0.3219
18298W        W34482   6.486  11.096   0.860 -0.1912  0.1743  0.0254
18299W        W34483  12.868   0.444   4.053  0.1431  0.1896  0.1002
18300W        W34484  13.236  14.827  13.172 -0.0862 -0.1394  0.0191
18301W        W34485   1.713   8.239  14.051 -0.0250  0.0842 -0.2800
18302W        W34486   2.248  16.666  13.324 -0.3267 -0.0195  0.0615
18303W        W34487   7.213  19.019  12.850  0.0611  0.2385  0.1465
18304W        W34488   2.102   6.002  11.443 -0.2446 -0.0010  0.1078
18305W        W34489   8.992  18.138   4.266 -0.0708  0.2443  0.4772
18306W        W34490   5.101   1.247   1.930 -0.0134  0.0966  0.1075
18307W        W34491  11.996   6.180   1.486  0.0074  0.0774  0.0361
18308W        W34492   4.542  16.247   0.977  0.0843  0.2461  0.3606
18309W        W34493  11.338   2.904  14.265  0.2312  0.0078 -0.0673
18310W        W34494   1.481  16.984   1.573 -0.3539 -0.2019  0.0760
18311W        W34495   5.932  11.786  12.191 -0.3268 -0.0605  0.1053
18312W        W34496  12.646  10.469   1.864 -0.3014  0.1372 -0.0762
18313W        W34497  16.207   5.078   0.259  0.0934  0.0738 -0.1602
18314W        W34498  11.796  19.304   0.916 -0.1945  0.0668  0.1899
18315W        W34499   9.116  12.666  13.698  0.1887 -0.1276 -0.0558
18316W        W34500   7.850  13.729   9.732 -0.0349 -0.0126  0.1156
18317W        W34501   0.133   3.564   4.513 -0.0036 -0.1285  0.0104
18318W        W34502  14.250   1.058   4.330  0.1467  0.2325 -0.0541
18319W        W34503  18.069   2.378   3.252  0.0473  0.0460 -0.1377
18320W        W34504  13.231   7.073   0.893  0.0339 -0.0767 -0.0160
18321W        W34505   5.599  12.085   2.500  0.0899 -0.2086 -0.0020
18322W        W34506  12.089   2.068   5.005  0.2046  0.0482  0.1536
18323W        W34507   0.117   7.487   1.542  0.5760  0.0532  0.0010
18324W        W34508  14.847  10.307  10.258  0.0294  0.3803 -0.5254
18325W        W34509   3.815  15.194   1.857 -0.2214 -0.1552 -0.2247
18326W        W34510   2.853   9.823  10.172 -0.2039 -0.0350 -0.1313
18327W        W34511  12.499  19.171  14.712  0.1562 -0.0430  0.2653
18328W        W34512   2.495  13.854  14.457  0.1508 -0.1052 -0.0265
18329W        W34513  12.129  11.952   2.560  0.2844 -0.1095  0.1908
18330W        W34514   0.212  15.855   0.944 -0.1115 -0.2490  0.0577
18331W        W34515  12.036  11.422  14.777  0.2392 -0.1370  0.1056
18332W        W34516   5.359   6.555  11.735 -0.0051 -0.2313 -0.0747
18333W        W34517   4.687  10.308   3.317 -0.1329 -0.0616 -0.1018
18334W        W34518   6.021  18.640   1.617  0.2888  0.1098  0.2331
18335W        W34519  18.227  14.925   5.193 -0.1102 -0.1863 -0.0449
18336W        W34520  19.276   7.028  13.204  0.1622 -0.1008  0.2827
18337W        W34521   5.792   7.220   3.873  0.0058 -0.1463 -0.1400
18338W        W34522   5.018  17.176  11.387  0.2144 -0.0878 -0.0752
18339W        W34523  19.291  10.635  10.537  0.0354 -0.0810  0.2661
18340W        W34524   4.761  18.560  12.331 -0.1687  0.4700 -0.1599
18341W        W34525   5.077   6.533   3.968  0.2327 -0.2832  0.0144
18342W        W34526  17.074   4.584  11.986 -0.1530 -0.6440 -0.0252
18343W        W34527  13.572  17.278   1.311  0.1023  0.2524  0.3492
18344W        W34528  18.448  17.599   2.145 -0.0657 -0.3224  0.0561
18345W        W34529   2.085  19.359   1.476  0.0442  0.0582 -0.3657
18346W        W34530  12.347   7.267  12.606 -0.0500  0.4823  0.2666
18347W        W34531   7.532  17.713   0.457 -0.0110 -0.1517  0.0269
18348W        W34532   2.225  15.120  13.783 -0.3230  0.2453 -0.0675
18349W        W34533   3.799   0.775   0.554  0.0046 -0.0113  0.0768
18350W        W34534  17.544   8.760  11.042 -0.2448 -0.0194  0.0584
18351W        W34535  10.844  14.753   3.628 -0.0011 -0.0333 -0.0600
18352W        W34536  17.856  17.763  10.006 -0.0472 -0.0365 -0.0952
18353W        W34537  16.741  10.656  10.417 -0.2206 -0.0585 -0.2658
18354W        W34538  14.262   2.040   4.470  0.2091  0.0420  0.2424
18355W        W34539  16.597   6.974   0.447 -0.0027  0.0484 -0.0779
18356W        W34540   8.603   9.693   5.314 -0.0480 -0.1550 -0.3139
18357W        W34541   5.080   0.624   2.991  0.1096  0.0464 -0.4064
18358W        W34542  10.385  10.734   5.246  0.2309 -0.2638  0.2508
18359W        W34543  16.741  13.257  12.249 -0.4264 -0.1670 -0.0254
18360W        W34544  17.258   2.640   2.289  0.0655 -0.3548 -0.1738
18361W        W34545  11.628  18.110  13.278  0.1524  0.1700 -0.3778
18362W        W34546  14.300  11.713  12.128  0.3187  0.0317  0.0961
18363W        W34547  12.869   7.858  14.398  0.0636 -0.0324  0.1369
18364W        W34548   1.230   9.050   1.303  0.2571  0.0014  0.0022
18365W        W34549   3.360  18.728   4.454 -0.1527  0.0405 -0.1745
18366W        W34550   1.512   0.643   0.190  0.1262 -0.0734 -0.2495
18367W        W34551   7.687   6.398   2.378 -0.2321  0.0150 -0.5911
18368W        W34552  17.154   4.266  14.950  0.0883  0.2323  0.3724
18369W        W34553  10.529   9.992   2.814  0.0047 -0.0433  0.1112
18370W        W34554  18.872  12.989  14.522 -0.0480  0.0234  0.3669
18371W        W34555   9.978   5.286   9.672 -0.0857 -0.0551  0.0149
18372W        W34556  10.276   2.958  10.231  0.0451 -0.1028 -0.1864
18373W        W34557   4.289   2.867  13.381  0.0758  0.2334 -0.1073
18374W        W34558   4.314  18.623  13.870  0.0329  0.2561  0.0540
18375W        W34559  15.366  13.311  12.046  0.0772 -0.0708  0.0382
18376W        W34560  15.615   9.601  11.738 -0.1908 -0.1368  0.1583
18377W        W34561   5.076   4.945  12.113  0.1379  0.3034  0.1555
18378W        W34562  18.608  12.252  13.749 -0.0768  0.1879  0.2104
18379W        W34563   9.960   0.728   0.323  0.2018 -0.0341 -0.0477
18380W        W34564  14.503   0.787  10.045  0.0660  0.1518 -0.3462
18381W        W34565   5.747   1.502  11.098 -0.2241 -0.0658  0.0879
18382W        W34566   0.008   1.529  12.917 -0.3817  0.1404 -0.0670
18383W        W34567  10.794   6.346  13.738  0.0390  0.1271  0.1100
18384W        W34568  19.174   5.157   1.198 -0.3444  0.1343  0.0109
18385W        W34569   0.085   6.032   0.293  0.1087 -0.0177 -0.0860
18386W        W34570  11.536  11.582  14.658  0.1557 -0.1368  0.2656
18387W        W34571   8.029   4.444   0.002  0.1141 -0.2582  0.2440
18388W        W34572   6.491   6.408   3.767 -0.2268 -0.0125  0.0719
18389W        W34573  11.423   5.263   0.082  0.0412  0.0022  0.2297
18390W        W34574  18.015   5.891  14.787  0.4082 -0.2536  0.2574
18391W        W34575  17.390  10.797  14.916  0.1160  0.0014 -0.0602
18392W        W34576   4.819   9.568   5.890  0.0100 -0.0910  0.0905
18393W        W34577   7.744   2.727   1.627 -0.1736  0.0856 -0.1067
18394W        W34578   1.922   5.563   3.845  0.0974 -0.0323  0.2267
18395W        W34579   7.422  18.768  12.007  0.1913  0.4116 -0.1415
18396W        W34580  12.957  15.872   2.798  0.2153 -0.0367  0.1256
18397W        W34581   1.993   3.183  13.505  0.2771  0.1696  0.3110
18398W        W34582  17.130   2.950   2.820 -0.1900  0.1730  0.1975
18399W        W34583   9.139  10.602  11.034  0.1298 -0.1879 -0.0955
18400W        W34584  14.494  16.818  11.208  0.1284  0.2237  0.0903
18401W        W34585   1.126   6.809   4.114  0.2392  0.1793  0.2619
18402W        W34586  14.236  11.302   3.269 -0.1525  0.0987  0.1994
18403W        W34587  15.525   8.145   0.767  0.0370 -0.3924 -0.2149
18404W        W34588   6.242   6.986  14.290  0.1338 -0.0383  0.0722
18405W        W34589  10.140   1.645   1.254  0.0394 -0.2354  0.2188
18406W        W34590  11.478   4.778   1.811 -0.1355 -0.1542 -0.1515
18407W        W34591  15.558   2.394   2.962  0.2447  0.2753 -0.0928
18408W        W34592   3.665   2.226   0.923 -0.4016  0.1269  0.4579
18409W        W34593  18.051   8.650  10.845 -0.1247  0.3677  0.0868
18410W        W34594  18.811  14.478  13.626  0.2295  0.2684 -0.0564
18411W        W34595  14.820  13.286  13.990 -0.0670  0.1732  0.0314
18412W        W34596  10.865   1.151   0.383 -0.3107  0.1822  0.1800
18413W        W34597   6.200  17.218   0.749 -0.1038  0.1069  0.1015
18414W        W34598  12.895  14.661   3.125 -0.0652 -0.2247 -0.1090
18415W        W34599   2.285  18.011   3.234 -0.2568 -0.2582  0.0857
18416W        W34600  18.077   2.762   1.848 -0.1185 -0.0403 -0.0165
18417W        W34601   0.723  12.886   0.104 -0.0795  0.0731  0.2216
18418W        W34602  18.068  12.735   0.746 -0.2411 -0.2241  0.2999
18419W        W34603   2.961  15.438   1.407  0.0624  0.2177 -0.0203
18420W        W34604  10.896  13.768   1.951 -0.3694 -0.0633  0.1260
18421W        W34605  14.154   9.814  12.689  0.0895  0.0907 -0.2566
18422W        W34606  10.879  15.219   0.925  0.0927  0.0128  0.2045
18423W        W34607  16.807  13.411   3.497 -0.1061  0.1410  0.3658
18424W        W34608  10.711  14.645   2.494  0.0125 -0.2966 -0.0783
18425W        W34609  12.114   4.234   4.769  0.1219 -0.2254 -0.1211
18426W        W34610   5.350  17.570   1.238  0.3101  0.2480 -0.1140
18427W        W34611   6.508   7.198  14.723 -0.0897 -0.1779 -0.2459
18428W        W34612   0.384  11.125  14.461  0.0155 -0.4313 -0.3401
18429W        W34613  10.053  10.013   5.173  0.1613 -0.0854  0.3102
18430W        W34614  12.088  11.050   0.735  0.1289 -0.2453  0.0009
18431W        W34615  10.403   2.526  11.363  0.1124  0.2200 -0.2044
18432W        W34616  13.687  18.619   1.333  0.0968  0.3685  0.0755
18433W        W34617   2.012  14.415  10.754  0.0428  0.0626  0.4596
18434W        W34618   3.545   0.111   4.376  0.0659 -0.3464 -0.0979
18435W        W34619  18.694  17.436  13.497  0.3435  0.2717  0.2444
18436W        W34620  19.318   2.186   3.041 -0.2005 -0.0708  0.4508
18437W        W34621   0.167  13.202  12.703  0.0690 -0.3015  0.1672
18438W        W34622  11.220  12.163   2.955  0.1824 -0.0396  0.1187
18439W        W34623  11.216  15.810  13.807 -0.1859  0.0840  0.0849
18440W        W34624  11.036   6.181   0.602 -0.0466  0.1813  0.5903
18441W        W34625  18.067  15.653   1.087 -0.0170  0.0521  0.1403
18442W        W34626  10.364   2.027  13.001 -0.0329 -0.0800 -0.3036
18443W        W34627  13.121  11.904   1.630 -0.1768 -0.0706  0.1665
18444W        W34628  13.132  18.153  11.159  0.0607 -0.2001 -0.1060
18445W        W34629  17.785  11.093  12.039 -0.1898  0.0464 -0.0960
18446W        W34630  14.875   9.473  10.612 -0.2478  0.2839  0.0419
18447W        W34631  12.440   2.480   0.090 -0.2175 -0.3838 -0.2529
18448W        W34632   7.931  12.904   3.134  0.0181  0.1651  0.2407
18449W        W34633   8.096  11.250   5.071  0.0629  0.3046 -0.3084
18450W        W34634   8.175   9.936  13.892 -0.0001 -0.2165 -0.1473
18451W        W34635   9.020  15.685  13.339 -0.3558 -0.3101  0.2282
18452W        W34636   7.000   0.485  12.234  0.2007 -0.0583  0.0975
18453W        W34637   8.660   9.664   2.239 -0.0438 -0.2490 -0.1177
18454W        W34638  14.604  14.808   0.893  0.2788  0.2684  0.0283
18455W        W34639  18.154  12.715   4.706  0.2595 -0.1102  0.1962
18456W        W34640   3.314   2.182   2.152 -0.0058 -0.2655 -0.0434
18457W        W34641   8.228   5.955   3.346  0.1320  0.0962 -0.0527
18458W        W34642   1.615   3.767   4.367 -0.0980 -0.2530 -0.0051
18459W        W34643  16.514  18.124   3.959  0.0566 -0.0714 -0.3777
18460W        W34644   1.610  16.332  13.147 -0.2524  0.1562 -0.0280
18461W        W34645   1.603  18.127   3.673  0.2804  0.2432  0.0987
18462W        W34646  12.214   0.352   1.205 -0.1990 -0.3383 -0.1417
18463W        W34647   6.290  17.202  10.535 -0.0542 -0.0065  0.0307
18464W        W34648   9.259  15.728   3.261 -0.1515 -0.1376  0.3252
18465W        W34649   8.028  16.016  11.768  0.0144 -0.0140 -0.0165
18466W        W34650  14.499  16.217   0.326 -0.2445 -0.0857 -0.3231
18467W        W34651  13.456   7.990  13.134  0.2081  0.0875  0.0237
18468W        W34652   0.783  12.527   0.531  0.1044 -0.2240  0.3562
18469W        W34653  11.161  14.551   2.105 -0.1152 -0.1675 -0.2586
18470W        W34654   7.806  11.585  14.456 -0.0104 -0.0518 -0.0249
18471W        W34655   4.969  15.824   4.143 -0.1467 -0.3004 -0.1193
18472W        W34656  15.031   2.825   4.003 -0.0955 -0.1896 -0.1519
18473W        W34657   8.611   8.306  13.723 -0.3326 -0.2266 -0.0401
18474W        W34658   9.456  16.115   4.157  0.0687 -0.2018 -0.0108
18475W        W34659   4.038   1.282   5.490  0.4612  0.2750 -0.0044
18476W        W34660   2.529  10.269   1.164  0.0233  0.0510  0.0432
18477W        W34661   2.085   9.028   1.303 -0.1341  0.2978 -0.3592
18478W        W34662  10.264   7.125  12.327 -0.0075  0.2912  0.1018
18479W        W34663  11.418   1.486  10.302  0.0409 -0.1734  0.1407
18480W        W34664   3.480  13.209   1.673  0.4105 -0.2110  0.1687
18481W        W34665   0.244  17.566   4.505  0.0106  0.0131 -0.0561
18482W        W34666  18.929  16.976   4.615  0.1000  0.1188 -0.4871
18483W        W34667  10.997  11.345  14.377  0.0100  0.0898 -0.0937
18484W        W34668   1.813   3.367  10.095  0.3933  0.1460  0.2036
18485W        W34669  11.759  15.460   0.637 -0.1686 -0.0122 -0.1103
18486W        W34670  11.995  15.834   2.875  0.0204 -0.1493 -0.3923
18487W        W34671  15.969   5.814   3.468 -0.1087  0.0749  0.1569
18488W        W34672  18.974  14.249  14.639 -0.1478  0.1275  0.1054
18489W        W34673   2.199   4.405   2.550 -0.0094  0.3539  0.1435
18490W        W34674  18.564   9.787   0.925 -0.0542  0.0244 -0.1919
18491W        W34675   7.883   2.726  14.003  0.0021  0.2454  0.0845
18492W        W34676   6.032   6.496   4.304 -0.2264  0.0439 -0.1897
18493W        W34677  14.342  10.974  14.694 -0.1652 -0.1979  0.0668
18494W        W34678   4.767  16.248   2.529  0.1341 -0.1129 -0.0535
18495W        W34679  14.069  12.283  11.724  0.0064 -0.2705 -0.0131
18496W        W34680  15.475   2.012   2.075  0.1621  0.0217 -0.0436
18497W        W34681   2.085  13.770   0.291  0.0107  0.0601  0.2489
18498W        W34682   4.972  14.860  13.977 -0.0292  0.3930 -0.0716
18499W        W34683  10.721   3.835   0.976 -0.1540 -0.1007  0.0954
18500W        W34684   1.683  17.513   2.728  0.0994  0.2220 -0.2026
18501W        W34685   3.400   6.516  12.200  0.0065 -0.0290  0.0218
18502W        W34686  10.531  18.761   2.202 -0.2666 -0.0979  0.0629
18503W        W34687   4.704   4.998  13.402  0.2616 -0.0152  0.2636
18504W        W34688  13.016   4.915   0.875 -0.1811 -0.2154 -0.0622
18505W        W34689  10.988   5.230  11.831 -0.3969  0.4746 -0.0930
18506W        W34690  16.618   4.296   3.491 -0.1375  0.3437 -0.2185
18507W        W34691  18.752   8.203   4.892  0.3395  0.4029 -0.2035
18508W        W34692   5.178   1.220   5.046  0.1373  0.0850 -0.0574
18509W        W34693  12.586  15.148   3.336 -0.5196 -0.1052 -0.0037
18510W        W34694  16.946  12.324  12.908  0.1348 -0.0848  0.2045
18511W        W34695   3.168  16.505   2.986 -0.0931  0.0435 -0.0670
18512W        W34696   6.718   1.821   0.885  0.0665 -0.0852  0.5528
18513W        W34697   3.904  13.391   9.829  0.1657  0.0527  0.0420
18514W        W34698   1.642   6.152  11.552  0.0258 -0.2358 -0.0926
18515W        W34699   3.671   4.463  14.037  0.2483 -0.4305  0.3985
18516W        W34700   1.236   1.551  11.941  0.0659 -0.2745  0.4135
18517W        W34701   7.044   1.109   3.493 -0.4721 -0.0655 -0.4318
18518W        W34702   7.347  14.820   0.328 -0.0701 -0.0664 -0.4614
18519W        W34703   0.003  14.404   2.661  0.0624 -0.1139 -0.2223
18520W        W34704   6.996   6.780  11.662  0.1691  0.2644  0.2906
18521W        W34705   8.191  18.114   4.661  0.0259  0.0734 -0.2295
18522W        W34706   6.558  17.638  13.571 -0.2287  0.0642 -0.1295
18523W        W34707   7.016  14.891   2.661 -0.1735 -0.3559 -0.1021
18524W        W34708   5.164   2.468   3.668  0.1467  0.1137 -0.0873
18525W        W34709   4.318  13.079  14.920 -0.0621 -0.1997 -0.2152
18526W        W34710   0.258  14.273   0.932  0.0004 -0.0498  0.0449
18527W        W34711   3.956  12.477   5.208 -0.0331 -0.1998 -0.0883
18528W        W34712  13.886   2.344   4.708 -0.0857  0.0051  0.2847
18529W        W34713   0.979   9.004   0.865  0.3803 -0.1770 -0.0598
18530W        W34714   3.663   8.417   2.711  0.3221  0.0916 -0.1568
18531W        W34715  11.116   8.175  13.877  0.0657  0.1124  0.2150
18532W        W34716   6.857  14.014  14.572 -0.0494  0.2385 -0.0243
18533W        W34717  14.878   3.099  13.944  0.0076  0.3411 -0.0663
18534W        W34718   2.806  18.018   3.487 -0.1620  0.0350  0.1610
18535W        W34719   1.643  11.967  14.158  0.0373 -0.0259  0.4485
18536W        W34720  19.121   1.793   4.057  0.2174 -0.4795  0.0117
18537W        W34721   1.605   6.458   5.904  0.0462 -0.0875  0.0930
18538W        W34722  17.298  15.097  10.104  0.1459 -0.0571  0.1045
18539W        W34723   3.437   5.105   5.605  0.0900 -0.1400  0.2049
18540W        W34724  12.537  13.248  12.952 -0.0058 -0.0447  0.0543
18541W        W34725  12.502  11.545   0.835 -0.3313 -0.2352 -0.1755
18542W        W34726   8.657   7.525  11.415 -0.1037  0.4496  0.0205
18543W        W34727  13.049   8.282  12.136 -0.1580  0.2734 -0.1353
18544W        W34728   2.410   7.722   1.103 -0.2714  0.0515 -0.0411
18545W        W34729   1.762  10.177   3.195  0.1292 -0.2969  0.1534
18546W        W34730  14.781  17.710  10.888 -0.0886 -0.2520  0.1689
18547W        W34731  19.018  11.881   0.526 -0.1351  0.0641  0.1602
18548W        W34732   6.002   2.555   0.450  0.2400 -0.2198 -0.0214
18549W        W34733   5.576   4.219   2.673 -0.0465 -0.0827  0.0549
18550W        W34734  18.869   2.291   0.499 -0.1489  0.1590  0.1128
18551W        W34735   5.782  11.513  11.434 -0.2490 -0.0734  0.1069
18552W        W34736  19.217   5.076   0.303  0.0929 -0.1633 -0.2508
18553W        W34737  11.625  12.119   4.046  0.3805  0.1606  0.2258
18554W        W34738  12.402  16.352   4.015 -0.0734  0.2110  0.0439
18555W        W34739  16.267   2.416   4.581 -0.0783 -0.3446  0.1097
18556W        W34740   3.247  14.419  12.579 -0.0832 -0.3098  0.1638
18557W        W34741  18.569  14.969   3.633 -0.0746 -0.1136  0.0967
18558W        W34742   4.020  16.182   3.767 -0.1020  0.0953  0.3465
18559W        W34743   9.455   6.970   5.702  0.1747 -0.1503 -0.2082
18560W        W34744  14.719  12.142   2.415  0.2745 -0.2601  0.0261
18561W        W34745   0.958   4.065  13.618 -0.0193 -0.1248 -0.0732
18562W        W34746   2.524   7.553  11.398 -0.0307  0.0860 -0.0782
18563W        W34747  13.094   4.725  14.032 -0.0428 -0.0184  0.1123
18564W        W34748   0.299   6.076  10.864  0.0859  0.2012  0.1123
18565W        W34749   4.117   0.571  12.717  0.3042  0.0967  0.1941
18566W        W34750   0.751   4.015   0.288 -0.1282 -0.0599 -0.1139
18567W        W34751  18.967  11.321  14.708  0.3627  0.3198  0.1281
18568W        W34752   1.506   8.762   1.734 -0.0982 -0.1659  0.1823
18569W        W34753  18.890   5.100   4.684 -0.0504 -0.0324  0.1172
18570W        W34754  11.728   6.134  11.308 -0.0271 -0.0099 -0.2510
18571W        W34755   4.667  19.026  10.918  0.0458  0.0380 -0.0421
18572W        W34756  16.300   0.228   3.673 -0.0619 -0.2028 -0.0549
18573W        W34757   9.240   3.235  11.200  0.1670  0.2232  0.0043
18574W        W34758  17.312  10.544   3.194  0.3946  0.1571 -0.0648
18575W        W34759  14.893  18.838   1.380  0.0723 -0.1565 -0.2989
18576W        W34760   2.931   3.350   2.122 -0.1851 -0.0694  0.0919
18577W        W34761  15.985   3.695  13.129  0.0111 -0.2133 -0.0417
18578W        W34762  10.318   3.445   0.829 -0.0310  0.0496 -0.2415
18579W        W34763   7.439   5.968  11.668 -0.2492  0.2151 -0.2127
18580W        W34764  13.029   8.867   0.739 -0.0905  0.0561 -0.0438
18581W        W34765   7.776  11.102  10.118 -0.4319 -0.3173  0.2433
18582W        W34766   1.596   1.271  14.097  0.1495 -0.2159 -0.0733
18583W        W34767   0.952   4.376  11.451 -0.0221  0.0394 -0.1319
18584W        W34768   0.027   1.397  14.311  0.0458 -0.0712 -0.2741
18585W        W34769   3.478   8.078   0.499 -0.0163  0.0081  0.2136
18586W        W34770   9.647   2.770   0.122  0.2092  0.2991 -0.2912
18587W        W34771   5.749  12.904   4.468  0.0454  0.0677 -0.0843
18588W        W34772   8.948   0.226   0.251  0.2143  0.2120  0.0024
18589W        W34773   4.115  10.974  13.192 -0.1577  0.0937 -0.0970
18590W        W34774   7.193   6.585   5.132 -0.5415 -0.2557 -0.2128
18591W        W34775  19.328   0.229   2.596 -0.0012 -0.3492 -0.0226
18592W        W34776   2.417   8.251   1.497  0.0930 -0.0873 -0.2684
18593W        W34777   2.267  12.772   4.804 -0.0404  0.3443  0.1873
18594W        W34778   1.277   1.582  14.772  0.1275  0.1546  0.1677
18595W        W34779   0.744   5.524   5.011  0.0803  0.1099 -0.1574
18596W        W34780  15.918  10.956  11.573 -0.1796  0.0348 -0.1274
18597W        W34781   3.816  18.826   4.702 -0.0744  0.2653 -0.0786
18598W        W34782  11.662  18.490   1.567  0.1891 -0.0447 -0.0174
18599W        W34783  18.781   4.000  13.399  0.0314 -0.3117  0.0003
18600W        W34784  15.483  15.896   1.006  0.1293 -0.1352  0.0956
18601W        W34785  10.628   9.794  13.378 -0.5239 -0.1259  0.1615
18602W        W34786  17.103  13.419  10.115  0.2941  0.2117 -0.3760
18603W        W34787   0.961  11.252  14.098 -0.2946  0.0137 -0.1723
18604W        W34788   9.362   9.224  11.780 -0.0878 -0.2469  0.0080
18605W        W34789   2.570  18.237  14.845 -0.1516 -0.0643 -0.0915
18606W        W34790  14.152   6.564  14.514 -0.0568  0.5239  0.1661
18607W        W34791  16.655   1.187  12.591  0.0738 -0.0121  0.0192
18608W        W34792  15.395  15.157  11.973 -0.0328  0.0993  0.0541
18609W        W34793  13.028   2.977  12.186 -0.0076  0.0623  0.4054
18610W        W34794  18.553   9.102  10.579 -0.0252 -0.0637 -0.0315
18611W        W34795  15.254   8.483   4.979 -0.0048  0.1022  0.3739
18612W        W34796  11.482   1.398  14.719  0.0430  0.1145 -0.0516
18613W        W34797  17.516   3.370   1.738 -0.2500 -0.4320  0.1975
18614W        W34798  12.333   8.244   0.692  0.2391  0.2244  0.1304
18615W        W34799   5.572  15.936  12.455 -0.1535  0.0256 -0.0990
18616W        W34800  17.751  17.101  13.905 -0.2186  0.3186  0.3064
18617W        W34801   3.652  10.030  11.226 -0.0543 -0.2605 -0.5278
18618W        W34802   2.795   1.483   3.976  0.2590 -0.1717  0.0959
18619W        W34803  12.887  15.757  10.307 -0.2179 -0.0252  0.0794
18620W        W34804   4.898   1.122   3.771 -0.2386  0.4789  0.0952
18621W        W34805   4.714   8.496   0.786  0.0630  0.0637  0.1534
18622W        W34806   3.076   8.342   3.928 -0.2006 -0.1769 -0.3139
18623W        W34807  10.946  17.802   0.349 -0.1118 -0.2144  0.0351
18624W        W34808   9.331  13.635  10.668 -0.4250  0.0008 -0.0375
18625W        W34809  10.970  12.953   9.904  0.1113  0.0378  0.2059
18626W        W34810  13.146   6.968   1.348 -0.2303 -0.1485  0.3746
18627W        W34811  11.738   4.412   1.597  0.1941 -0.3072 -0.2834
18628W        W34812   2.908  13.122   1.634  0.2274  0.0636  0.4908
18629W        W34813   9.758   4.844  12.257 -0.0044 -0.0024 -0.1883
18630W        W34814  16.253  14.725   3.278  0.2678 -0.2573  0.2538
18631W        W34815   7.330   2.152   4.001  0.3618 -0.0215 -0.3784
18632W        W34816  16.052  10.163   5.639 -0.5317  0.2242  0.1126
18633W        W34817  16.605  13.439   2.693 -0.1713 -0.2033 -0.2189
18634W        W34818   7.743   9.524   3.434 -0.2367  0.0177 -0.1691
18635W        W34819  10.406  15.658  11.778 -0.2851 -0.2712 -0.1083
18636W        W34820  16.207  12.851  14.536 -0.0756 -0.2515  0.2151
18637W        W34821  14.215  16.313  13.608  0.1267  0.4879 -0.0649
18638W        W34822  10.052  19.106  10.578  0.0553 -0.3623  0.3378
18639W        W34823   2.689   9.395  13.077  0.0681 -0.3988 -0.1439
18640W        W34824  10.021  10.514   5.030  0.0517 -0.1369  0.6278
18641W        W34825   7.559  14.231   3.628 -0.1100 -0.1837 -0.0008
18642W        W34826  10.732   8.119  12.737  0.3213  0.0189 -0.2091
18643W        W34827   2.234   9.472  11.045 -0.0918  0.1760 -0.0102
18644W        W34828   9.499  15.576   1.818 -0.2606 -0.0410  0.0684
18645W        W34829   1.455   2.450   1.812  0.0606 -0.3149  0.0450
18646W        W34830   9.648   1.004   4.103  0.1722 -0.1675  0.0180
18647W        W34831   1.435  16.269   4.010  0.1646  0.0446 -0.2815
18648W        W34832  16.583   6.896   3.908  0.1610  0.2253  0.3199
18649W        W34833  16.173  17.498  10.380  0.1681 -0.1033  0.0592
18650W        W34834   5.480   5.233  12.370  0.2231  0.1604 -0.2253
18651W        W34835   2.364  10.672   0.384 -0.3664  0.0332 -0.0004
18652W        W34836   2.124  15.620  14.861  0.2444 -0.1653 -0.2237
18653W        W34837  15.568  12.360   1.405 -0.1166 -0.2976 -0.1386
18654W        W34838   5.817  17.271  11.584 -0.0715  0.1936  0.3381
18655W        W34839  16.665   0.413  12.380 -0.0008 -0.0358  0.0997
18656W        W34840   6.437   4.054   1.260  0.1439  0.2475  0.1231
18657W        W34841   5.619   4.642  13.767 -0.2564  0.0765 -0.1190
18658W        W34842   1.792  15.431   3.009 -0.1744  0.1267 -0.0130
18659W        W34843  17.925   7.698  13.878  0.1935 -0.2146 -0.2845
18660W        W34844   5.236   0.757  13.366  0.2478 -0.0098 -0.0654
18661W        W34845  12.467   5.153  12.102  0.0915 -0.0584  0.1456
18662W        W34846  18.167   6.870   4.272  0.2164 -0.2503 -0.1547
18663W        W34847  17.050   3.871  11.437  0.3131  0.2617  0.1555
18664W        W34848  17.988   2.742   0.321 -0.2963  0.4061 -0.2094
18665W        W34849   7.744   9.172  11.040  0.0259  0.2230 -0.0772
18666W        W34850   4.897  18.665   2.625 -0.2395 -0.0628  0.2675
18667W        W34851  16.610  11.636   3.261  0.2997 -0.1412 -0.1287
18668W        W34852  13.020  14.541  12.636  0.0416  0.2571  0.0237
18669W        W34853  13.203  10.749   9.873 -0.3258  0.1557 -0.2798
18670W        W34854  16.914   1.027   0.506  0.3729  0.1837 -0.0253
18671W        W34855  14.084  12.841   2.842 -0.1028  0.0782 -0.3181
18672W        W34856  13.475  14.298  10.977 -0.2977  0.1820 -0.0456
18673W        W34857  15.437   8.125  11.544 -0.1495  0.0325  0.0537
18674W        W34858   6.088  18.033   2.236  0.2609 -0.0199  0.1787
18675W        W34859  13.908  14.820  12.949  0.0987 -0.0074  0.0486
18676W        W34860  15.044   3.611  11.163 -0.3117  0.0408  0.2835
18677W        W34861   8.486  11.488   5.287  0.2518  0.2979  0.2752
18678W        W34862  13.677   7.892  14.240  0.2570  0.0694 -0.0723
18679W        W34863  10.887  13.099  13.067 -0.0478 -0.1343  0.3733
18680W        W34864  12.054   1.525   1.086 -0.0823  0.1905 -0.0236
18681W        W34865   3.368   2.448   4.797  0.1430  0.0985 -0.1035
18682W        W34866   0.307  14.212  12.654  0.1209 -0.2878  0.4200
18683W        W34867   0.459  10.390   5.090  0.0025  0.0382 -0.3331
18684W        W34868  12.035   0.196   2.014 -0.0578 -0.0879 -0.1136
18685W        W34869  17.866  14.712   0.726  0.2300 -0.0158  0.0621
18686W        W34870   8.844   4.082  12.113  0.0627 -0.2938  0.1139
18687W        W34871  11.620   2.393  12.387  0.2065  0.1680 -0.1878
18688W        W34872  12.289  10.150  11.589  0.1619 -0.1223  0.2000
18689W        W34873   7.314   4.833   3.253  0.0327 -0.0269 -0.1834
18690W        W34874   0.976   9.683   2.115 -0.0154 -0.1836  0.1678
18691W        W34875   5.538   6.167   3.743  0.3898 -0.0815 -0.0415
18692W        W34876  17.482   6.510   2.912  0.1615  0.0622 -0.0566
18693W        W34877   7.384  18.524  12.888  0.2698 -0.0496  0.2770
18694W        W34878  13.401  11.641  11.953  0.1945 -0.1470  0.1782
18695W        W34879  16.898  13.896   0.730 -0.0544 -0.0137  0.0963
18696W        W34880   4.889   2.609   2.068 -0.1378  0.3261 -0.0784
18697W        W34881   4.513   2.717   0.893  0.1441  0.4239 -0.4235
18698W        W34882   0.633   2.261  14.924  0.0696 -0.1198  0.1589
18699W        W34883  14.963  10.260  13.963  0.2425  0.1910 -0.1446
18700W        W34884   2.167  17.674   2.828 -0.2332  0.0553 -0.3359
18701W        W34885   8.294   7.981  12.226 -0.3459  0.0739  0.0706
18702W        W34886  14.992   6.355   3.919 -0.0683 -0.1256  0.4560
18703W        W34887   3.789   0.420   3.933 -0.0451 -0.2078 -0.0850
18704W        W34888   5.829   5.801   3.690 -0.0350 -0.0525 -0.0081
18705W        W34889   2.264   8.005  13.303  0.2456  0.1800 -0.3489
18706W        W34890  11.066   9.103   4.010 -0.2520 -0.1487 -0.1199
18707W        W34891  14.045  16.236  11.273 -0.0698 -0.1176 -0.0733
18708W        W34892  13.957   1.652  11.750  0.0753  0.0876  0.2401
18709W        W34893  17.889   6.672   3.113  0.2003  0.1612 -0.3953
18710W        W34894   6.510  18.632  14.351 -0.0648 -0.2434  0.0113
18711W        W34895   1.809   3.613  11.566 -0.1833 -0.2437 -0.2978
18712W        W34896  10.684   2.688   0.994 -0.4390  0.0324  0.0439
18713W        W34897  17.514  10.211   0.709  0.2654  0.4406 -0.0226
18714W        W34898  13.732   9.321   1.100  0.1289 -0.1459 -0.1474
18715W        W34899   5.236  10.505  13.262  0.1266  0.2489 -0.2294
18716W        W34900   8.097   8.623   3.739 -0.1735  0.1471  0.0284
18717W        W34901  13.997   8.216  14.409  0.1965  0.2156  0.3351
18718W        W34902  13.343  11.251   2.065 -0.0370 -0.1060 -0.1104
18719W        W34903  14.989  11.803   1.038 -0.0385 -0.1905 -0.1300
18720W        W34904   5.628  14.876  11.108  0.1953  0.4809 -0.2970
18721W        W34905   3.619  15.785   3.972  0.3006 -0.2055 -0.0601
18722W        W34906   5.790   0.830   2.644 -0.0510  0.3037  0.0358
18723W        W34907  17.030  19.105   1.708 -0.2035  0.0199  0.1820
18724W        W34908  15.934  16.666   4.317 -0.2142  0.2236 -0.1050
18725W        W34909  16.374  18.761   4.759  0.2145  0.1149  0.0703
18726W        W34910  17.121   4.798   4.626  0.1957  0.0945 -0.2297
18727W        W34911  18.664  12.699   4.687  0.1132 -0.2252 -0.1314
18728W        W34912   5.137   1.513  12.426  0.3736 -0.0057  0.0758
18729W        W34913   4.954   4.921   3.142 -0.3146 -0.2951 -0.0394
18730W        W34914   8.350   1.105  14.237 -0.3089 -0.1343  0.0197
18731W        W34915  10.642   4.729   1.132 -0.1397 -0.1185  0.0019
18732W        W34916  11.854  12.564   4.357  0.1131 -0.1689  0.1273
18733W        W34917  18.686   2.899  13.543  0.0318 -0.5006 -0.0899
18734W        W34918  19.000  12.381   0.866 -0.0538  0.1915  0.1182
18735W        W34919  16.534  17.624  14.870 -0.0024  0.1738 -0.0795
18736W        W34920   6.136   7.234   4.665  0.2141 -0.1980  0.3576
18737W        W34921  19.018  16.387   3.641  0.1104  0.2848  0.2289
18738W        W34922   5.554   1.231  10.299  0.0938 -0.3603 -0.0470
18739W        W34923  16.564  19.105   1.303  0.1390  0.2108  0.1384
18740W        W34924  14.084   1.732   0.785 -0.1040 -0.0013 -0.2479
18741W        W34925   1.148  17.904   3.607 -0.0322  0.1419  0.2750
18742W        W34926  14.726   3.285  13.199  0.0524  0.3682 -0.0793
18743W        W34927  15.452   9.148   2.648  0.4141 -0.2092 -0.1698
18744W        W34928   6.545  11.576   3.733  0.0336  0.2949 -0.2439
18745W        W34929  13.543   1.176  14.030  0.0878 -0.1917  0.2408
18746W        W34930  11.674   3.525  13.334 -0.0522  0.1987  0.1892
18747W        W34931   8.387  14.600   2.259  0.1144  0.1747  0.4003
18748W        W34932   0.831   8.071   4.426  0.4158 -0.0817  0.1618
18749W        W34933  18.315   9.659  11.710  0.1650  0.0749  0.0081
18750W        W34934  17.366   0.560   0.972  0.0402 -0.2398 -0.0935
18751W        W34935   0.908   9.776  14.784  0.2047  0.0580  0.0262
18752W        W34936   2.718  18.424   0.428  0.2761 -0.0476 -0.0855
18753W        W34937  12.531   0.293  14.800  0.0378  0.0549  0.1905
18754W        W34938   3.465   9.192  12.143 -0.0048 -0.1548 -0.2137
18755W        W34939  15.170   9.261  14.140 -0.2103  0.1582  0.1748
18756W        W34940   9.623  18.153  13.165  0.0384 -0.0905 -0.1304
18757W        W34941   1.069  12.389   2.018  0.1461  0.0002 -0.1843
18758W        W34942  11.624   5.406  12.681  0.2352 -0.0224  0.0022
18759W        W34943   0.247  19.274   3.327  0.1601  0.0828  0.2674
18760W        W34944  14.673   6.184  11.797  0.0215  0.2699 -0.2712
18761W        W34945  15.179   2.427   2.181  0.1038 -0.2442 -0.1944
18762W        W34946   4.946   3.673   1.100  0.0922 -0.1382 -0.1943
18763W        W34947   0.873  18.273   5.110  0.2736 -0.1698 -0.0475
18764W        W34948  13.442  13.642   1.989  0.0286  0.1540 -0.0274
18765W        W34949   5.518  13.364  11.375  0.1821  0.1046 -0.2484
18766W        W34950  16.568   5.103   0.824  0.1228  0.1250 -0.0960
18767W        W34951  12.787   5.282   4.231  0.0223  0.0397 -0.0910
18768W        W34952  13.112   1.946   3.617 -0.3218  0.2184  0.2182
18769W        W34953  11.183  18.433  12.807 -0.0762 -0.0257  0.1438
18770W        W34954  17.684   3.018   4.686 -0.1422 -0.0907  0.5483
18771W        W34955   8.881   0.171  13.427 -0.2642 -0.1126 -0.1006
18772W        W34956   6.801   5.273   5.023 -0.1855  0.2342 -0.1372
18773W        W34957   1.892  15.592  12.646  0.3620  0.0955 -0.0345
18774W        W34958  15.257  17.546   2.429 -0.0808 -0.2731 -0.2970
18775W        W34959  18.657  17.861   5.154 -0.4054 -0.0050 -0.1125
18776W        W34960   6.565   3.599   1.415  0.0359 -0.0695  0.3544
18777W        W34961   5.235  18.733   2.232 -0.1622  0.1137 -0.0009
18778W        W34962   3.370  15.849  11.044 -0.2563 -0.1599 -0.0960
18779W        W34963  15.734  17.512  12.301  0.0401 -0.0665  0.1668
18780W        W34964   0.131   3.604   0.687 -0.1926  0.1524 -0.2557
18781W        W34965  14.018   1.770  11.133  0.1517 -0.2335 -0.2487
18782W        W34966  14.724   4.856   3.373  0.0907  0.1019 -0.4616
18783W        W34967   5.465  12.404   4.050 -0.0409 -0.2056 -0.2424
18784W        W34968  16.038  10.006   0.718 -0.0952 -0.0373  0.2865
18785W        W34969  11.054  17.732  14.833 -0.1463 -0.2189 -0.0873
18786W        W34970   0.498   4.725   5.004 -0.0527 -0.2916 -0.2521
18787W        W34971   9.710  13.570   4.173  0.2635 -0.0317 -0.0594
18788W        W34972  17.560  10.273   2.415 -0.2119 -0.2683 -0.0887
18789W        W34973   8.058  17.348  10.832  0.3209  0.0498 -0.1696
18790W        W34974   6.509  11.238   4.262 -0.0924  0.3057  0.0337
18791W        W34975   7.869   6.365  13.171  0.5858 -0.0162  0.0427
18792W        W34976   2.656  11.850   1.811  0.0897 -0.3062 -0.1553
18793W        W34977  11.177   0.263   1.590 -0.0813  0.1884 -0.0174
18794W        W34978  18.475  11.565   1.382 -0.0356 -0.0920  0.2905
18795W        W34979   1.405   9.724   0.015 -0.0452  0.2295 -0.0812
18796W        W34980  12.652   9.498  13.976  0.1556  0.1108 -0.3750
18797W        W34981  12.299   6.760  12.542  0.1762  0.0244 -0.0351
18798W        W34982  17.741  10.305   3.159 -0.2978  0.2759 -0.1324
18799W        W34983   8.185   5.141   5.201  0.0433 -0.3578 -0.3490
18800W        W34984  15.665   3.771   1.150  0.1687 -0.0180  0.0913
18801W        W34985   1.385  13.881   0.401  0.1879  0.3319  0.0485
18802W        W34986   3.354  12.653   0.864 -0.0692 -0.0677 -0.0285
18803W        W34987   6.510  16.004  13.311  0.3231 -0.2448 -0.1637
18804W        W34988   3.639   3.134   4.245 -0.1249 -0.3339  0.2463
18805W        W34989   5.797   1.300  11.808 -0.3598 -0.1317 -0.1392
18806W        W34990   3.968   1.388  13.039  0.3163 -0.1070 -0.3177
18807W        W34991  16.245  18.853   2.418  0.2857  0.3926 -0.1581
18808W        W34992  13.111   1.983   0.890  0.1003 -0.1410  0.0786
18809W        W34993  13.089  18.664  11.130 -0.1055 -0.0041 -0.0175
18810W        W34994   1.238  10.606   3.806 -0.2317  0.0463  0.1996
18811W        W34995   4.402   5.799   2.819  0.1003 -0.0209 -0.1224
18812W        W34996   4.029  18.303  12.877  0.0480  0.1114 -0.2071
18813W        W34997  10.945   1.746  10.079  0.1867 -0.3252  0.1730
18814W        W34998   5.141   6.263  14.843  0.0492 -0.0812  0.1958
18815W        W34999   5.266  12.242   2.160 -0.1408  0.0401  0.1697
18816W        W35000   3.263  10.530   2.527  0.1151 -0.0686 -0.1599
18817W        W35001  19.099  13.256  11.068  0.2019  0.1411 -0.0695
18818W        W35002   6.814   3.769   2.343 -0.0966 -0.1075  0.2188
18819W        W35003   1.273  18.835   2.333  0.0126  0.0239 -0.3046
18820W        W35004   0.219  16.196   3.632  0.1703 -0.1005  0.2415
18821W        W35005   3.320   2.273  13.698 -0.1708  0.0322  0.1128
18822W        W35006  16.263   8.849  10.314  0.4777  0.0535  0.1515
18823W        W35007   4.651   5.534  14.138  0.0638  0.1071 -0.2648
18824W        W35008  17.748   0.949  14.764  0.1700 -0.1852  0.1782
18825W        W35009   2.326  12.543  14.594  0.0126 -0.0145 -0.1091
18826W        W35010   9.536  13.249  12.325  0.0426 -0.3157  0.0767
18827W        W35011  16.879  18.488  12.305 -0.0390 -0.3616  0.2011
18828W        W35012   1.524   3.095  13.832  0.0240  0.1195 -0.1317
18829W        W35013  13.817   3.750   3.213 -0.1433 -0.0206  0.1201
18830W        W35014   6.782   5.731   0.598  0.3803 -0.1827 -0.1432
18831W        W35015   3.695  16.367   0.821 -0.0043  0.2289 -0.5165
18832W        W35016   0.267  12.538   4.314 -0.1836 -0.1461 -0.0576
18833W        W35017  16.757   1.734   2.209  0.0827  0.0825 -0.0413
18834W        W35018   4.408   2.956   4.012 -0.4065 -0.0833 -0.1569
18835W        W35019  16.228   9.093   3.499  0.1453  0.3003  0.0037
18836W        W35020  17.113  15.550   2.687  0.0908  0.1261 -0.0766
18837W        W35021   8.989   2.843   9.615  0.2475  0.1199 -0.0579
18838W        W35022   9.728   2.207  12.986 -0.0321 -0.1764 -0.1521
18839W        W35023   3.349  16.171   2.568  0.1476 -0.0743  0.0388
18840W        W35024   3.715  12.710  12.672 -0.0971 -0.1573  0.1787
18841W        W35025   0.240   8.896  10.617  0.0247 -0.2596  0.3817
18842W        W35026  17.840   9.278  12.918  0.0978  0.1202  0.2789
18843W        W35027   2.826  16.477   4.956  0.0560  0.2425  0.1569
18844W        W35028  19.190  17.233  11.355 -0.0865 -0.0393  0.2407
18845W        W35029  14.603  18.978   2.404 -0.2628 -0.2476  0.1316
18846W        W35030   8.290  11.223  11.093 -0.2116 -0.1205  0.0659
18847W        W35031  11.399  13.371   3.738 -0.1618  0.0919 -0.0149
18848W        W35032   3.558   4.337   1.427  0.1134  0.1195 -0.1712
18849W        W35033   5.169   2.007  13.574 -0.0125 -0.0718  0.0188
18850W        W35034   1.457  17.573  10.618 -0.2736 -0.3036 -0.3512
18851W        W35035   6.135   4.733  13.697  0.1739 -0.1903  0.1950
18852W        W35036   6.227   8.073   4.808 -0.0770  0.0273  0.0042
18853W        W35037   1.393   9.308   4.752  0.0943 -0.1508  0.1406
18854W        W35038   1.760   7.670   2.351 -0.3022 -0.3864  0.0693
18855W        W35039   4.797   6.416  14.104  0.1610 -0.1417 -0.0349
18856W        W35040   6.158  16.237  12.995  0.2035 -0.1223  0.1769
18857W        W35041   5.440   2.647  11.075 -0.0307  0.3090 -0.1543
18858W        W35042   3.606   0.946  12.739 -0.2310  0.1854  0.1113
18859W        W35043   8.370   5.493  12.079 -0.1333 -0.2274 -0.0682
18860W        W35044  12.726   2.470   4.517  0.1807 -0.0059  0.0615
18861W        W35045  16.184  14.930  11.780  0.0490  0.1557  0.1861
18862W        W35046  14.149  19.379   1.238 -0.0896 -0.2508  0.3870
18863W        W35047   9.864   5.385   2.332 -0.0767 -0.1341  0.4510
18864W        W35048  10.899   1.580  11.768 -0.2360  0.0422 -0.0212
18865W        W35049   9.269  16.938   4.322 -0.2137  0.2351 -0.4813
18866W        W35050   4.674   4.605  14.390 -0.2142  0.1162 -0.2068
18867W        W35051  16.253  18.624   1.289  0.0987 -0.1037 -0.0007
18868W        W35052   1.266  10.375   5.994 -0.0251  0.0366  0.2513
18869W        W35053  12.430  13.825   1.122 -0.1008 -0.1721  0.1170
18870W        W35054   2.209  14.657   0.295  0.0420  0.2502 -0.1382
18871W        W35055   2.155  11.116   5.776  0.2621 -0.0287  0.0274
18872W        W35056   9.700  11.769   1.476 -0.1513  0.2026  0.3570
18873W        W35057   0.294  14.777   5.073  0.1131  0.3864 -0.0508
18874W        W35058   0.842  18.581  10.673 -0.0169 -0.0272 -0.2298
18875W        W35059   9.369   2.055   2.220  0.2066  0.2329  0.2547
18876W        W35060  12.240   3.683  11.651 -0.2256  0.0799  0.0923
18877W        W35061   4.872  14.313   2.199  0.2458 -0.1687 -0.0713
18878W        W35062   5.411  15.911   2.313  0.2649  0.0563 -0.0636
18879W        W35063  18.029  17.087  10.289  0.1255 -0.1204 -0.2370
18880W        W35064  16.910   0.448   1.129  0.0560  0.1146  0.2196
18881W        W35065  16.902  15.326   5.132 -0.0889 -0.1954 -0.1035
18882W        W35066   6.141   9.309  13.622 -0.2943  0.2014 -0.2290
18883W        W35067  18.879   7.025   3.999 -0.2437 -0.0565  0.0747
18884W        W35068   7.136  14.283   1.995  0.0469  0.0743 -0.3023
18885W        W35069   4.483   8.798   2.562 -0.3780  0.1784 -0.2251
18886W        W35070  12.560  11.297  10.418 -0.0466  0.2385  0.3237
18887W        W35071  15.327  14.500   2.576  0.3072 -0.0283  0.1198
18888W        W35072   7.693  17.035   4.509 -0.0193 -0.0633 -0.0408
18889W        W35073   4.449  13.935   5.241  0.1544 -0.2601  0.2383
18890W        W35074  14.683   5.899   3.934 -0.2227  0.5380  0.0357
18891W        W35075   6.079  11.135  13.798  0.1054 -0.2977 -0.5733
18892W        W35076   5.210  19.212  12.381 -0.0428 -0.0885  0.1802
18893W        W35077  12.281   0.704   1.569  0.1269 -0.2653  0.1770
18894W        W35078  16.624  17.196   4.398  0.1034  0.0794  0.0600
18895W        W35079   3.484  16.026   4.743  0.0907  0.1659  0.0399
18896W        W35080   8.562  17.649   3.501 -0.3724  0.1356  0.1539
18897W        W35081  15.793   1.972  10.943  0.2759 -0.1449 -0.2328
18898W        W35082   2.027  15.274   5.014  0.4406 -0.2893 -0.1367
18899W        W35083   1.571  11.387  14.165 -0.1699  0.1268  0.1246
18900W        W35084   0.474  18.620   2.167  0.1020 -0.1501  0.0313
18901W        W35085  11.726  16.265   0.184 -0.1255  0.2718  0.0402
18902W        W35086  13.777  17.393   3.843 -0.1355  0.2533  0.0142
18903W        W35087   6.967   0.925  14.579  0.1928 -0.3201 -0.3136
18904W        W35088   3.616   6.481  14.567  0.1155 -0.3402  0.1768
18905W        W35089  10.694   7.378  12.299  0.1689  0.1943  0.0719
18906W        W35090   7.744  15.150   3.676 -0.1801  0.0036 -0.3730
18907W        W35091  10.415  13.035  11.135 -0.1949  0.2380 -0.1490
18908W        W35092   4.627   6.438   9.821  0.2195  0.3073  0.2277
18909W        W35093   2.029  16.718   3.245  0.0311  0.1341 -0.0069
18910W        W35094  13.786   1.661   9.379 -0.1497 -0.0369  0.0576
18911W        W35095  15.170   7.780   2.620  0.0677  0.1774 -0.0041
18912W        W35096  14.499  15.013  12.031  0.1473  0.2563  0.0829
18913W        W35097   0.563   6.530   0.032  0.1758 -0.1534  0.1837
18914W        W35098  11.423   9.874   3.741 -0.0219 -0.7469 -0.1638
18915W        W35099   9.021   7.127  12.105 -0.0135  0.1263  0.3913
18916W        W35100  11.052  15.988   4.285 -0.1865 -0.1534 -0.2375
18917W        W35101   6.969  18.206   1.689 -0.0630  0.1696  0.0082
18918W        W35102   9.691  14.684   3.497  0.4016  0.2991 -0.0033
18919W        W35103  15.643   6.900   2.888  0.0102  0.1211 -0.1956
18920W        W35104  16.562  10.864   2.501  0.2400  0.0361  0.0729
18921W        W35105  12.212   6.175   4.424  0.0576  0.1763  0.1945
18922W        W35106   1.310   5.154   1.740  0.0608  0.2359 -0.0795
18923W        W35107  14.296   7.615  14.428 -0.2390 -0.0057 -0.1790
18924W        W35108   3.499   9.315  11.639 -0.0958  0.2837 -0.2881
18925W        W35109  19.369   9.058   2.163 -0.0660 -0.3594  0.0062
18926W        W35110   3.291   6.008  12.192  0.2776  0.3041 -0.0444
18927W        W35111  12.227  16.054  12.586  0.0279  0.0022 -0.0285
18928W        W35112  15.779   4.446   3.985  0.0989  0.0519 -0.1856
18929W        W35113  15.334   7.685   4.565  0.3311  0.0080 -0.0106
18930W        W35114  15.462   1.160  13.346 -0.2860  0.2587  0.1931
18931W        W35115  12.014  18.814  13.160  0.2794 -0.1773 -0.0418
18932W        W35116   3.818   9.753  14.942 -0.0829  0.4078  0.1163
18933W        W35117  17.143   8.067  14.359  0.0254  0.4320 -0.0827
18934W        W35118  11.269   8.272  10.085  0.1641  0.1016  0.3689
18935W        W35119   9.736   1.966   3.914 -0.0799 -0.1784 -0.0385
18936W        W35120  14.295  16.542  14.715 -0.1403  0.2157 -0.3919
18937W        W35121   0.058   5.513   0.357  0.0161  0.2564  0.2310
18938W        W35122  15.516   8.845   1.215 -0.0954 -0.4200  0.2297
18939W        W35123   2.332  11.894   5.410  0.4648 -0.0792 -0.2239
18940W        W35124   4.006   0.665  11.242 -0.1245  0.1059  0.1066
18941W        W35125   1.655  13.772  14.945 -0.1123  0.0719 -0.0052
18942W        W35126  16.629   6.649   2.698 -0.0189 -0.1765 -0.2930
18943W        W35127   9.111  13.330  10.228 -0.2258 -0.0507 -0.0428
18944W        W35128   9.883   9.894   0.140  0.0224  0.0065 -0.0314
18945W        W35129  12.892   4.255   1.637  0.1809  0.1064  0.1186
18946W        W35130   2.894   9.510   0.362  0.1641  0.0435  0.1916
18947W        W35131   7.043   4.720  13.937  0.1418 -0.0192 -0.2896
18948W        W35132   1.893   6.633  11.484 -0.0629  0.2457 -0.2440
18949W        W35133   9.847  18.079   0.419  0.1623  0.1942  0.0941
18950W        W35134  15.194  10.662  12.115 -0.0163  0.0207  0.0819
18951W        W35135  16.703  17.744   1.471  0.1026  0.3524  0.2262
18952W        W35136   9.010  15.962  13.841  0.1784 -0.1492  0.0117
18953W        W35137   1.439   4.191   4.185 -0.2751  0.0366 -0.1168
18954W        W35138  18.827   8.174   0.527  0.0216  0.1762 -0.2519
18955W        W35139  18.335  19.136   0.746 -0.1902 -0.1017  0.0039
18956W        W35140  13.174   4.731  10.399 -0.2615 -0.0807  0.1942
18957W        W35141  16.379   0.787   9.721 -0.2669  0.1399  0.1404
18958W        W35142   7.766  15.690  13.478 -0.1092 -0.2967 -0.1876
18959W        W35143   8.269  16.318  10.854  0.0711 -0.2774 -0.1641
18960W        W35144  12.677  13.258   4.196  0.2821 -0.2625  0.2090
18961W        W35145   3.798  10.135   5.868 -0.2262 -0.0500 -0.2642
18962W        W35146   4.770   8.146   3.691 -0.1631  0.1844 -0.0946
18963W        W35147  18.892  13.119   2.633  0.3578 -0.0678 -0.1719
18964W        W35148  13.540  13.233   4.732  0.0877 -0.2648  0.0723
18965W        W35149  13.227  13.273   2.264 -0.4116 -0.1278  0.1880
18966W        W35150  12.745  12.528   3.193 -0.1091 -0.0024 -0.0317
18967W        W35151  14.991   4.103   4.523 -0.0784  0.3248 -0.0507
18968W        W35152   2.787  13.673  13.966 -0.0290  0.3598 -0.1101
18969W        W35153  10.082   7.679   1.374 -0.1641 -0.0791  0.1046
18970W        W35154   1.627  16.950   2.582  0.0815 -0.0462 -0.3461
18971W        W35155   9.407  19.140  11.626  0.0924  0.1925  0.1975
18972W        W35156  16.064  17.395   3.999  0.2766 -0.1877  0.0263
18973W        W35157  17.549  13.090  14.794 -0.1240 -0.0218  0.0839
18974W        W35158   4.508   0.512  11.142  0.0504 -0.0735 -0.3746
18975W        W35159   6.095   9.623   0.001 -0.2254  0.2309  0.0003
18976W        W35160   6.840  16.567   9.815  0.2940  0.0194 -0.1877
18977W        W35161   6.098   4.666   3.461  0.0923 -0.1893  0.2492
18978W        W35162   0.142   8.753   0.842  0.2382 -0.0027  0.0736
18979W        W35163   6.409  16.472  13.940 -0.1249  0.0861 -0.1904
18980W        W35164  10.674   6.508  10.873  0.1035  0.0451  0.0156
18981W        W35165   2.952  11.532  10.525  0.0084 -0.4362 -0.1523
18982W        W35166   3.960   0.379   2.521  0.0221 -0.4228  0.0819
18983W        W35167   1.797   7.470   1.468  0.0186 -0.1069  0.1889
18984W        W35168   6.245  14.711   3.537 -0.2694  0.2439  0.2664
18985W        W35169  11.066   1.882   2.135 -0.2228  0.2090 -0.0190
18986W        W35170  17.304  18.131   5.736 -0.0257  0.0574  0.1972
18987W        W35171  17.568   4.913  13.245  0.3556 -0.1876  0.4378
18988W        W35172  12.726  16.703   1.534 -0.0434 -0.1364 -0.2077
18989W        W35173  10.363  15.859  10.919  0.3142 -0.3733 -0.0125
18990W        W35174  15.179   1.513  12.687  0.0444  0.1716  0.1115
18991W        W35175  15.177  17.493   4.128 -0.2841  0.0603  0.1531
18992W        W35176   8.117   6.059  10.437 -0.0939 -0.0001  0.4967
18993W        W35177  14.916   8.923   3.223  0.0664 -0.2185  0.3963
18994W        W35178   7.573   8.111  14.711  0.3431 -0.0989  0.4067
18995W        W35179   2.584   6.057  11.585 -0.0170 -0.2032 -0.2315
18996W        W35180  13.560  15.167  13.434 -0.0584 -0.1980 -0.0453
18997W        W35181  15.640   9.528  14.374 -0.1050 -0.0065  0.0344
18998W        W35182  10.510   2.432  14.657  0.4027  0.0955 -0.0058
18999W        W35183  13.401   4.638  12.330 -0.1250 -0.3336  0.0374
19000W        W35184   5.771  12.805   0.010  0.4261 -0.1860  0.2370
19001W        W35185   7.990   8.997  13.896  0.0521  0.0684  0.0339
19002W        W35186  17.073   0.467  10.434 -0.0184 -0.1656 -0.0867
19003W        W35187  18.239   0.200   0.582  0.2403 -0.1428  0.1450
19004W        W35188   4.296  14.239   5.739  0.3095  0.0545  0.1325
19005W        W35189   3.007  15.293   2.924  0.3189 -0.0680  0.0111
19006W        W35190   7.403   2.543  10.205 -0.1830  0.0303 -0.1959
19007W        W35191  18.786   2.117  12.272  0.2795  0.0098 -0.0394
19008W        W35192   6.954  11.860   2.568  0.1272  0.0441 -0.0540
19009W        W35193  13.862  14.281  11.736  0.2769 -0.5009 -0.2191
19010W        W35194  14.331   7.316  11.222  0.1547 -0.0195 -0.0652
19011W        W35195   3.137   0.145  14.006 -0.2328 -0.2503  0.1659
19012W        W35196  11.472  17.669  13.235  0.1552  0.2145 -0.1097
19013W        W35197   1.521  16.736  12.698 -0.0238 -0.2672 -0.3137
19014W        W35198   2.595   4.351   6.208  0.1382  0.1478 -0.2500
19015W        W35199  15.992  10.409  14.027  0.2671  0.2119 -0.0452
19016W        W35200   1.370   2.297   5.728  0.2883 -0.3238  0.0716
19017W        W35201  10.255   0.702  12.125  0.1905  0.2969 -0.1147
19018W        W35202   6.040  18.528   2.694  0.0867 -0.0160  0.1977
19019W        W35203  12.415  17.776   3.913 -0.3059  0.1411  0.2196
19020W        W35204   4.117  14.127  14.905 -0.1324  0.0628  0.0062
19021W        W35205   5.179  12.702  10.716 -0.1559 -0.1328 -0.0833
19022W        W35206   3.034   7.195  11.284 -0.2752  0.0814  0.1425
19023W        W35207   7.214   8.025  11.286 -0.1263 -0.3441  0.3210
19024W        W35208  16.501   4.561  13.027  0.0773  0.1202 -0.2370
19025W        W35209  16.823   9.645  13.880  0.0478 -0.0966 -0.0128
19026W        W35210  18.755   2.898  14.082 -0.3462  0.1360 -0.1249
19027W        W35211  17.652   8.821   0.517  0.0306  0.0236 -0.2625
19028W        W35212   7.216   9.800   5.092 -0.3407 -0.0625  0.1008
19029W        W35213  18.007   7.366   0.720  0.2236 -0.1130  0.1697
19030W        W35214  17.705  17.688   3.749  0.1642  0.2802  0.0396
19031W        W35215  18.993   1.293   0.708 -0.1362  0.1035 -0.2396
19032W        W35216   7.443   2.776  10.991 -0.3508  0.0614 -0.0068
19033W        W35217  18.856  16.695   3.312 -0.2321 -0.0889  0.2554
19034W        W35218   1.197  16.878   0.610 -0.0348  0.2510 -0.2264
19035W        W35219   3.853  10.087  12.017  0.1749 -0.0078 -0.2272
19036W        W35220  13.772   3.705  14.018  0.0025  0.1427 -0.2140
19037W        W35221   8.445  18.589   0.271 -0.2276 -0.2459  0.0877
19038W        W35222  15.694  10.934  10.629  0.4021  0.0278 -0.2887
19039W        W35223   7.322  15.694   1.051  0.1038  0.1957 -0.0091
19040W        W35224   3.368  16.238  10.601 -0.2094 -0.0936 -0.0527
19041W        W35225   4.248   7.749   0.463  0.1371  0.0144 -0.1445
19042W        W35226   3.455  17.041   4.080  0.0900 -0.1438  0.2513
19043W        W35227   5.052  16.706  14.019  0.0818 -0.2686 -0.3159
19044W        W35228  12.589  11.187   0.493 -0.0917  0.1971 -0.0715
19045W        W35229   0.696  17.979   2.370 -0.0311  0.1392  0.0958
19046W        W35230   2.124  11.240  14.034  0.1125 -0.2257 -0.1768
19047W        W35231   5.377  14.975   0.879  0.2860 -0.0587 -0.0054
19048W        W35232   9.759  17.295   0.875  0.1555 -0.0058  0.0093
19049W        W35233  19.185  14.197  11.449  0.1338 -0.1331  0.1204
19050W        W35234   4.695  16.535   2.034 -0.1383 -0.0702  0.0366
19051W        W35235  15.897   1.593  11.387 -0.2108 -0.1996  0.1385
19052W        W35236  12.571  17.109  12.776  0.2330  0.1488  0.2470
19053W        W35237  10.717  12.830   4.554  0.0396 -0.0495 -0.0726
19054W        W35238   3.839  18.906   3.038 -0.0288  0.0119  0.0823
19055W        W35239   8.701   9.225  12.798 -0.2660 -0.0855 -0.1140
19056W        W35240   4.634   3.687  14.003 -0.2162 -0.0703  0.0437
19057W        W35241   9.503  13.060   9.917  0.0968 -0.2555 -0.0459
19058W        W35242  10.931   3.540   1.330  0.0550  0.2060 -0.0539
19059W        W35243  11.300   8.700   3.132 -0.1194  0.0254 -0.1582
19060W        W35244  17.904  13.727   0.634 -0.1079 -0.0212  0.0236
19061W        W35245  14.553   9.636  13.758  0.3100 -0.0820 -0.2302
19062W        W35246   3.730  16.018  12.943 -0.0526 -0.1562 -0.2365
19063W        W35247  10.419  14.179  12.365 -0.3234 -0.1227  0.0429
19064W        W35248   4.466   7.715  10.754 -0.1734  0.0456  0.1444
19065W        W35249   8.584   4.971   3.749 -0.0274 -0.4020 -0.1923
19066W        W35250   9.458   8.098  13.481  0.1033 -0.0286 -0.1598
19067W        W35251  14.357  13.018   0.658  0.2753 -0.6487  0.0164
19068W        W35252  15.207  15.075   3.333  0.2092  0.2244 -0.1178
19069W        W35253  11.274  15.161   0.623 -0.2192  0.2482 -0.0440
19070W        W35254   5.805  17.885   4.049  0.0383 -0.3945 -0.0906
19071W        W35255   6.986   2.882   2.426  0.0454 -0.2351  0.4135
19072W        W35256   0.397  15.699   2.084 -0.2131  0.1067 -0.2198
19073W        W35257   7.767  12.266  11.388 -0.0115  0.2549 -0.2364
19074W        W35258   0.604   2.381  10.913 -0.2387  0.3847  0.0667
19075W        W35259  14.210   0.412  10.192  0.2364  0.2371  0.2427
19076W        W35260  17.433  16.755  13.981  0.1021 -0.4059 -0.3518
19077W        W35261   2.864  14.024   5.208 -0.1724 -0.2740 -0.2478
19078W        W35262   1.819  13.679  13.946 -0.1139  0.2085  0.4273
19079W        W35263   0.826  18.672  12.635  0.0062 -0.0464 -0.1303
19080W        W35264   4.856  14.495  13.179 -0.3028  0.1687 -0.3571
19081W        W35265  14.269   7.700  13.935  0.3793  0.2064 -0.0661
19082W        W35266  19.041   3.160   1.024  0.0931 -0.1057 -0.1757
19083W        W35267   5.980  15.919  13.449  0.1138  0.0187 -0.3058
19084W        W35268   3.234   6.880   1.379  0.2731  0.1157  0.4343
19085W        W35269   5.913  14.257  13.511 -0.0400  0.0824 -0.1097
19086W        W35270   5.307   1.300  10.761  0.3585  0.0314  0.0601
19087W        W35271  18.178  15.066   2.423 -0.0376  0.3396 -0.1293
19088W        W35272   7.875  15.464   0.940  0.2384 -0.1910  0.4580
19089W        W35273   5.822   6.117   0.739  0.1222 -0.5782  0.2695
19090W        W35274  10.136   5.980   5.409  0.2368  0.0301  0.1110
19091W        W35275   6.485  10.365  14.469 -0.1913  0.0954 -0.3441
19092W        W35276  11.308  13.625  13.598  0.0271 -0.1935 -0.3437
19093W        W35277  18.121  16.825  10.874 -0.2287 -0.1572 -0.1619
19094W        W35278   6.238  13.030   1.402 -0.1684  0.0664 -0.1597
19095W        W35279  11.357  14.145  14.519  0.2557  0.2553 -0.0559
19096W        W35280   3.919  18.331  14.201 -0.1076  0.3325 -0.1977
19097W        W35281  18.239  15.600  13.199  0.0292  0.0034  0.0238
19098W        W35282   0.442  12.523  13.571  0.1175 -0.1009 -0.1446
19099W        W35283   3.867   2.345   2.059 -0.0658  0.2013  0.3023
19100W        W35284  15.969   0.501  12.019 -0.2703 -0.1034  0.2067
19101W        W35285  13.096  17.251  10.390  0.1284 -0.0602 -0.1364
19102W        W35286  16.264   1.542   1.956 -0.2507 -0.0918 -0.1637
19103W        W35287   5.167  18.643   1.663  0.0024  0.0912 -0.2374
19104W        W35288   3.339  10.099  13.489 -0.2337  0.0701 -0.0814
19105W        W35289  11.280   0.747  11.563  0.2423  0.2679 -0.2137
19106W        W35290   5.476   2.420   3.286 -0.0990 -0.1914  0.0592
19107W        W35291   6.216   0.312  10.117 -0.1289  0.0734 -0.1736
19108W        W35292   7.795  19.096  11.707 -0.2778  0.1848  0.0550
19109W        W35293  15.407   2.738  14.610 -0.1140 -0.0111 -0.1788
19110W        W35294  19.187   8.654   3.612  0.0760 -0.0041 -0.1299
19111W        W35295  11.536   2.155  13.525 -0.2619 -0.0343  0.0399
19112W        W35296   6.281  12.154   3.776 -0.0931  0.1577 -0.1436
19113W        W35297   9.337  12.433   2.571 -0.0213 -0.3021  0.0193
19114W        W35298   4.604   4.995  11.844 -0.2290 -0.2326 -0.1405
19115W        W35299   8.038   7.988   9.739 -0.1023 -0.1272 -0.2750
19116W        W35300  18.403   5.929   2.731 -0.1007  0.0566  0.0451
19117W        W35301  18.040   4.796  13.420  0.0866 -0.2139  0.0171
19118W        W35302   9.644   5.971   2.897 -0.3061  0.2483  0.0166
19119W        W35303  19.289  11.753   4.468  0.0509 -0.2005 -0.2558
19120W        W35304  17.630   5.101   3.886  0.1353 -0.4019  0.0495
19121W        W35305   8.011  13.365  11.317  0.1238  0.2134 -0.3262
19122W        W35306  17.651  16.270   0.468 -0.4322  0.3172  0.1923
19123W        W35307   7.133   0.389   5.131  0.1485  0.0568  0.1234
19124W        W35308  18.300  17.043   2.751  0.0364 -0.1436  0.4209
19125W        W35309   8.322  14.881   5.187 -0.1554  0.0470  0.0937
19126W        W35310   8.810   9.006   0.479 -0.1119 -0.1855  0.1131
19127W        W35311  12.171   7.406   3.358  0.0062  0.5078 -0.0771
19128W        W35312  16.173  11.407  14.688 -0.2787 -0.0513  0.1793
19129W        W35313  10.629  14.955   1.366  0.3362 -0.0683 -0.0645
19130W        W35314  19.010   2.180   9.596 -0.1919 -0.2351  0.0115
19131W        W35315   5.287   8.977   1.207 -0.0090 -0.1270 -0.1765
19132W        W35316   6.169   7.013   4.145  0.2398  0.4164 -0.1094
19133W        W35317  14.903   7.902   2.179  0.1036  0.0676  0.1626
19134W        W35318  16.883   5.903   4.036  0.0907 -0.1396 -0.3083
19135W        W35319   1.706  19.326  12.607  0.2608 -0.1470  0.1437
19136W        W35320  13.966   3.085  14.397  0.0010 -0.1128  0.0396
19137W        W35321  17.060   6.775   3.042  0.1587 -0.0603 -0.1194
19138W        W35322   5.114   7.471  14.417 -0.0922 -0.1521  0.1513
19139W        W35323  12.788   4.287   0.623 -0.0555  0.0118 -0.1325
19140W        W35324  10.471   6.061   9.925  0.0958  0.2029 -0.0885
19141W        W35325  12.297   6.776   0.655  0.3242  0.2664 -0.2753
19142W        W35326   1.828  10.505   0.269 -0.1213 -0.2797 -0.0381
19143W        W35327   1.792  12.769  12.928 -0.0417  0.0578  0.3764
19144W        W35328   7.618  12.899  13.621 -0.0383 -0.1289  0.2859
19145W        W35329  17.758  17.603  13.206  0.1551 -0.3824 -0.3273
19146W        W35330   3.082  11.146   0.767 -0.2881  0.1852  0.0190
19147W        W35331   7.727   0.486   3.901  0.0590 -0.0707  0.4598
19148W        W35332  14.318  17.382   0.268  0.0385 -0.2091  0.2089
19149W        W35333   1.004  11.260   0.118 -0.0629  0.1116 -0.2672
19150W        W35334  12.537   4.185  11.658  0.3716 -0.3185 -0.1717
19151W        W35335   1.475  17.292   3.913 -0.0183 -0.7084 -0.0898
19152W        W35336  11.172  19.260   0.703 -0.0602 -0.0273 -0.0740
19153W        W35337   8.993   5.863   0.056  0.0859 -0.0248 -0.2465
19154W        W35338   2.665  14.719   1.208  0.3098 -0.1671 -0.4582
19155W        W35339   7.986   2.766   4.230 -0.2044 -0.4548  0.3181
19156W        W35340   1.917  11.206  10.693  0.0076  0.3734 -0.4816
19157W        W35341  11.535   8.226   8.947 -0.2047 -0.0113  0.3768
19158W        W35342  17.090  11.497   3.180  0.0317 -0.1371  0.2351
19159W        W35343  10.562  13.157   4.918 -0.1966  0.2476 -0.0088
19160W        W35344  16.008  13.431  14.621  0.1215  0.0619 -0.0521
19161W        W35345   9.021  17.089   2.831  0.0485  0.0614  0.1122
19162W        W35346  17.343   0.817   1.449  0.1917  0.0413 -0.0135
19163W        W35347  17.429  12.346  13.541 -0.1710  0.0331  0.0431
19164W        W35348   2.702   4.007   5.093  0.0379 -0.0469  0.0156
19165W        W35349  13.437   2.202   0.028 -0.0014 -0.0321 -0.1987
19166W        W35350  11.029   1.262   2.533  0.1402 -0.1526  0.2130
19167W        W35351   4.614  14.151   0.087 -0.0811  0.0688  0.2759
19168W        W35352   1.405  10.865   4.209 -0.1876  0.0498 -0.0400
19169W        W35353   1.359   0.371  11.135 -0.1713  0.0322 -0.1884
19170W        W35354  16.607  11.725  10.641  0.0055 -0.2945  0.2161
19171W        W35355  15.633  14.330  11.761 -0.2058  0.1538  0.2178
19172W        W35356   3.025   3.269  13.536  0.3845  0.0333 -0.0570
19173W        W35357  11.702   9.360  11.386  0.0406 -0.0548  0.1244
19174W        W35358   9.991   6.755  12.138 -0.3670 -0.2404  0.1190
19175W        W35359  19.042  14.341   3.173 -0.1239  0.1266 -0.2898
19176W        W35360   3.463   4.188   0.716 -0.0404  0.1225 -0.0769
19177W        W35361  11.299  16.814  14.003 -0.3013  0.0972 -0.3351
19178W        W35362   5.945   4.865  12.789 -0.1352  0.0301  0.3152
19179W        W35363  13.927  10.748   9.014  0.0088  0.1796 -0.2368
19180W        W35364   4.102  14.590   2.593 -0.0338  0.0598 -0.2722
19181W        W35365   1.386   1.235   0.768 -0.1273  0.2805 -0.1114
19182W        W35366   9.315  14.090   9.849 -0.1244 -0.0007  0.1594
19183W        W35367  10.737   3.544  13.867 -0.0835  0.0836  0.1429
19184W        W35368  14.637   7.050  10.971  0.0953 -0.1507 -0.2427
19185W        W35369   7.181  12.635   2.835  0.0190 -0.1039 -0.0856
19186W        W35370  13.193  16.648  13.436 -0.0002  0.2779 -0.2554
19187W        W35371   7.568  14.315   1.749  0.0885 -0.1063 -0.4355
19188W        W35372   4.567  12.592  14.426 -0.0706 -0.1730  0.1687
19189W        W35373   6.964   0.936  13.164 -0.0410 -0.0453 -0.0503
19190W        W35374  17.559  11.097   4.035  0.2019  0.0403 -0.3580
19191W        W35375   1.819  16.992   3.656  0.3825 -0.0876 -0.1375
19192W        W35376   2.268   5.116  11.478  0.2689  0.0914 -0.0984
19193W        W35377   5.732  19.098  10.896  0.3114  0.1710  0.0467
19194W        W35378  17.620  10.884   4.565 -0.1734  0.1198  0.0139
19195W        W35379  17.528   0.372  13.250  0.2682 -0.1275 -0.1057
19196W        W35380  15.435   8.519  13.227 -0.2650 -0.1092  0.1134
19197W        W35381  11.514   0.037  14.830 -0.0452 -0.0648 -0.1805
19198W        W35382  16.655   6.596   0.795  0.0351  0.2692  0.1273
19199W        W35383   4.457   3.724   5.126 -0.0478  0.0819  0.1408
19200W        W35384  13.470  17.421  10.965  0.1972 -0.1778 -0.0392
19201W        W35385  12.587   4.463   2.064 -0.0870 -0.1474 -0.0518
19202W        W35386   9.233  17.828   2.494  0.2622 -0.1240 -0.0867
19203W        W35387   4.926  11.793   1.602  0.0106 -0.4535 -0.0792
19204W        W35388  15.517  13.671   1.343  0.0224  0.3618  0.0550
19205W        W35389  17.085   9.171   2.739 -0.0248  0.1264 -0.1257
19206W        W35390  14.031  16.912  11.028  0.1033  0.1511  0.1058
19207W        W35391   5.531  13.462  10.385 -0.1509 -0.1584 -0.0083
19208W        W35392   9.574   5.265  14.349 -0.0060 -0.1294 -0.0185
19209W        W35393   9.654   3.413   2.758 -0.3214 -0.1751  0.0936
19210W        W35394  11.762  12.656  14.643 -0.1042  0.3221 -0.0392
19211W        W35395   4.368  17.606  11.806  0.1333 -0.0308 -0.1264
19212W        W35396   4.622   5.722   4.257 -0.1747  0.0922  0.0579
19213W        W35397  15.105   3.325   9.923  0.2652  0.1424 -0.1524
19214W        W35398   8.008  18.957   3.855  0.1866  0.1799 -0.3667
19215W        W35399   1.245  14.302   0.113  0.1155  0.3711  0.0263
19216W        W35400   6.374  16.428  11.158 -0.2511  0.1340 -0.3634
19217W        W35401  14.441   3.054   3.157 -0.3315  0.2079  0.0818
19218W        W35402  13.102   9.469   0.482 -0.5100  0.1617 -0.2808
19219W        W35403  11.595  18.702   3.021  0.0548 -0.2751 -0.3253
19220W        W35404  18.846   2.194   3.857  0.0453  0.0518 -0.1859
19221W        W35405   0.222   2.708  11.445  0.5218  0.1280 -0.3310
19222W        W35406   0.726  14.478   0.711 -0.0931 -0.1388 -0.0399
19223W        W35407   3.813   9.831  13.274  0.1655  0.0404 -0.3426
19224W        W35408  11.663   0.927   3.643  0.2083 -0.0606  0.2142
19225W        W35409  12.074  13.030  12.032  0.2806  0.0264 -0.0640
19226W        W35410  13.362  17.280   4.097  0.4341  0.0446 -0.4042
19227W        W35411  16.688  12.556   3.497 -0.3302  0.1001 -0.0694
19228W        W35412   4.584  16.330   3.041 -0.0768  0.0344 -0.1601
19229W        W35413   1.872   5.791   5.012 -0.1829 -0.2271 -0.0015
19230W        W35414  17.096  11.849   2.285 -0.2030 -0.2003  0.1853
19231W        W35415   1.279   0.719  14.166 -0.0321  0.0013 -0.2359
19232W        W35416  11.407   8.929  10.441 -0.0515  0.0367  0.0969
19233W        W35417   6.118   2.175   4.839  0.0490 -0.0623 -0.4294
19234W        W35418  10.698   6.965  10.564 -0.0350 -0.2304  0.1298
19235W        W35419  15.055   4.648  12.640 -0.0877  0.0304  0.0155
19236W        W35420   3.306  14.330   1.022  0.0655 -0.0226  0.1358
19237W        W35421  15.535  15.138   3.968  0.0941 -0.1170  0.2881
19238W        W35422  11.122  11.471  11.035  0.2687  0.1243 -0.3943
19239W        W35423   2.914  11.524  11.963  0.2258 -0.1108  0.0220
19240W        W35424  19.157  11.746   1.836 -0.1921  0.0536 -0.2239
19241W        W35425  18.452   0.397  12.035 -0.4256 -0.1432  0.3959
19242W        W35426  13.540  12.773  13.359  0.1537  0.1170  0.2935
19243W        W35427  12.481   8.413   2.434 -0.0695 -0.3456  0.2969
19244W        W35428  18.576   4.035  12.532  0.3071  0.0528  0.1827
19245W        W35429  10.458   7.717   1.100 -0.1980 -0.0249  0.2081
19246W        W35430  12.325  10.663   0.994 -0.2391 -0.1082  0.1215
19247W        W35431  14.263  19.269   0.477 -0.0755 -0.1693 -0.0401
19248W        W35432   9.417   1.212   0.321  0.0011 -0.1083 -0.1202
19249W        W35433   5.996   8.812   0.616  0.0309 -0.0934 -0.0316
19250W        W35434  12.384  12.037  11.847 -0.1078  0.0053  0.0571
19251W        W35435   3.431  13.883   3.266  0.3737 -0.0986  0.0329
19252W        W35436  16.280   8.025   2.849  0.0773  0.3598 -0.0169
19253W        W35437   0.790  10.005   0.895 -0.0031 -0.1542  0.1643
19254W        W35438  17.888   0.318   5.017  0.0481  0.1591  0.0187
19255W        W35439   1.346   9.937   0.724 -0.0904 -0.1898 -0.0287
19256W        W35440  17.588  13.072   5.200 -0.0597  0.2674 -0.1407
19257W        W35441   2.256   6.267  14.233 -0.3885 -0.2620 -0.3229
19258W        W35442  10.600   5.354  13.393 -0.0474 -0.1713 -0.4788
19259W        W35443   7.436   7.195   3.515 -0.0995  0.2021  0.0215
19260W        W35444  17.692   2.423   1.037  0.1387 -0.2891 -0.0225
19261W        W35445  15.697   1.724  12.522  0.0670  0.3536  0.0365
19262W        W35446  16.481  14.624  14.422  0.0716 -0.0752 -0.3060
19263W        W35447  17.058  17.050   1.978 -0.3520  0.4781  0.0720
19264W        W35448  12.745   8.996  14.272  0.3448  0.0116 -0.0456
19265W        W35449   8.071   8.264   2.623  0.1755  0.2112  0.0992
19266W        W35450  15.350  17.290   0.062  0.0615  0.3024  0.1932
19267W        W35451   6.231   4.065   5.230  0.4820 -0.0865 -0.1924
19268W        W35452  15.178  14.745  10.203  0.0509 -0.2530 -0.0274
19269W        W35453  10.152  17.902   8.865  0.1396  0.0359 -0.2953
19270W        W35454  11.043  19.019  13.076 -0.2108  0.0977  0.1786
19271W        W35455  15.322  10.355   2.835 -0.0693 -0.3576 -0.0130
19272W        W35456  11.011   3.353   3.250 -0.3611 -0.0763 -0.0439
19273W        W35457   6.830   4.284   2.149  0.2584 -0.0980 -0.2434
19274W        W35458  18.491   5.499   2.383  0.2522 -0.0936  0.4649
19275W        W35459  12.388  10.446   1.444  0.3081  0.0665  0.0015
19276W        W35460  13.638   6.429  14.511 -0.2044 -0.0949 -0.0355
19277W        W35461  17.380  10.547   1.408  0.2642  0.1368 -0.0821
19278W        W35462   5.702   0.754  11.927  0.0057  0.1858 -0.0362
19279W        W35463  14.674   8.699  14.926  0.2480 -0.0136  0.0522
19280W        W35464   4.385   9.889  11.170 -0.1192  0.1420 -0.0407
19281W        W35465  16.312  14.902   0.084  0.3519  0.0659  0.1855
19282W        W35466  11.812   9.797   1.642  0.1625 -0.3609 -0.0454
19283W        W35467  17.063   6.812   0.841 -0.0795  0.0093  0.3345
19284W        W35468   3.958  13.305   4.535  0.4275  0.0289 -0.1095
19285W        W35469  16.770  10.642  11.774  0.3040  0.0624  0.3651
19286W        W35470  11.570  11.825   4.485  0.0785 -0.1926 -0.0662
19287W        W35471   3.920   6.622   1.920 -0.1472 -0.0409 -0.0290
19288W        W35472  11.121   8.663   0.231 -0.0688 -0.2002 -0.3697
19289W        W35473   3.171   0.383  14.899  0.0322  0.0304 -0.1140
19290W        W35474  17.224   8.086  13.424  0.3034 -0.3359  0.0033
19291W        W35475  14.348   6.023  12.629 -0.3277  0.1914 -0.2999
19292W        W35476  14.034   3.910   2.700 -0.2361 -0.2017 -0.0788
19293W        W35477   4.123   3.836   2.267  0.2687  0.0986  0.5519
19294W        W35478   4.415   4.771   5.630  0.0297 -0.3950 -0.0429
19295W        W35479  15.647   0.609  10.951 -0.2825  0.1460 -0.2120
19296W        W35480  17.763  10.540   2.002  0.1025  0.2711  0.3196
19297W        W35481  16.011   8.534   1.567 -0.3776 -0.0536 -0.3250
19298W        W35482   3.404  16.893  14.533 -0.1219 -0.1016  0.0662
19299W        W35483  17.135  12.880   1.777  0.1005 -0.0923  0.1094
19300W        W35484   2.006  11.095  12.721 -0.0203  0.1512  0.1398
19301W        W35485   9.349  11.847  12.911 -0.2663  0.0397  0.3170
19302W        W35486  18.958  14.351   2.056  0.0045  0.1999 -0.1591
19303W        W35487  16.623  13.517   9.891 -0.0966  0.1273 -0.0161
19304W        W35488  11.089   7.079   3.908 -0.1229 -0.4703 -0.2130
19305W        W35489   2.143   6.421   4.177  0.2289  0.0680  0.0765
19306W        W35490   9.208   1.521  13.796 -0.1459  0.0817  0.0655
19307W        W35491   2.950   9.989  11.303  0.1536 -0.2479  0.3062
19308W        W35492  16.205  11.683   1.100 -0.1318 -0.0093 -0.0677
19309W        W35493   8.183   7.445   9.767 -0.2639 -0.0586 -0.1915
19310W        W35494  13.251  11.430   3.408  0.0501  0.3530  0.2613
19311W        W35495  10.174  10.672   3.691  0.1064  0.0463  0.2512
19312W        W35496   4.889   2.250  11.824  0.0410  0.1508 -0.2346
19313W        W35497  14.997   8.528   0.315 -0.1040  0.0478 -0.4667
19314W        W35498  14.486  15.359   2.812 -0.0823  0.3604 -0.0348
19315W        W35499  14.151   7.947   0.411  0.0822  0.1695 -0.0161
19316W        W35500   2.837   0.862   0.121 -0.0614 -0.0763 -0.0900
19317W        W35501  10.842   9.086  10.456 -0.1184 -0.0802 -0.0862
19318W        W35502  13.276   1.687   4.512 -0.0776 -0.0825  0.1527
19319W        W35503  12.501   1.418   1.748  0.0539 -0.2222 -0.1316
19320W        W35504  13.985   5.902   0.684 -0.0955 -0.0398 -0.1612
19321W        W35505  11.233   6.197  13.517 -0.1632 -0.1847 -0.1426
19322W        W35506  14.740   1.158   2.857 -0.3267 -0.0808  0.0611
19323W        W35507   0.997  10.885   2.990 -0.1217 -0.3786  0.0108
19324W        W35508   9.449   2.838  12.597 -0.0351  0.1003 -0.0523
19325W        W35509  15.254   1.135  10.598 -0.1297  0.0415  0.2108
19326W        W35510  16.256  11.937  10.213  0.0547  0.1795 -0.3543
19327W        W35511   1.874   1.718  14.001 -0.0227 -0.0934  0.0780
19328W        W35512   4.942   5.954  14.467  0.2416 -0.0050  0.3160
19329W        W35513  12.637   2.804   3.360 -0.0480  0.0244 -0.0240
19330W        W35514   4.722   9.760  12.883 -0.0534 -0.2897  0.0337
19331W        W35515  13.245  12.988  11.825  0.0112 -0.1915 -0.2248
19332W        W35516  15.593  12.803   0.216 -0.1918 -0.2273  0.0010
19333W        W35517   3.441  12.194   0.792 -0.0128 -0.1629  0.1278
19334W        W35518   5.736   4.962   0.999 -0.2808 -0.1980 -0.1384
19335W        W35519  10.761  18.048  14.539 -0.1444  0.0335 -0.0994
19336W        W35520   2.577   6.275   1.311  0.1208 -0.3190 -0.0258
19337W        W35521   2.637  14.943   0.176 -0.0635  0.0160  0.2562
19338W        W35522   4.660   4.075  13.678  0.0148 -0.0369  0.2712
19339W        W35523   8.717   1.280   2.955  0.1050  0.2804 -0.0739
19340W        W35524  17.208   7.226   3.290 -0.0358 -0.1938 -0.0567
19341W        W35525  13.128   8.767   3.770 -0.4698  0.0014 -0.1337
19342W        W35526   1.384  12.568  14.339  0.1040 -0.2780 -0.0240
19343W        W35527   9.391   9.374   4.278  0.0745  0.4087 -0.0520
19344W        W35528   2.833   1.103   4.276 -0.1351  0.2752 -0.1550
19345W        W35529   7.740  16.922  12.145  0.1631  0.2151 -0.3616
19346W        W35530  12.605  14.349  11.780  0.3516 -0.2048  0.0955
19347W        W35531   5.829   1.887  12.806 -0.1807 -0.3544 -0.2234
19348W        W35532   3.078   5.215   3.216  0.1488 -0.0909 -0.2119
19349W        W35533   0.865  18.364  14.720  0.1418 -0.2209  0.0319
19350W        W35534  13.010  18.328  11.668  0.2437 -0.1594 -0.2519
19351W        W35535   5.182   5.654   4.409 -0.1033  0.0155  0.1817
19352W        W35536   3.579   5.823  11.261  0.1058 -0.0393  0.1853
19353W        W35537   3.020   6.354  11.679  0.0510 -0.2030  0.1640
19354W        W35538   4.564   8.240   2.149 -0.1600  0.0104 -0.0206
19355W        W35539  11.017  18.278  11.889 -0.1452 -0.0771 -0.2017
19356W        W35540   2.013   7.506   1.911  0.1643 -0.1079 -0.0819
19357W        W35541   5.830   2.607   4.280 -0.2451  0.3784 -0.1082
19358W        W35542  13.711   8.103  10.166 -0.2558 -0.1209  0.1414
19359W        W35543   4.299  11.914   6.075  0.0974  0.0694  0.2177
19360W        W35544   4.278  12.080   4.912 -0.0889 -0.0510 -0.3649
19361W        W35545  15.703  19.184   5.332 -0.0623  0.2411  0.1370
19362W        W35546   6.913  10.583  14.272  0.1531  0.0698  0.0182
19363W        W35547   1.456   7.927  11.084  0.0478 -0.0156 -0.0380
19364W        W35548   3.561  11.356   4.014  0.4001  0.1765 -0.1315
19365W        W35549  11.671   9.513  12.979 -0.0439 -0.0583 -0.0334
19366W        W35550  15.070  13.934   4.645  0.0415 -0.2240 -0.2126
19367W        W35551   6.378  13.900  14.764  0.0257 -0.2094 -0.0535
19368W        W35552   3.775   2.493   3.575  0.2660 -0.2397 -0.3200
19369W        W35553  16.252  16.058  13.259  0.2701  0.4517  0.0450
19370W        W35554   9.836  12.259  12.619 -0.0347 -0.0416 -0.0956
19371W        W35555  12.644  12.878   0.460 -0.0501  0.2016  0.0486
19372W        W35556   7.736  19.185   4.823  0.1384  0.2633  0.1548
19373W        W35557   0.224   3.188  12.764 -0.2578  0.1396  0.2125
19374W        W35558   2.296   2.175  13.946 -0.0397 -0.1213 -0.0170
19375W        W35559   9.864  14.763   4.413  0.3652 -0.2894  0.0996
19376W        W35560  15.322  11.953   0.683  0.0831  0.1810 -0.0191
19377W        W35561  12.935   9.283   3.770 -0.6352  0.3024  0.2204
19378W        W35562   9.729  14.450   0.949  0.2876 -0.0402  0.1378
19379W        W35563   6.366   7.318  11.500 -0.0308  0.2958 -0.1468
19380W        W35564   1.844   4.642   3.365  0.0205  0.1284 -0.1069
19381W        W35565  13.416  17.380  11.444  0.0533  0.1530 -0.0374
19382W        W35566   2.678   3.201   4.669 -0.1092  0.2183  0.2073
19383W        W35567   8.480  14.197   0.361 -0.1919  0.2658  0.2676
19384W        W35568   0.954  10.572  12.787  0.1113  0.1686 -0.0835
19385W        W35569  17.084  16.657   3.451  0.1266  0.0313 -0.0902
19386W        W35570  16.974   0.603  14.025  0.5059  0.2176  0.1323
19387W        W35571  17.759  12.859   0.319  0.1080 -0.0952 -0.2794
19388W        W35572  14.470  15.818  10.587  0.0238  0.2289  0.2647
19389W        W35573   2.901   8.348  14.473  0.2621 -0.0544  0.1293
19390W        W35574   5.736   1.407  14.546  0.0586  0.1941 -0.2632
19391W        W35575  16.152  15.669   0.411 -0.2392 -0.2917 -0.1473
19392W        W35576   6.764   5.072  10.564 -0.1805  0.2098  0.2012
19393W        W35577  10.920   8.095   2.607  0.1981 -0.0155  0.0082
19394W        W35578   8.520  13.476   9.522 -0.0024 -0.1609  0.1261
19395W        W35579  19.169   1.493   2.758  0.1229 -0.1329  0.0596
19396W        W35580   9.397   6.707  13.022 -0.1034  0.0637 -0.2940
19397W        W35581  16.374   8.861   2.343 -0.1694  0.1702 -0.2069
19398W        W35582  17.288  13.127  12.304  0.2216  0.1499  0.0640
19399W        W35583  13.459  10.872   9.449 -0.1791  0.4105  0.0180
19400W        W35584  16.090  12.941   0.213  0.0979  0.2956 -0.0097
19401W        W35585   0.551   1.828  12.544  0.1496 -0.0189 -0.3308
19402W        W35586  14.138   5.447   9.788  0.1118  0.2018 -0.0601
19403W        W35587  15.076  16.446   3.021 -0.2589  0.0243  0.0082
19404W        W35588   1.657   8.205   0.977  0.0837  0.5902 -0.0988
19405W        W35589  16.271   3.267   0.085 -0.1199  0.1213 -0.0909
19406W        W35590  14.484  14.441  14.297 -0.1155  0.2551 -0.0182
19407W        W35591   7.423   0.401   2.470 -0.0312 -0.0760  0.0210
19408W        W35592  11.643   3.700   9.357 -0.0500  0.1412 -0.1578
19409W        W35593  16.471   7.098  12.391 -0.3333 -0.2218 -0.1899
19410W        W35594  14.306   8.575  14.560  0.2777  0.0538 -0.1248
19411W        W35595  16.818   9.647  12.836  0.2449 -0.0162  0.0973
19412W        W35596   0.098  18.553   3.961 -0.0544  0.1557  0.0908
19413W        W35597  12.730   2.762   4.127  0.1673 -0.1110  0.1656
19414W        W35598  12.331  10.389  13.608  0.2628  0.2126  0.2272
19415W        W35599   7.233  14.723  10.287  0.2125  0.1925  0.4092
19416W        W35600  13.576   8.389   8.934 -0.0768 -0.0031 -0.0595
19417W        W35601  18.531  17.329  11.769  0.3836  0.5690  0.0139
19418W        W35602  12.239   6.253   2.018 -0.1512 -0.0022 -0.0390
19419W        W35603   9.264  15.036   9.826 -0.3409 -0.0637 -0.1530
19420W        W35604  11.695  14.311  11.377 -0.0307  0.0372  0.2067
19421W        W35605  13.835   2.503   0.129  0.2129 -0.0087  0.0726
19422W        W35606   0.696  11.165  10.852 -0.4679 -0.1327  0.0254
19423W        W35607   0.993  10.660   1.074 -0.4349  0.2540  0.2620
19424W        W35608   0.549   7.602  13.949 -0.1043 -0.0865  0.2550
19425W        W35609   3.545  15.937  14.500 -0.2363  0.0831 -0.0712
19426W        W35610   2.874   2.182   3.103 -0.4606  0.1610 -0.0304
19427W        W35611   7.420   4.815  13.558 -0.2052 -0.1326  0.1190
19428W        W35612   6.718   5.597  10.535 -0.2218 -0.0569  0.1645
19429W        W35613  18.867   1.088  11.234 -0.2646  0.1211 -0.0846
19430W        W35614  18.835  15.747   0.298 -0.2004 -0.0289  0.0433
19431W        W35615   4.491   9.207  12.103  0.2297  0.1233 -0.1318
19432W        W35616   0.432  19.132  12.382  0.0536  0.2407  0.0290
19433W        W35617   9.943  15.900   4.254  0.0318  0.2070  0.2863
19434W        W35618   9.654  18.523   2.626  0.2316  0.0830  0.0963
19435W        W35619  12.442  18.932  13.449  0.0506 -0.1513 -0.0868
19436W        W35620   8.400   2.332   4.331  0.0899 -0.2286 -0.1326
19437W        W35621   9.207   9.317  12.633  0.0786  0.2320  0.1931
19438W        W35622  17.820   3.593   4.738  0.1481  0.0429  0.1293
19439W        W35623   2.759  14.080   2.673 -0.1892 -0.2313 -0.2129
19440W        W35624   9.280   8.872   0.682 -0.0027 -0.1736  0.1640
19441W        W35625  17.511   3.685  10.287  0.1837 -0.3418  0.1330
19442W        W35626  15.416  10.493   0.467  0.3699  0.4449  0.1183
19443W        W35627  18.230   4.334   2.769 -0.0504  0.0083  0.1610
19444W        W35628   0.987   7.633   4.713 -0.0276  0.1309 -0.2035
19445W        W35629   8.420   4.653  14.641  0.0215 -0.1202 -0.0315
19446W        W35630   4.223   5.905   3.927 -0.2546  0.0721  0.0038
19447W        W35631  18.654  15.067  14.472  0.2752  0.0872  0.0145
19448W        W35632  11.854  14.576   4.922  0.1672 -0.2056 -0.2413
19449W        W35633   3.630   5.830  14.433 -0.0267  0.2302 -0.3661
19450W        W35634  18.725  10.888   2.068 -0.1356  0.0538 -0.1338
19451W        W35635   4.808  10.882   2.913 -0.1395  0.0198 -0.0859
19452W        W35636  13.493  18.160   3.769 -0.0469 -0.1869 -0.0673
19453W        W35637   8.756   8.553   0.113 -0.0848  0.0251  0.0702
19454W        W35638   4.684   4.564  13.811  0.2037  0.1835 -0.2473
19455W        W35639   9.654   7.250  13.148  0.3909  0.1094 -0.0703
19456W        W35640   2.256  11.462   5.082 -0.1411 -0.0520 -0.0823
19457W        W35641  19.376  15.500  11.452 -0.4936 -0.3823  0.4086
19458W        W35642   6.356  14.093   5.195 -0.1878 -0.0677 -0.1407
19459W        W35643   2.493  12.966  11.634 -0.0957  0.1866  0.2198
19460W        W35644   7.421  10.492  11.818  0.0309  0.5272 -0.1950
19461W        W35645  18.675  16.920  12.631 -0.1705 -0.1693 -0.0607
19462W        W35646   2.357  11.542   2.175  0.1159 -0.0084  0.3047
19463W        W35647  12.338   8.583   4.649  0.0021  0.1380 -0.1948
19464W        W35648  10.912   2.300   0.630 -0.0744 -0.1740 -0.0220
19465W        W35649   2.634  19.114   0.434  0.1630 -0.3053 -0.1849
19466W        W35650   4.776   1.930  10.175  0.0509 -0.0048  0.0587
19467W        W35651  16.688  16.482  13.872 -0.0222  0.2514  0.2987
19468W        W35652   1.783  10.137   0.576  0.2861  0.0992  0.0447
19469W        W35653  14.225   5.348  13.531  0.1170  0.0098 -0.4267
19470W        W35654   3.392   8.591  13.827 -0.0473  0.1033 -0.1229
19471W        W35655   7.015  12.834   5.951 -0.0895 -0.0530 -0.0331
19472W        W35656   7.067   2.148   1.664  0.0083 -0.0289  0.2307
19473W        W35657  12.301   1.656   3.464  0.0860  0.3124 -0.0774
19474W        W35658  15.165  14.192   3.526  0.1863  0.1355  0.1982
19475W        W35659   7.249   0.509   3.689  0.1545  0.1257  0.0378
19476W        W35660   9.424  10.508  11.557  0.0127 -0.2073  0.1409
19477W        W35661  10.874   9.776  12.371  0.2583 -0.2106  0.1498
19478W        W35662   4.356  17.518   4.206  0.1153 -0.1280 -0.1582
19479W        W35663  17.530   9.412  14.166 -0.2113  0.1174 -0.1099
19480W        W35664  12.569   3.163   4.566  0.0463 -0.1159  0.0138
19481W        W35665  17.638   4.899   2.710  0.0553  0.0974 -0.1064
19482W        W35666  11.241   4.598  11.601  0.0635 -0.0287  0.1561
19483W        W35667   2.991   7.331   5.444  0.1771  0.0227  0.2276
19484W        W35668  10.287   5.409   1.485  0.1444 -0.0807 -0.2434
19485W        W35669  19.224   2.205  11.405  0.2328 -0.0377  0.1078
19486W        W35670  12.901  12.336   2.596 -0.2460 -0.1895 -0.3670
19487W        W35671  16.948  10.371  10.738 -0.1390 -0.1793 -0.1560
19488W        W35672   8.076  11.296   2.018 -0.1034  0.0162 -0.0491
19489W        W35673  16.990   1.049  13.031  0.0931  0.2222 -0.0056
19490W        W35674  11.440  13.799   1.428 -0.2172  0.0878  0.0932
19491W        W35675  19.321   1.418   3.230 -0.1567  0.3432 -0.0204
19492W        W35676   9.081   1.565   3.271 -0.2081  0.2516  0.2745
19493W        W35677  18.810  17.509   4.818 -0.2829  0.0377 -0.2996
19494W        W35678   5.187   5.190   6.108 -0.2639 -0.0965  0.1223
19495W        W35679  17.263   8.334   3.302  0.1672  0.2405 -0.1565
19496W        W35680  15.715  18.674  14.400  0.1989  0.2185 -0.0727
19497W        W35681  16.245  18.924   9.673 -0.1630 -0.5200  0.1384
19498W        W35682   1.257   0.910   2.768 -0.2191  0.1961  0.2659
19499W        W35683  15.604   6.399   3.051  0.0848  0.0006  0.2779
19500W        W35684   1.307   7.468   0.731 -0.0885  0.0002 -0.0380
19501W        W35685  18.232  10.946   4.733 -0.0015 -0.4618  0.0163
19502W        W35686   6.125  12.255  10.006  0.4087 -0.0449 -0.0138
19503W        W35687  11.635   7.316   3.886 -0.4137  0.0117  0.0485
19504W        W35688   2.739   5.085  13.485  0.0985  0.0767 -0.0274
19505W        W35689   6.878  18.795   4.403  0.0911  0.0765  0.2356
19506W        W35690  15.874   6.724  13.014  0.0993 -0.1131  0.5254
19507W        W35691   4.078   9.345   0.141 -0.0739 -0.0075 -0.0456
19508W        W35692   6.041   6.607   2.012 -0.0804 -0.3690 -0.2097
19509W        W35693   5.199   0.108   2.753 -0.4201  0.1680 -0.0866
19510W        W35694  12.926   4.914  12.198  0.2670  0.0158 -0.0043
19511W        W35695   9.638  10.846  14.855 -0.1967 -0.0197 -0.3409
19512W        W35696   9.393  11.268   2.203  0.1445 -0.2062  0.2857
19513W        W35697   2.179   9.107   4.850 -0.1761 -0.1795  0.1204
19514W        W35698  16.669   6.435   3.136 -0.0488 -0.0833 -0.0646
19515W        W35699  10.799   3.746  14.351  0.3073  0.0447 -0.0786
19516W        W35700  12.254   3.355  13.282  0.0938 -0.1583  0.1811
19517W        W35701  11.103   8.909  12.069  0.0330  0.0970  0.0899
19518W        W35702  12.965  18.356   0.773  0.1426  0.1461 -0.3667
19519W        W35703  13.643  13.829  14.178  0.2244  0.0247 -0.0757
19520W        W35704   7.206  15.796   3.037  0.3953 -0.0686  0.3651
19521W        W35705   1.313  10.896  12.748 -0.0177  0.1590  0.1564
19522W        W35706   3.225  15.172  14.800 -0.0783  0.1900 -0.3791
19523W        W35707  12.370   5.533   3.758  0.1091 -0.4011  0.0324
19524W        W35708   7.355  18.268  10.514  0.4464 -0.0308 -0.1187
19525W        W35709   1.172  13.515  12.535  0.2499 -0.2788  0.2208
19526W        W35710   2.281  11.048  14.511 -0.5588 -0.0649  0.5888
19527W        W35711   1.151   2.351  10.981 -0.1845 -0.0468 -0.1662
19528W        W35712  17.297   6.403   1.632  0.2206 -0.1025  0.0746
19529W        W35713   8.300  13.208  13.809 -0.1545 -0.2775 -0.2079
19530W        W35714  12.803   5.131   1.331  0.0203 -0.2235  0.2186
19531W        W35715  11.821  18.954  11.831  0.1511 -0.1314  0.1843
19532W        W35716  13.817  15.760  11.256  0.2358  0.0692 -0.1967
19533W        W35717   0.641  17.654  12.543  0.0742 -0.4127  0.0072
19534W        W35718  10.561   7.005  11.108  0.0682  0.0338  0.1169
19535W        W35719   2.622   6.122   4.901  0.2670 -0.1511 -0.0758
19536W        W35720   6.661   3.238  11.186 -0.1688 -0.1055  0.0396
19537W        W35721  11.339   5.247  14.555  0.2259  0.0842  0.2725
19538W        W35722   7.740  18.622   0.650 -0.1950 -0.2139  0.3421
19539W        W35723  15.721  15.461  11.596 -0.0769 -0.0632 -0.1921
19540W        W35724  13.206   2.157   5.375 -0.0320 -0.3805  0.2333
19541W        W35725  13.235   9.371   5.299  0.2032 -0.1459 -0.0798
19542W        W35726  14.363   7.252  10.404  0.0961 -0.2920 -0.0449
19543W        W35727   3.528   0.352   0.384 -0.0305  0.0970  0.0776
19544W        W35728   2.912  11.168   5.095  0.0995  0.1245 -0.2047
19545W        W35729   9.794   9.051  11.470 -0.0052 -0.1094 -0.3229
19546W        W35730  11.033  11.929  10.613  0.3460 -0.2226  0.0945
19547W        W35731   1.728  11.552   0.524 -0.0023  0.4339  0.1191
19548W        W35732  13.836  18.844   2.273 -0.1777  0.0027  0.0622
19549W        W35733   6.419  10.578  13.202  0.3113 -0.4597  0.0407
19550W        W35734   7.859   9.125   2.235 -0.0479 -0.0450 -0.0005
19551W        W35735   4.035  11.067   2.261 -0.1993  0.1670  0.0077
19552W        W35736   9.225  12.751  10.277 -0.1314 -0.2363 -0.1451
19553W        W35737  17.870  16.237  12.362  0.0215  0.2131  0.2990
19554W        W35738   4.785   6.931   4.337  0.3286  0.0664 -0.0469
19555W        W35739  16.934   4.176  13.624  0.0894  0.0473 -0.1904
19556W        W35740   2.411   1.114   1.316 -0.0669  0.0988 -0.0193
19557W        W35741  18.545   9.879   5.496 -0.2361  0.2764 -0.1191
19558W        W35742   6.712  14.139   0.130 -0.2227  0.1415 -0.2441
19559W        W35743  12.079   7.666   1.835  0.3034 -0.1072  0.2347
19560W        W35744   1.910  14.022  13.587 -0.0387 -0.0026  0.2229
19561W        W35745   5.498   3.379  11.935 -0.1403  0.0338  0.2357
19562W        W35746   7.194   6.765   1.606 -0.1129 -0.4331 -0.0401
19563W        W35747   7.805  14.067   0.930  0.3488 -0.0221 -0.4058
19564W        W35748   9.279   5.318   1.304  0.0042 -0.3197  0.3062
19565W        W35749  11.665   3.718  13.957  0.1059  0.1073  0.1065
19566W        W35750   3.181   8.842  11.582  0.0196  0.1080  0.2283
19567W        W35751   3.584   4.843   0.621 -0.3269 -0.0959  0.0092
19568W        W35752  17.624  17.702   1.671 -0.3944 -0.2837  0.2173
19569W        W35753   1.211   1.149  12.250 -0.0361  0.3719 -0.2064
19570W        W35754   5.017   3.385  12.871  0.1537  0.0481 -0.0757
19571W        W35755   1.330  18.039  11.464  0.0326 -0.0027 -0.0588
19572W        W35756   4.997   5.866   5.160 -0.1435 -0.4957  0.1236
19573W        W35757   3.947   9.240  11.913 -0.2116 -0.0913 -0.4002
19574W        W35758  16.144   3.800   1.342 -0.1053  0.2456  0.0263
19575W        W35759  10.090  18.650  14.224 -0.4172 -0.2611 -0.1277
19576W        W35760   2.394   3.459   3.380  0.0924  0.0631  0.7036
19577W        W35761  10.182   0.303   3.251  0.1918 -0.1126 -0.0072
19578W        W35762   5.314  15.649   4.900 -0.0105  0.1536 -0.2562
19579W        W35763   0.132  16.536   0.217 -0.1460 -0.4351 -0.1399
19580W        W35764   5.240   3.053   4.419 -0.2702  0.2108  0.0538
19581W        W35765  13.690  12.153   9.217 -0.1547 -0.2191  0.0778
19582W        W35766   2.642  17.143  13.929  0.0922 -0.1732  0.0636
19583W        W35767  13.404   3.895   0.920  0.0512 -0.1129 -0.3403
19584W        W35768  12.610   1.693   9.915 -0.1134 -0.0692 -0.1192
19585W        W35769   0.636  12.075   2.158 -0.2118 -0.2967  0.0147
19586W        W35770   5.415  10.308   3.208 -0.0251  0.2808  0.1883
19587W        W35771  18.928   0.346   4.010  0.0411  0.1957 -0.2629
19588W        W35772  17.330  12.702  11.031 -0.2127 -0.1612  0.4621
19589W        W35773   9.142   9.373  14.568  0.0122 -0.1422 -0.1607
19590W        W35774  10.794   5.993  11.192  0.2162  0.0738 -0.5467
19591W        W35775  13.715  16.269   2.204 -0.0810  0.0743  0.1827
19592W        W35776  14.464   3.804  10.631 -0.2619  0.0356  0.0626
19593W        W35777   2.791  14.165   4.505 -0.0921 -0.1649 -0.1418
19594W        W35778   3.224  12.061   5.826 -0.3714  0.0127 -0.1180
19595W        W35779   4.763   3.572   0.629 -0.0312 -0.0669  0.2893
19596W        W35780  12.298   8.784  11.730 -0.1864  0.4022  0.0144
19597W        W35781  14.171   4.642   4.783 -0.0528 -0.1181 -0.0420
19598W        W35782  11.613   2.424  14.442  0.1117 -0.0393 -0.1442
19599W        W35783   2.819   8.743   2.828  0.4940  0.2995 -0.2149
19600W        W35784  14.841   5.100  12.467  0.1902 -0.1269 -0.1393
19601W        W35785   4.053  10.252  13.555  0.2297  0.1258  0.2812
19602W        W35786  12.693   1.058  13.426 -0.1292  0.0664  0.0679
19603W        W35787   8.479   2.698   2.686 -0.2640 -0.2627 -0.2506
19604W        W35788   7.395  11.533  11.032 -0.1073  0.0585 -0.1474
19605W        W35789  17.351  13.290   2.623  0.2689  0.1333  0.0656
19606W        W35790   7.743  15.673  12.097  0.0060 -0.3067  0.1245
19607W        W35791  13.428  18.735   4.160  0.0224  0.1101 -0.0139
19608W        W35792   4.682  13.077  11.974  0.1830  0.1356  0.1813
19609W        W35793   2.379   9.081  14.799  0.2394  0.0046 -0.1345
19610W        W35794  17.780  17.643  12.668  0.1593  0.0711  0.1385
19611W        W35795   4.594   8.384  12.772 -0.4963 -0.0280 -0.1753
19612W        W35796  16.613   2.073  14.745  0.1736 -0.0242  0.0099
19613W        W35797  17.760  18.064   5.181  0.1098  0.2396 -0.3862
19614W        W35798  18.428  11.305   2.975  0.1471  0.0310  0.4092
19615W        W35799  16.882  18.001   3.649 -0.1606  0.2012  0.2263
19616W        W35800   5.442   2.413  13.874  0.0712 -0.1254 -0.0497
19617W        W35801  12.457  13.489   3.737  0.3794 -0.1587 -0.0565
19618W        W35802  18.588  12.075  13.025  0.3487  0.1719 -0.1632
19619W        W35803   9.789   6.012  14.683  0.2497  0.1811  0.0481
19620W        W35804   6.633  18.865  12.490  0.1799 -0.2228  0.0572
19621W        W35805  10.312   8.675  14.042 -0.3880  0.3215  0.2031
19622W        W35806   1.810   0.907   0.570 -0.0671 -0.2539 -0.2396
19623W        W35807  16.832  10.319  11.315  0.0333  0.0769 -0.0235
19624W        W35808  14.808   2.226   1.124  0.3561  0.0248 -0.2272
19625W        W35809   5.322   5.238   0.862  0.0625 -0.1712  0.2146
19626W        W35810   7.856   2.529  11.317 -0.2198 -0.0563 -0.0455
19627W        W35811  14.875  14.535   3.756 -0.0644 -0.0833  0.2131
19628W        W35812   5.256  18.423   4.937 -0.0739  0.0486 -0.0987
19629W        W35813   0.681   7.617   3.577  0.0825  0.1091 -0.2599
19630W        W35814   2.109   7.007   3.853 -0.0870 -0.1889 -0.0610
19631W        W35815   6.674  18.712   3.393  0.0852  0.3253  0.0383
19632W        W35816   9.634  10.229   4.742 -0.0315 -0.0524  0.0028
19633W        W35817   8.032  13.864  11.999  0.0955  0.2660  0.1919
19634W        W35818   2.071   5.064   2.850  0.2711  0.0545 -0.0045
19635W        W35819  12.240   1.470   4.757 -0.0210  0.2658 -0.0246
19636W        W35820   9.820  16.339   0.760 -0.2654 -0.0039  0.1350
19637W        W35821   0.290  10.096  12.243  0.0015  0.2132  0.1880
19638W        W35822   6.665   4.177  11.926  0.5888 -0.0227 -0.1300
19639W        W35823   2.674   9.855  12.342 -0.3432  0.2404  0.1540
19640W        W35824  19.014   9.108  12.412 -0.2232 -0.2591  0.0299
19641W        W35825  15.266  16.857  14.714 -0.0937  0.1929 -0.1878
19642W        W35826  18.629  14.678  14.801  0.0938 -0.0346  0.1997
19643W        W35827   1.348   1.237  11.021 -0.0826  0.1092 -0.0403
19644W        W35828  12.038   4.057  10.529  0.1449 -0.0978 -0.3294
19645W        W35829  11.776   1.724   3.521  0.1872  0.0616 -0.0049
19646W        W35830  15.863  13.657   0.282 -0.2706 -0.0367 -0.2572
19647W        W35831  12.545  11.763  11.395  0.1081  0.1427  0.2894
19648W        W35832   7.637   0.360   3.409  0.0810 -0.3053  0.2314
19649W        W35833   7.097   7.643   4.909  0.5093  0.1087 -0.2574
19650W        W35834  12.273   4.921   2.496 -0.1281 -0.2881 -0.0781
19651W        W35835   0.936  16.167  14.071 -0.0718 -0.2504  0.3408
19652W        W35836  14.334   9.236   0.890 -0.1550 -0.3870  0.3637
19653W        W35837   7.952  14.809  12.277  0.1044  0.1141  0.1276
19654W        W35838   4.669  13.038  11.440 -0.1176  0.1874  0.0054
19655W        W35839   9.550  14.523  11.804  0.0851  0.0323  0.2838
19656W        W35840  15.756  15.382  10.517 -0.2770 -0.1640  0.2061
19657W        W35841  15.588   7.523   4.985 -0.1538 -0.0324  0.0818
19658W        W35842  12.087  10.932   1.412  0.1170  0.1576  0.0668
19659W        W35843   6.226   6.436   3.348  0.4981 -0.1116 -0.0257
19660W        W35844   7.547   1.748   4.213 -0.1600 -0.2488 -0.0474
19661W        W35845   2.266  11.167   2.571 -0.1353  0.3583  0.0779
19662W        W35846  12.657  16.458   3.333  0.3659 -0.0049 -0.3858
19663W        W35847  11.903  19.046  10.727  0.6566  0.1812 -0.2316
19664W        W35848   4.810  12.782   0.484 -0.1603 -0.0488 -0.2600
19665W        W35849  15.294   4.722   3.883 -0.0071 -0.4904  0.1077
19666W        W35850  16.797  16.185   5.168 -0.1505  0.1849 -0.2097
19667W        W35851  14.688  10.576  14.695  0.1334 -0.0817  0.1769
19668W        W35852  18.417   6.629  13.989  0.0805 -0.1261 -0.0049
19669W        W35853  18.801   6.610   1.567  0.0003  0.3863  0.0761
19670W        W35854  18.080   0.646   2.097 -0.2089 -0.0506 -0.1300
19671W        W35855   7.598   1.162   2.125 -0.0924  0.2951 -0.0845
19672W        W35856   0.445   7.205   3.990  0.0904  0.0431  0.0050
19673W        W35857  12.206  18.737  10.468  0.1437  0.0953 -0.3060
19674W        W35858  15.126   5.670  10.437  0.0127  0.1974  0.1272
19675W        W35859  15.992   0.908  14.522 -0.2178  0.2338  0.3012
19676W        W35860   3.608  17.419   0.824  0.1241  0.0136 -0.2669
19677W        W35861   2.337  16.806   0.920 -0.0286 -0.0807  0.3160
19678W        W35862   8.626   3.641   3.266 -0.0439 -0.3196 -0.3350
19679W        W35863   3.934   0.181  10.464  0.1056  0.1317 -0.4038
19680W        W35864   9.441   0.701   2.621 -0.2202  0.1305  0.1374
19681W        W35865   9.370  13.413  11.892 -0.1427 -0.1397  0.0901
19682W        W35866  16.612   0.363   3.319  0.2035 -0.1147  0.3289
19683W        W35867  11.849  18.406   3.409 -0.1922 -0.0217  0.0111
19684W        W35868  16.847  18.841  14.029  0.0560 -0.0257 -0.1189
19685W        W35869   3.576   9.471   4.712 -0.3538  0.0344 -0.2069
19686W        W35870  11.461  12.838   0.175 -0.0650 -0.3187 -0.0902
19687W        W35871  11.723   5.297  14.172  0.1005 -0.0567  0.0962
19688W        W35872   9.611  19.021  13.463 -0.0493  0.5695 -0.3790
19689W        W35873   9.279   3.540   4.405  0.3144 -0.1690 -0.2259
19690W        W35874   7.663   1.381   0.887  0.3250 -0.1034 -0.1532
19691W        W35875  15.580  12.944  10.081  0.1001  0.1314  0.0052
19692W        W35876   5.408  19.053   0.419  0.0055  0.2804  0.0609
19693W        W35877   3.117  17.551   3.929 -0.1519 -0.2063  0.2251
19694W        W35878   3.431   1.435  12.793 -0.1840 -0.1384 -0.0879
19695W        W35879   2.260   2.556   2.764 -0.0457 -0.0277 -0.2441
19696W        W35880   8.440   1.702  11.815 -0.1495 -0.1762 -0.4248
19697W        W35881   5.178   5.749  14.888  0.3636 -0.1994  0.2738
19698W        W35882   1.305   7.393   1.498  0.0908  0.0995  0.0214
19699W        W35883   8.680   2.050  12.744  0.0777 -0.1744 -0.0329
19700W        W35884   7.894  14.108  13.491  0.1392 -0.2096 -0.0282
19701W        W35885   1.349   5.406   4.268  0.1561  0.1469  0.3187
19702W        W35886  18.177  12.927  12.713  0.0950  0.1422  0.2973
19703W        W35887  16.774  18.928   4.393  0.1329 -0.1339 -0.0927
19704W        W35888   6.769  19.288   2.689  0.2660 -0.1567  0.2461
19705W        W35889   5.346  14.493   2.336 -0.3313 -0.1926  0.0539
19706W        W35890   5.439   4.724  12.646  0.0481  0.1351 -0.0451
19707W        W35891   9.907   4.580   2.981 -0.0716 -0.4787 -0.3695
19708W        W35892   5.386  13.756  12.958 -0.2390  0.0166  0.1852
19709W        W35893   7.826  16.750  13.425 -0.2018 -0.0318  0.1365
19710W        W35894   5.681  13.898  11.082 -0.3175  0.1954  0.2973
19711W        W35895   4.448  18.804  10.477 -0.0117 -0.2952 -0.0894
19712W        W35896  14.410   8.668   0.970  0.0821 -0.0237 -0.5107
19713W        W35897   7.902   0.806   0.684  0.0077 -0.0423  0.2017
19714W        W35898  14.729  15.777   3.604 -0.0432 -0.0138  0.1854
19715W        W35899  12.337   9.054   4.356  0.1147  0.4145 -0.1296
19716W        W35900  10.342   0.409   0.495 -0.2575 -0.2509 -0.1807
19717W        W35901   1.573  11.103  11.055 -0.2809 -0.0006 -0.1589
19718W        W35902   8.523  15.949  13.999  0.2162  0.2059  0.1646
19719W        W35903  16.299  12.279   3.891 -0.3697 -0.0748  0.1511
19720W        W35904   9.715   4.007  12.315  0.3108  0.0587 -0.0605
19721W        W35905   1.552   5.660  11.576 -0.0328 -0.0684 -0.1144
19722W        W35906  16.204  10.572   2.043 -0.4283  0.6471  0.5547
19723W        W35907   8.103  12.090  11.029  0.1256 -0.0394 -0.0507
19724W        W35908   1.462   4.120  12.991  0.2523  0.1692 -0.0144
19725W        W35909   0.000  11.408  13.107 -0.1448  0.3140 -0.1962
19726W        W35910   1.915   6.688  12.068 -0.3159 -0.0576  0.3474
19727W        W35911  10.627   1.732   1.036  0.4174  0.3067 -0.1117
19728W        W35912   6.385   0.127   1.873  0.2317 -0.1537 -0.0297
19729W        W35913   4.750   6.509   0.080  0.0959  0.1451 -0.1188
19730W        W35914  12.230   7.648   1.343  0.0410 -0.3525  0.1062
19731W        W35915  13.885  16.155   0.752  0.2321  0.0963  0.1561
19732W        W35916  17.368   5.379  11.035 -0.2664 -0.0670 -0.3447
19733W        W35917   2.779   7.350   2.149 -0.0868  0.1510 -0.0839
19734W        W35918  14.890   4.079  13.904  0.1454 -0.1587 -0.4515
19735W        W35919   3.349   4.065  11.188  0.0403 -0.0140  0.0787
19736W        W35920  15.267  11.129   3.402 -0.0567 -0.0447  0.0651
19737W        W35921  11.067  15.387  12.778  0.3711 -0.0307 -0.0487
19738W        W35922  12.951   2.279   4.067  0.0749 -0.1796 -0.0217
19739W        W35923  17.496   7.235  12.990  0.0525  0.0755 -0.1673
19740W        W35924   9.357  14.494   0.475  0.0584 -0.3100 -0.1279
19741W        W35925   7.778   5.372  13.286  0.0496  0.0095  0.1119
19742W        W35926   1.499   9.581  14.418 -0.0165 -0.1071  0.0516
19743W        W35927  12.275   4.994  11.627 -0.3024 -0.1548 -0.0798
19744W        W35928  18.640  16.162   4.877 -0.0309  0.1731 -0.2831
19745W        W35929   4.595  19.235   3.737  0.0904  0.0850 -0.1933
19746W        W35930   6.187   9.261  12.738 -0.2744  0.4149 -0.1447
19747W        W35931   3.015  14.578  10.488  0.0901 -0.0637 -0.0182
19748W        W35932   7.082   0.699   3.178 -0.3251 -0.0874  0.0676
19749W        W35933   4.336   6.876  14.839  0.2848 -0.2278 -0.1654
19750W        W35934   0.084   3.569   0.012  0.1906  0.0297  0.2192
19751W        W35935   1.139   7.912  14.829  0.0306  0.4501  0.2860
19752W        W35936  17.485   5.522   0.070  0.0203  0.2628  0.2160
19753W        W35937  11.435  10.663  10.539  0.1513  0.1509 -0.2788
19754W        W35938  17.605   4.998  11.374  0.0211 -0.1454  0.0042
19755W        W35939  12.069   0.658  14.024 -0.0272 -0.0363  0.0278
19756W        W35940  16.277  18.738   1.861  0.0009  0.3110 -0.3510
19757W        W35941  13.506  10.423  14.460  0.0349  0.1471 -0.0801
19758W        W35942   3.322  17.067  12.809 -0.2777 -0.3761  0.0599
19759W        W35943  13.006   7.382  11.909  0.1790  0.2888 -0.1020
19760W        W35944  18.189  16.309   0.563 -0.2001 -0.2696 -0.0101
19761W        W35945  17.225   6.764   3.929  0.0567  0.1962  0.0158
19762W        W35946  12.749  15.438   1.322 -0.0462  0.1546 -0.1137
19763W        W35947   1.888  10.501  11.623 -0.0563 -0.1786 -0.0871
19764W        W35948   3.250   7.874  14.402 -0.1798  0.3351  0.0442
19765W        W35949   2.970  13.048  11.928 -0.0094 -0.0014  0.0130
19766W        W35950   6.881   2.522  13.726  0.0787 -0.3480  0.0379
19767W        W35951  16.216  14.167  13.558 -0.1802 -0.3769 -0.1206
19768W        W35952   8.967   2.931  11.522  0.4306 -0.1455  0.0408
19769W        W35953   1.333  16.796   4.848  0.1808 -0.3763  0.2768
19770W        W35954  17.314  13.561   2.233  0.1067 -0.0300 -0.2733
19771W        W35955  15.469   2.259  14.362 -0.0032 -0.1071 -0.0568
19772W        W35956  10.804  18.055   1.266 -0.2064 -0.0379  0.1160
19773W        W35957   2.841  13.256  12.561 -0.0678  0.0487  0.5477
19774W        W35958   9.211  18.580  14.899 -0.2311  0.1309  0.2809
19775W        W35959  17.946  17.244   4.695  0.1112  0.2999 -0.1204
19776W        W35960   3.674  15.463  14.204  0.0393  0.5141 -0.2038
19777W        W35961  12.909  15.255   3.769  0.2123 -0.3620 -0.1845
19778W        W35962  11.848   3.661  12.687 -0.2284  0.0086 -0.0014
19779W        W35963   5.531  10.681  14.358  0.3490 -0.0687 -0.1473
19780W        W35964  12.153   6.107  11.083 -0.2850 -0.0482 -0.0034
19781W        W35965   7.119   5.478  13.939 -0.1496  0.3668  0.0006
19782W        W35966   1.226  17.849   1.176 -0.1104  0.0959  0.1896
19783W        W35967  18.461   1.428   4.520  0.0059 -0.0470  0.0383
19784W        W35968   4.842  18.520   2.106 -0.0296 -0.0888  0.3638
19785W        W35969  17.179  12.310  14.218  0.0228  0.1731 -0.0390
19786W        W35970   9.741  10.751   3.445 -0.2118  0.0709 -0.2398
19787W        W35971  11.530   5.435  12.118 -0.2644 -0.0981 -0.4009
19788W        W35972  14.222  11.940   3.052  0.1417 -0.0632 -0.0516
19789W        W35973   8.552  10.927  14.209  0.2195 -0.0900  0.0484
19790W        W35974   2.954  18.608  12.483 -0.1225  0.3021 -0.1314
19791W        W35975  10.709   8.065   3.054 -0.0870  0.3714 -0.0727
19792W        W35976  15.871  15.109   4.959  0.1882  0.0010 -0.1322
19793W        W35977  15.759   6.822   1.147  0.0938 -0.0621 -0.1347
19794W        W35978   2.565  18.915  12.200  0.4886 -0.0327  0.1209
19795W        W35979  11.024  17.045   4.371  0.1993 -0.1982  0.1430
19796W        W35980  14.406  10.218  14.863  0.2620  0.3379  0.0430
19797W        W35981   2.489  15.961   0.781 -0.0632  0.2983 -0.1286
19798W        W35982   1.086  18.657   2.917  0.1492  0.0560 -0.4427
19799W        W35983  14.943  15.479   3.240 -0.0479 -0.0526  0.0405
19800W        W35984   9.171   5.778  12.648  0.0657  0.2674 -0.0152
19801W        W35985  18.454   2.543  14.355 -0.1039  0.0557  0.1238
19802W        W35986   3.183   4.341  13.950  0.5935 -0.1308 -0.0164
19803W        W35987   1.787   2.218  12.382  0.1696  0.1741 -0.1702
19804W        W35988   8.640   4.574   5.807 -0.3275  0.0112  0.2377
19805W        W35989  13.654   8.944   5.006  0.0627  0.1035  0.1632
19806W        W35990   1.643  12.186   1.976  0.2837  0.0646  0.2396
19807W        W35991  13.700   2.556  13.705 -0.2129 -0.0585  0.2155
19808W        W35992  13.609   6.681   3.755  0.1123  0.2005 -0.0234
19809W        W35993  16.444  16.754   0.755  0.2313  0.0622  0.3516
19810W        W35994   9.319   6.279   3.197  0.3140  0.2235  0.0503
19811W        W35995  12.961  16.040   3.294  0.2372 -0.0295 -0.0908
19812W        W35996  16.380   1.591   4.960 -0.3384  0.3408  0.0525
19813W        W35997  16.918  12.016   3.127 -0.1291 -0.1711  0.1411
19814W        W35998  15.739  13.681   5.741 -0.5106 -0.0599  0.2571
19815W        W35999   6.744   5.720   3.739 -0.1886  0.0871 -0.2579
19816W        W36000   6.854  13.458  11.374  0.2602  0.2487  0.0816
19817W        W36001  11.377   3.735  14.534  0.1074 -0.2191 -0.1585
19818W        W36002  12.614   1.885  11.467  0.0505 -0.1087 -0.2650
19819W        W36003  12.834   3.736  14.717 -0.0742  0.0244 -0.0200
19820W        W36004  10.234   5.744   4.110  0.0388  0.1386 -0.2111
19821W        W36005   7.688  15.144   2.342 -0.2412  0.4281  0.0481
19822W        W36006  16.844  14.421  11.861 -0.1356 -0.1306 -0.0592
19823W        W36007  16.277  16.834  13.956 -0.2387  0.0609 -0.1192
19824W        W36008  10.420  14.813  13.647  0.0869 -0.1606 -0.1415
19825W        W36009  12.026  18.949  12.635 -0.1827  0.0913 -0.0296
19826W        W36010  10.157  10.517   3.155 -0.0372  0.1434 -0.2033
19827W        W36011   7.809  14.959  11.771 -0.0943 -0.0672  0.0055
19828W        W36012  14.075   4.404  10.620 -0.2947 -0.0337 -0.1223
19829W        W36013  17.236   0.409   4.489  0.1010  0.2718 -0.1420
19830W        W36014  10.345  15.834   1.124 -0.3289  0.0651 -0.3386
19831W        W36015  17.942   4.650   2.463  0.3309  0.0455  0.1630
19832W        W36016  15.310  16.014   2.781 -0.0411  0.1200  0.0891
19833W        W36017  17.539   5.108  14.700  0.2402  0.2579  0.4405
19834W        W36018   8.818  15.123  11.943  0.1530  0.0688 -0.0338
19835W        W36019   6.994   7.293   3.259  0.1172 -0.0062  0.1422
19836W        W36020   7.317   2.565   0.758 -0.4551  0.0140 -0.0807
19837W        W36021   2.540  10.770  13.313 -0.0805  0.2968  0.3908
19838W        W36022  19.262   9.890  12.031  0.1701  0.4332  0.1978
19839W        W36023   0.132  11.630   9.585 -0.3305  0.1145  0.2013
19840W        W36024   6.516  12.141   2.571  0.0909  0.0010  0.2578
19841W        W36025   2.988   8.709   3.642 -0.0254 -0.0433 -0.4948
19842W        W36026  14.879   1.668   0.446  0.1227 -0.0244 -0.1652
19843W        W36027   9.858   0.038   1.764 -0.1471 -0.0924  0.2118
19844W        W36028   0.779   9.112  12.417  0.0279  0.1835  0.0478
19845W        W36029   8.918   5.885   0.561 -0.2268 -0.1498  0.1216
19846W        W36030   8.955  14.266   1.517 -0.0128 -0.4175  0.1884
19847W        W36031   5.714   8.476   2.192  0.1324  0.0199 -0.1311
19848W        W36032  10.176   2.050  13.450  0.1944 -0.0282  0.0673
19849W        W36033  11.570  17.097   0.295 -0.3782  0.2274 -0.0680
19850W        W36034   3.386  12.359  12.473  0.0604  0.3920  0.1340
19851W        W36035   8.708   4.129  14.030 -0.2554 -0.2423 -0.2665
19852W        W36036  18.923  14.915  13.000  0.1105 -0.1548 -0.1007
19853W        W36037   4.028  15.602   2.091  0.0269 -0.2522 -0.0810
19854W        W36038  13.274  10.628   4.051  0.0522 -0.0872 -0.1182
19855W        W36039   8.842  12.327   1.586 -0.0593 -0.1494 -0.0187
19856W        W36040   7.666  12.202   3.853 -0.1507  0.0540  0.3203
19857W        W36041  12.884   8.530  14.011 -0.0716 -0.1579 -0.1866
19858W        W36042   1.147   7.767  11.726  0.3246 -0.1885 -0.2542
19859W        W36043   9.538  18.191   4.305 -0.0248 -0.0111  0.1376
19860W        W36044  10.449  13.409  11.993 -0.0878  0.0378 -0.3372
19861W        W36045  16.038   9.020  14.731  0.0663 -0.2507 -0.1575
19862W        W36046  10.303   7.437   4.334  0.1681 -0.2075 -0.2148
19863W        W36047  18.997   4.402   3.730  0.2175 -0.3814  0.1267
19864W        W36048   4.016   7.796  14.184 -0.3172  0.0441 -0.0288
19865W        W36049   2.960  12.262  11.338  0.0920  0.1716  0.0029
19866W        W36050   7.973  15.435  11.645 -0.2573  0.1265 -0.0821
19867W        W36051   0.392  13.756   4.452 -0.0054 -0.2399  0.0690
19868W        W36052  11.330   6.432  11.035  0.1528  0.1271  0.2396
19869W        W36053   6.826  18.588  10.100 -0.1481 -0.2491  0.4400
19870W        W36054  14.839  16.016   4.925 -0.2538 -0.3638  0.1909
19871W        W36055  13.424  15.442  14.741 -0.4628 -0.1328  0.0783
19872W        W36056   3.493   1.159  13.253 -0.0641 -0.1529 -0.0914
19873W        W36057   2.032   7.918   0.156 -0.1107  0.0359 -0.0199
19874W        W36058   4.350  10.515   3.575  0.2521 -0.0289  0.2319
19875W        W36059   6.997   4.187   2.621  0.0660 -0.3495 -0.0658
19876W        W36060   4.739   1.409   2.633  0.0012 -0.2189 -0.5729
19877W        W36061  11.142   3.498   2.361  0.2595 -0.3555  0.0183
19878W        W36062  13.548   8.469  12.373  0.1346 -0.0433  0.0117
19879W        W36063  13.038  16.394   2.965 -0.1811  0.1292  0.0141
19880W        W36064   3.072  10.150   0.944  0.2311 -0.1429 -0.1399
19881W        W36065   8.543   2.887  11.314  0.2040  0.2286 -0.1397
19882W        W36066   8.388  14.218   2.620  0.1907  0.0917 -0.2108
19883W        W36067  16.968  12.228   1.432  0.4502 -0.0535  0.0002
19884W        W36068  17.859   3.234   2.797  0.0387  0.3827 -0.0699
19885W        W36069  13.086  17.209  12.250 -0.1647  0.1820  0.1829
19886W        W36070  12.857  15.575   3.209 -0.3457 -0.0836  0.1010
19887W        W36071  17.744   7.256  13.790  0.1201 -0.1733 -0.0837
19888W        W36072   0.370   8.262  13.583  0.1722 -0.2513  0.0773
19889W        W36073   4.916  12.943  14.228 -0.1995  0.1111  0.0714
19890W        W36074   3.626   4.852   1.443 -0.3477 -0.0835  0.2146
19891W        W36075   2.994   1.170   1.411  0.0346  0.1587 -0.2699
19892W        W36076   1.849  18.401   3.115 -0.2526  0.2483  0.0377
19893W        W36077   8.153   2.264   4.815 -0.2706  0.0639  0.1035
19894W        W36078   4.200  11.012  12.206 -0.1267 -0.0563  0.0850
19895W        W36079   8.576   6.443  13.753  0.0578 -0.1101  0.0512
19896W        W36080  19.207   8.235  13.487  0.1228  0.1824 -0.4368
19897W        W36081  11.063   4.457   3.408 -0.1293  0.1704  0.0486
19898W        W36082   9.216   1.222   3.848  0.0649 -0.0473  0.2726
19899W        W36083   3.514  18.525  14.643 -0.1301 -0.0309 -0.1921
19900W        W36084  10.984  12.919   2.232  0.0249  0.0928  0.0619
19901W        W36085   3.821   2.856  12.904 -0.1116  0.0547  0.3169
19902W        W36086  15.456  15.753  10.320  0.0478 -0.3364  0.1150
19903W        W36087   9.063  12.003   5.140  0.1841  0.0784 -0.0217
19904W        W36088   1.653   8.538  13.669 -0.1546  0.0190 -0.0813
19905W        W36089  14.374  18.784  11.905  0.1865 -0.2372  0.0096
19906W        W36090   1.196   9.544   5.139  0.0505  0.4290 -0.0197
19907W        W36091   5.149   6.486   0.359  0.0592 -0.0223 -0.1085
19908W        W36092  14.374  17.832   1.077  0.0372  0.1514  0.0420
19909W        W36093   3.123  11.200   2.840  0.0202 -0.0636 -0.0087
19910W        W36094  16.850   7.061   1.859 -0.3246 -0.2168 -0.0797
19911W        W36095   4.942  13.852   5.356 -0.0681 -0.1540 -0.0160
19912W        W36096   6.271   8.867  13.820  0.1808  0.4358 -0.1314
19913W        W36097   8.286   4.967   2.458  0.1624  0.0017 -0.0069
19914W        W36098   2.818  17.108   0.765  0.1636  0.2510 -0.0698
19915W        W36099  15.861  15.111   3.532  0.0358  0.0955 -0.1330
19916W        W36100   2.847  13.970  12.447 -0.3052 -0.1813 -0.1236
19917W        W36101   6.679  16.442  12.102 -0.1819 -0.1629  0.3169
19918W        W36102  10.243   7.209  10.727  0.3766  0.2311 -0.0773
19919W        W36103   2.346   4.182  11.033 -0.1221 -0.0194 -0.2231
19920W        W36104   5.823   2.860  14.587  0.0546 -0.1004 -0.1220
19921W        W36105  14.655   7.409   1.148 -0.0148 -0.3497 -0.1416
19922W        W36106   6.756  17.347  12.159 -0.0033 -0.0598 -0.2269
19923W        W36107  13.366   6.246  13.076 -0.2057 -0.0273  0.2452
19924W        W36108  16.280   1.786   2.969 -0.0087  0.0930 -0.0212
19925W        W36109  16.832   8.427  10.126  0.1379 -0.3525 -0.0175
19926W        W36110  14.073   2.494   3.243 -0.1681 -0.0436  0.0003
19927W        W36111  11.875   9.580   2.873  0.0949 -0.0374 -0.4255
19928W        W36112   1.508  13.814  11.023 -0.0979 -0.0216 -0.2529
19929W        W36113  14.807   7.194   3.903 -0.0980  0.1386 -0.0209
19930W        W36114   9.558  14.913  13.061  0.3075 -0.0567 -0.1176
19931W        W36115   9.743   3.609   3.628  0.1269  0.2641  0.2257
19932W        W36116   1.943  12.192  14.584  0.0542 -0.1388  0.1883
19933W        W36117  16.900  10.599  12.810 -0.2021  0.0916 -0.4151
19934W        W36118   2.169  16.696  14.196  0.3099 -0.0526  0.0606
19935W        W36119  10.964  11.624   2.933  0.0859 -0.4102 -0.2682
19936W        W36120   6.525  10.156   4.809  0.0364  0.2802 -0.0659
19937W        W36121  17.402   0.494  10.947  0.1758  0.2790  0.0179
19938W        W36122  13.624  12.619  11.841 -0.0591  0.0409 -0.4041
19939W        W36123   4.285   2.337  13.288 -0.3982 -0.0501  0.1513
19940W        W36124   4.864  16.254  13.796  0.0251 -0.0654  0.1360
19941W        W36125   6.794   1.214   0.802  0.3332 -0.3066 -0.2538
19942W        W36126   8.935  12.841  11.142  0.1135 -0.2558 -0.0534
19943W        W36127   7.051  11.887  10.833  0.0757 -0.1248  0.2484
19944W        W36128   2.686   8.122  13.676 -0.1286  0.0652  0.0170
19945W        W36129  14.910  16.831  10.365  0.0119  0.1910 -0.1217
19946W        W36130   1.087   5.144   2.943  0.0538 -0.1643  0.0671
19947W        W36131   2.307  16.008   3.121  0.1397  0.3388  0.0351
19948W        W36132  15.806   2.496   0.595 -0.2324 -0.1534 -0.0621
19949W        W36133  11.401   7.965   3.476 -0.2694  0.2651  0.0248
19950W        W36134  10.901  19.197   1.346  0.2789 -0.2629 -0.0113
19951W        W36135   9.295  15.638   3.914 -0.3279 -0.2153 -0.2506
19952W        W36136   2.418   3.352   2.048  0.0974 -0.1440  0.2394
19953W        W36137  10.452  11.259   1.415 -0.0765  0.0958 -0.0058
19954W        W36138   7.553  19.217   3.438 -0.1399 -0.0650  0.2063
19955W        W36139  17.476   2.537  14.638 -0.0750 -0.0653 -0.3260
19956W        W36140   2.796   1.090   3.560  0.0226 -0.0108 -0.0738
19957W        W36141   9.823   3.856  13.168 -0.3903 -0.1226  0.2372
19958W        W36142   0.389  12.688  11.389 -0.0650  0.2115  0.2651
19959W        W36143  18.546  14.923   2.690 -0.3954 -0.1328  0.0966
19960W        W36144   6.173  12.136  12.723 -0.3343  0.0543  0.0384
19961W        W36145  12.187  10.158   0.265  0.1048  0.1766  0.2978
19962W        W36146   0.744   9.609  12.080  0.1459 -0.1156  0.2047
19963W        W36147   8.799   5.332  14.058 -0.0212 -0.2290  0.1935
19964W        W36148  10.508  10.464   2.840  0.1445  0.1483 -0.2830
19965W        W36149  11.743  10.496  13.941 -0.0513 -0.1878  0.0839
19966W        W36150  13.694  10.537   4.254 -0.2104 -0.0347  0.0304
19967W        W36151  15.486   0.979   3.318 -0.0264 -0.2428  0.2110
19968W        W36152  15.812   3.626  13.580  0.0356 -0.1710  0.0122
19969W        W36153   7.831  13.233  13.907  0.0252  0.1222  0.1938
19970W        W36154  17.260   7.588   3.641  0.1132 -0.4800 -0.1161
19971W        W36155  17.538  12.073  11.622 -0.1024  0.2038  0.2973
19972W        W36156   2.324  13.280  11.014  0.4488 -0.0988  0.0626
19973W        W36157  10.730  14.562  13.174 -0.1699 -0.4003 -0.1584
19974W        W36158  11.387  12.727  11.243  0.1391  0.0328 -0.1466
19975W        W36159  14.939  14.505  14.463 -0.1622 -0.1608 -0.0269
19976W        W36160   6.044   6.634  12.634  0.2625  0.0036 -0.0314
19977W        W36161  15.350   5.295   2.198  0.0333 -0.1314  0.1501
19978W        W36162   5.995   2.455  12.953  0.0939 -0.1213  0.0036
19979W        W36163   6.714  18.092  13.380 -0.0317 -0.1783 -0.0376
19980W        W36164   3.225   9.739   2.194  0.2739  0.0442  0.1132
19981W        W36165   4.924   3.450   5.145  0.1639  0.2037  0.2756
19982W        W36166   0.671   7.302  11.141  0.0122  0.1503  0.1804
19983W        W36167  11.842  18.922   9.071 -0.0636 -0.1953 -0.3124
19984W        W36168  12.667  17.382   1.304 -0.0768  0.2317 -0.0315
19985W        W36169   6.615  15.295   1.053 -0.4521  0.3949  0.1627
19986W        W36170   5.123  12.056   5.575  0.2074  0.1342  0.0744
19987W        W36171  19.348   8.151  14.548 -0.0483  0.0124 -0.1407
19988W        W36172  13.893   1.499   1.188  0.3724  0.3157 -0.1922
19989W        W36173   8.132  12.602  14.692 -0.0750  0.1207  0.2011
19990W        W36174  19.342   0.618  14.309 -0.5912 -0.1435 -0.0558
19991W        W36175  17.253  12.774  14.404 -0.1535  0.0484  0.2543
19992W        W36176   7.724  12.880  14.802  0.0237  0.1831  0.1220
19993W        W36177   7.567  19.363   2.201 -0.1157 -0.0449  0.2011
19994W        W36178   7.758  10.486   4.492 -0.0312 -0.0718  0.0922
19995W        W36179  15.477   1.350   9.529 -0.0441  0.0823 -0.1629
19996W        W36180  18.570  11.442   2.414  0.0332 -0.4685  0.0006
19997W        W36181  10.256  17.584  11.236  0.0195 -0.2250  0.0832
19998W        W36182   7.504  10.360   3.356  0.1613  0.0124 -0.0300
19999W        W36183   6.420   9.483  13.991  0.2164  0.1816  0.0022
20000W        W36184  11.002  18.511   2.401  0.0309 -0.4577 -0.0281
20001W        W36185  12.341  10.416   3.974 -0.0556 -0.0988 -0.0270
20002W        W36186   5.625   0.181  14.506 -0.0692 -0.2274 -0.2532
20003W        W36187   8.636   7.848  13.963 -0.0724 -0.0391  0.4174
20004W        W36188  10.934   7.163  10.110 -0.0455  0.1909 -0.0914
20005W        W36189   7.423  15.151  10.451 -0.0435  0.1681 -0.1666
20006W        W36190   5.761  15.017   3.133 -0.0203 -0.2904 -0.0421
20007W        W36191  10.879   0.178  14.417  0.1042  0.0132  0.0077
20008W        W36192   4.567   6.160   5.552  0.4365 -0.1697  0.1724
20009W        W36193  16.753   7.011  11.101 -0.3140  0.0723  0.0410
20010W        W36194   1.149  11.940  14.272 -0.0439 -0.0481  0.0766
20011W        W36195   7.676  10.737   3.617  0.0896  0.0710  0.1972
20012W        W36196   7.594   1.850  13.840 -0.1418  0.3323  0.1484
20013W        W36197   5.017   0.696   1.498  0.0959 -0.0665 -0.0513
20014W        W36198  15.797  12.952   3.933 -0.0265  0.1425 -0.2901
20015W        W36199   5.635  10.644   4.670 -0.0055  0.2182  0.4462
20016W        W36200   0.664   5.953  12.493 -0.1604 -0.1296  0.2436
20017W        W36201  17.570  14.668   5.849 -0.1493 -0.3508 -0.0667
20018W        W36202  10.439   9.261   3.405  0.2154 -0.0930  0.0999
20019W        W36203   5.590   5.755   1.721 -0.1470  0.2810 -0.1763
20020W        W36204  12.537  15.524  14.028  0.0539 -0.0847 -0.1172
20021W        W36205   6.769  11.047   2.433  0.0262  0.3386  0.0753
20022W        W36206  11.193  13.142  13.456  0.1125  0.3209 -0.0036
20023W        W36207  13.233  14.451  12.140 -0.1114  0.0032  0.1224
20024W        W36208   6.856   1.314   4.129  0.0042  0.0066 -0.1706
20025W        W36209  16.502  18.255   3.376  0.3279  0.1596  0.2148
20026W        W36210  15.151   0.181   0.833  0.0098  0.0825  0.2447
20027W        W36211   5.497   1.437  13.905 -0.3138 -0.0368  0.2846
20028W        W36212   7.133   9.375   2.514  0.2794 -0.1392 -0.2356
20029W        W36213  13.663  12.285   2.083 -0.0212 -0.1629  0.2153
20030W        W36214   5.012   9.950   3.462 -0.0459 -0.2557 -0.2679
20031W        W36215   9.659  10.868  14.073 -0.3185  0.0883  0.3504
20032W        W36216   6.529  13.691   4.073  0.1052 -0.0350  0.4241
20033W        W36217  18.378  14.056  10.239  0.2059  0.2208 -0.3026
20034W        W36218  16.621   0.851   4.650  0.1599 -0.0472  0.2098
20035W        W36219   0.035  12.886   0.874 -0.1703 -0.1577 -0.1978
20036W        W36220   5.583  10.909  13.897  0.1619  0.2044  0.0931
20037W        W36221  13.078   4.678  11.235  0.0429 -0.3004 -0.2720
20038W        W36222   8.962   1.101  13.667  0.2062 -0.0568 -0.4346
20039W        W36223   0.793  13.387  13.390 -0.1097  0.2758  0.3404
20040W        W36224  15.588  16.923  11.008  0.1732  0.3860 -0.1120
20041W        W36225   2.474  13.135   5.013  0.1687 -0.0842 -0.1598
20042W        W36226   5.342  13.153   0.066  0.2267  0.3259  0.0462
20043W        W36227   2.951   6.475   3.803 -0.2232 -0.0607 -0.1177
20044W        W36228  10.761  17.340   0.065  0.1957 -0.0154 -0.3390
20045W        W36229   8.972   7.822  13.518 -0.1545 -0.1822 -0.1820
20046W        W36230   4.489   5.751  13.730  0.0455  0.3219 -0.2224
20047W        W36231  10.535   6.126   9.426 -0.0587  0.1573 -0.0356
20048W        W36232   1.935   2.534   3.256  0.0387 -0.1745  0.1563
20049W        W36233   1.428  12.036   3.528 -0.0544 -0.0982  0.2638
20050W        W36234   9.866   6.738  14.909 -0.2465  0.2444 -0.0532
20051W        W36235  18.168   1.137  14.519 -0.0652  0.0039  0.0707
20052W        W36236   5.012  11.082  12.846 -0.1438 -0.1223  0.0033
20053W        W36237   8.631   5.178  14.546  0.0164 -0.0763 -0.0363
20054W        W36238   4.030  15.864  14.488 -0.1726 -0.2725 -0.1427
20055W        W36239   3.314   2.326  14.336  0.0809  0.0660  0.2335
20056W        W36240   2.570  16.439  11.039 -0.0065 -0.0083 -0.1385
20057W        W36241  13.956   1.266  13.719 -0.1643 -0.4332 -0.1096
20058W        W36242   5.783  13.776   9.553  0.5933  0.0403 -0.4183
20059W        W36243   8.510  18.136  12.446  0.0226  0.0623 -0.0590
20060W        W36244  11.327   1.014   1.052 -0.2552 -0.0585  0.5302
20061W        W36245   0.001  14.505   3.791 -0.1763  0.0230 -0.2094
20062W        W36246  11.604   7.598  14.633  0.1749  0.1700  0.0151
20063W        W36247  15.969   4.714   0.031  0.2268  0.1552  0.0106
20064W        W36248  18.890   2.960  12.633  0.1689  0.0386 -0.0024
20065W        W36249  14.162  14.098  12.102 -0.2398  0.2849 -0.0831
20066W        W36250   8.759  13.684   5.174  0.1639  0.1298  0.2064
20067W        W36251  18.513   4.978  10.406 -0.0610 -0.3043 -0.3664
20068W        W36252  13.088  12.055  12.410  0.2499  0.1590  0.1907
20069W        W36253  16.710   7.708   0.440 -0.2130  0.0402  0.1387
20070W        W36254   7.616  14.076   2.165 -0.3230 -0.3666 -0.2513
20071W        W36255  10.644   3.718  10.825 -0.1594  0.1408 -0.1218
20072W        W36256  14.472  10.656   1.446  0.0819 -0.2111  0.3685
20073W        W36257  18.855  17.180  13.972  0.1904 -0.4353  0.2877
20074W        W36258   5.713   8.912   2.036 -0.2943  0.1215  0.1311
20075W        W36259  13.993   4.248   2.362  0.0860 -0.0363  0.1769
20076W        W36260   8.856   8.102   3.966 -0.1006  0.1363 -0.0791
20077W        W36261   9.013  10.554   2.762  0.1180 -0.0080 -0.0246
20078W        W36262  12.646  15.944   0.014 -0.1439  0.0975 -0.1516
20079W        W36263  13.912  14.386   1.715  0.3282 -0.2132 -0.1406
20080W        W36264  18.163  10.234  14.398  0.0820 -0.0907 -0.4074
20081W        W36265   5.642   0.449  10.759  0.1562  0.1623  0.0192
20082W        W36266   9.907   5.891  11.125  0.0563  0.0851  0.0952
20083W        W36267   1.799   1.001  11.424  0.3920 -0.1946  0.2625
20084W        W36268   7.362  11.591  12.380 -0.0237 -0.3230  0.0603
20085W        W36269  10.055   9.508  11.767  0.1835 -0.0813  0.1805
20086W        W36270  16.552  11.327  12.240  0.2091  0.2921 -0.0538
20087W        W36271  12.659  13.206  14.245 -0.0338 -0.1671 -0.0409
20088W        W36272  13.792  13.746  11.835 -0.1359 -0.4111 -0.1032
20089W        W36273   8.557  12.822   4.766  0.0805 -0.2395 -0.0137
20090W        W36274   4.910   8.975  11.234  0.0612 -0.1487 -0.1653
20091W        W36275   8.107  13.834  13.033  0.2044 -0.0161  0.2122
20092W        W36276  16.414   9.723  13.112 -0.1854 -0.0133 -0.2051
20093W        W36277  18.107   8.746  12.027 -0.4172 -0.0995  0.1281
20094W        W36278  17.461   8.419   9.368  0.1441 -0.1834 -0.2625
20095W        W36279   7.672  13.508   4.400 -0.2516 -0.1629  0.2283
20096W        W36280   1.585   5.061   3.047  0.0306 -0.0097 -0.1977
20097W        W36281  18.736  12.609   0.243 -0.0304  0.1494 -0.2236
20098W        W36282   6.640  18.732   2.032  0.5021 -0.1239  0.2074
20099W        W36283  13.241   4.924   2.263  0.1392 -0.0626  0.0266
20100W        W36284   7.624  11.211  14.034 -0.1410  0.3307  0.0314
20101W        W36285   7.984  15.562   2.443 -0.1835 -0.0165  0.0350
20102W        W36286   2.509   9.037   3.073 -0.0456  0.0496 -0.2410
20103W        W36287  18.886  10.173  12.239 -0.0200  0.0913 -0.3385
20104W        W36288   5.554   4.083   3.183 -0.0530 -0.0632 -0.1018
20105W        W36289   9.277   5.480   3.632  0.2274  0.2030 -0.2106
20106W        W36290  16.517  11.425   9.602 -0.0154  0.0158 -0.2438
20107W        W36291   7.661  11.821  12.864 -0.4376 -0.0669 -0.1874
20108W        W36292   9.267   2.881  11.997  0.1288  0.3178 -0.1451
20109W        W36293   7.771   1.923   0.152 -0.1633  0.1380 -0.1995
20110W        W36294   6.623  13.266  14.492 -0.2971 -0.0972 -0.0961
20111W        W36295  13.370   7.516   4.679 -0.1424  0.0438  0.4707
20112W        W36296   8.258   5.069   1.226 -0.0884 -0.0159 -0.0188
20113W        W36297  12.722  16.425  10.792 -0.1325 -0.1159 -0.0225
20114W        W36298  12.896   7.350   4.030 -0.3162 -0.0182  0.2171
20115W        W36299   7.869  12.430   3.004 -0.0547  0.0218  0.1473
20116W        W36300  15.521  13.918  10.877  0.1301  0.0340  0.1654
20117W        W36301  13.181  14.056   0.596 -0.1794  0.1086 -0.0545
20118W        W36302  13.680  11.613   3.884 -0.1472 -0.2942  0.1363
20119W        W36303   5.141   0.243   3.393  0.3382 -0.0350 -0.0026
20120W        W36304  18.138  15.473   2.026  0.0365 -0.0415  0.1509
20121W        W36305   6.520   7.174  13.248 -0.1310  0.1690 -0.0504
20122W        W36306  14.045   7.054   8.802 -0.2049 -0.4197  0.2370
20123W        W36307  18.445   9.313   0.298 -0.0630  0.1132 -0.2118
20124W        W36308   5.179  17.309  12.348  0.1612  0.0360  0.0333
20125W        W36309   9.975  15.704   1.917  0.2079  0.0165  0.3087
20126W        W36310  14.752   7.545  13.715  0.0370 -0.0817  0.1303
20127W        W36311   0.469   2.153   1.763 -0.3939 -0.1548 -0.0914
20128W        W36312  19.181  17.753   3.554 -0.1644  0.2558 -0.1613
20129W        W36313   8.711   5.093  10.947  0.0921  0.2309  0.2322
20130W        W36314   0.246   4.928   3.275  0.2302  0.1311  0.0119
20131W        W36315   5.832  16.912   0.804  0.2809 -0.0690  0.1516
20132W        W36316   8.358   2.118   0.294  0.4854  0.1160 -0.0397
20133W        W36317  18.410  14.933   0.714  0.2203  0.3142 -0.2542
20134W        W36318   3.078   1.617   4.571 -0.6137 -0.3644  0.0726
20135W        W36319   2.063   8.503   4.983 -0.0166 -0.2564  0.0263
20136W        W36320   5.245  11.555   4.726 -0.3287  0.1035  0.4139
20137W        W36321  11.324  17.414   1.783 -0.1353  0.2082  0.1126
20138W        W36322   0.674  12.665   2.205 -0.1443 -0.2199 -0.3064
20139W        W36323   4.749   1.422   5.332  0.1642  0.1680 -0.0177
20140W        W36324  11.425  12.049  12.831 -0.0192  0.0689  0.1170
20141W        W36325  19.304   1.111  10.342  0.1391  0.3493  0.2787
20142W        W36326  15.984   8.172  12.095  0.2525 -0.3311  0.0943
20143W        W36327   2.592  13.768   2.032 -0.0448  0.2518  0.3505
20144W        W36328  18.021  15.255  13.505 -0.1062 -0.3426  0.4420
20145W        W36329  13.503   1.504   5.020  0.3993 -0.2148  0.3431
20146W        W36330   3.408   3.502  13.794  0.0301 -0.0891  0.1466
20147W        W36331   5.284  11.062   1.042  0.0466  0.0591  0.0712
20148W        W36332  15.571  18.447   3.526 -0.0469  0.1829  0.0477
20149W        W36333  18.559  16.406  11.698  0.1795  0.2453  0.1410
20150W        W36334  12.717   8.772  10.846  0.0211 -0.0593 -0.2006
20151W        W36335   6.691  13.956   2.438 -0.1683  0.0911  0.1566
20152W        W36336   2.824  11.911  13.061 -0.0288  0.1071 -0.2676
20153W        W36337   1.273   2.878  14.817  0.2161  0.1421  0.0885
20154W        W36338  11.067   6.677   3.567 -0.0861 -0.0170  0.0469
20155W        W36339  12.391   1.251   3.146 -0.0132  0.2568 -0.0201
20156W        W36340   9.401  18.841   0.670 -0.1127 -0.0828  0.0594
20157W        W36341   1.308  10.129  13.688  0.0599 -0.0935 -0.1399
20158W        W36342   1.898  15.429   3.612 -0.3103 -0.0986  0.1683
20159W        W36343   7.270   7.597   2.901  0.0740 -0.0743 -0.0465
20160W        W36344  12.209  12.279   1.583  0.0262  0.0203 -0.0761
20161W        W36345  13.025   7.953   1.916 -0.0185 -0.3070  0.1317
20162W        W36346   7.105  13.753   2.279 -0.2999 -0.1057 -0.0725
20163W        W36347  15.971   8.151  10.461 -0.0355 -0.1421  0.1155
20164W        W36348   1.151   6.510   3.265  0.0722 -0.1138 -0.3106
20165W        W36349   5.752   4.871  13.293  0.1282  0.1618  0.0098
20166W        W36350  18.612  10.201  13.495  0.0190  0.1698 -0.1472
20167W        W36351   4.186  13.066   1.680 -0.3472 -0.0015 -0.2093
20168W        W36352  12.482  15.244  14.459 -0.1951 -0.1960  0.1689
20169W        W36353  14.696  14.641  10.282 -0.1388 -0.2502 -0.0080
20170W        W36354   1.583   7.896  12.563 -0.0702 -0.1603 -0.4255
20171W        W36355  15.960  10.637   5.766  0.1173 -0.0088  0.1022
20172W        W36356  10.532  11.951  11.291  0.3798 -0.1233  0.1106
20173W        W36357   2.056  18.373   9.924 -0.1676 -0.0929  0.3734
20174W        W36358  10.907   9.124   3.121  0.2181  0.0920 -0.2557
20175W        W36359   0.312   8.069  14.901 -0.1668 -0.0457 -0.1928
20176W        W36360   1.823  18.702  11.838 -0.0978 -0.1901 -0.0446
20177W        W36361   1.860  18.185  11.590  0.1429 -0.0906 -0.1859
20178W        W36362   1.934   9.677  13.098 -0.0230 -0.1125 -0.1201
20179W        W36363   2.270  12.410   2.853 -0.0294 -0.4346 -0.3415
20180W        W36364   6.427   5.774  11.730 -0.0306 -0.0917 -0.0472
20181W        W36365  18.026   7.211  12.844 -0.3698  0.3911  0.1791
20182W        W36366   8.586  15.182   5.489 -0.2332 -0.2555 -0.1918
20183W        W36367  14.294  10.722   9.967  0.1117 -0.0076 -0.2113
20184W        W36368  17.331   4.416   1.519 -0.2788  0.2274 -0.0293
20185W        W36369  17.318  13.448  14.933 -0.2397  0.0461 -0.0565
20186W        W36370   3.374   3.397  12.539  0.2341 -0.1256  0.0362
20187W        W36371   0.593   7.686   4.065 -0.1037 -0.2399  0.0070
20188W        W36372  10.415   2.320   4.732  0.2811 -0.3768  0.1297
20189W        W36373   5.380   7.964  13.217 -0.3077  0.0299  0.2533
20190W        W36374   9.080  17.008  14.872  0.2601  0.0265  0.0915
20191W        W36375   1.003  11.740   4.760 -0.3268  0.4098 -0.0211
20192W        W36376   0.040  10.098   0.331 -0.2703  0.1317 -0.4473
20193W        W36377   4.054  11.867   3.434  0.0787 -0.1998  0.0631
20194W        W36378  11.442  12.104  11.375 -0.2108 -0.1300  0.2655
20195W        W36379   1.857   1.138   1.475 -0.0102 -0.1008  0.0710
20196W        W36380   4.348   6.698  11.159  0.3186 -0.1692  0.0994
20197W        W36381   3.407  14.362   1.883 -0.0918  0.3581  0.3121
20198W        W36382  11.881  13.611  10.844  0.0110 -0.2306  0.1544
20199W        W36383   5.793   9.065  12.381 -0.0571 -0.2123  0.0434
20200W        W36384   2.757   0.755   1.085  0.1098  0.1241  0.0056
20201W        W36385   6.863  17.872   3.003  0.1768  0.1448  0.0615
20202W        W36386  18.784  18.823   1.658 -0.1200 -0.2247 -0.1205
20203W        W36387  13.003   0.464  10.811  0.2086 -0.0314 -0.0522
20204W        W36388  18.093   9.569   3.576 -0.5654  0.4582  0.2034
20205W        W36389   9.832  17.147   3.393 -0.1194  0.1948  0.2013
20206W        W36390   4.974  14.642   2.626  0.1109 -0.1323 -0.3143
20207W        W36391   0.274   6.438  12.907  0.0294 -0.0071  0.0825
20208W        W36392  18.401   2.408  10.430  0.1168  0.3456  0.0771
20209W        W36393   0.178  11.853  14.595  0.2047 -0.0518 -0.0756
20210W        W36394   8.174   0.104  11.902 -0.1261 -0.1778  0.1228
20211W        W36395   6.930  10.119   2.617 -0.0784 -0.1608 -0.0303
20212W        W36396   3.703  16.636   2.072 -0.0584 -0.2306 -0.2979
20213W        W36397  18.549  10.700   0.122  0.4150 -0.2008 -0.5521
20214W        W36398  15.369  17.898   4.612  0.0487 -0.0781  0.2779
20215W        W36399   1.402  12.108   2.489  0.1336  0.0936  0.0170
20216W        W36400   2.214   4.633  11.275  0.4543  0.2838 -0.1305
20217W        W36401  12.782   2.104   2.757  0.0118  0.1400  0.1043
20218W        W36402  16.665  18.805  13.226  0.2902  0.2509  0.0146
20219W        W36403   8.653   9.602  13.613 -0.1390  0.0015 -0.0686
20220W        W36404   1.565   3.547  14.181 -0.1626 -0.0394  0.3184
20221W        W36405  11.902  12.911   3.109  0.1723 -0.3348  0.0877
20222W        W36406  18.721   7.487  11.549 -0.3484 -0.0189  0.0435
20223W        W36407  18.023  16.309   1.651  0.0161  0.2123  0.0539
20224W        W36408  15.743  17.931  10.915  0.1316 -0.1821  0.1777
20225W        W36409  10.794   4.809  11.738  0.1979 -0.4427  0.2406
20226W        W36410   2.370  12.857   0.451  0.3226  0.2910  0.1291
20227W        W36411   5.333  13.308   3.072  0.1736  0.0563  0.1806
20228W        W36412  15.737   1.158   4.172  0.0619 -0.3663  0.2541
20229W        W36413   1.083  14.288  14.014  0.3043  0.1391  0.1679
20230W        W36414  12.248   0.699   2.039  0.1524  0.2485 -0.1520
20231W        W36415   5.892  16.440  13.828 -0.1470  0.1566 -0.0892
20232W        W36416  17.112  18.510  10.448  0.1993  0.0432  0.2505
20233W        W36417  16.756  14.519  13.517 -0.2253  0.0012  0.1437
20234W        W36418   2.874   6.895   0.028  0.1284 -0.1612 -0.1910
20235W        W36419   9.130   0.694  14.894 -0.1364 -0.3994 -0.0006
20236W        W36420   1.108   8.763  14.845  0.2697 -0.1096  0.2060
20237W        W36421  12.891   7.519   2.088  0.3305  0.0535  0.1307
20238W        W36422   5.517  16.826   2.530  0.1902 -0.1035  0.3211
20239W        W36423   9.450   2.529   2.532  0.1197 -0.0187  0.1762
20240W        W36424   1.716   8.885   5.069 -0.1817 -0.2325  0.0167
20241W        W36425   5.792   6.281  11.615 -0.0307 -0.3237  0.0545
20242W        W36426   9.600  13.552   2.702 -0.2569  0.0163  0.3064
20243W        W36427   0.903   6.347  14.586  0.2453  0.2064  0.0942
20244W        W36428   7.518   8.961   2.652  0.3026 -0.1285 -0.0169
20245W        W36429   9.321   7.944   2.601 -0.2212 -0.1893  0.0675
20246W        W36430  11.894   9.747  14.688  0.2286  0.3265 -0.3338
20247W        W36431  15.602   4.452  14.607 -0.1284  0.0249 -0.0603
20248W        W36432  18.604  17.555   0.343 -0.2587  0.4059  0.0925
20249W        W36433  11.643  15.358   2.121  0.1497 -0.0389  0.1831
20250W        W36434  16.804  16.749  11.376 -0.0305  0.1246 -0.3839
20251W        W36435  15.099   4.395   1.194  0.2297 -0.0498  0.2429
20252W        W36436  11.316  14.135   3.007  0.1477 -0.2089  0.1897
20253W        W36437   3.977  18.780  10.641  0.0629 -0.1147 -0.3742
20254W        W36438   5.929   0.190   3.093  0.2942 -0.0579 -0.3123
20255W        W36439   4.615  16.982  14.170 -0.2544  0.0722  0.1331
20256W        W36440   6.385   0.622   4.711 -0.4937  0.0718  0.1046
20257W        W36441  18.048  13.362  14.219  0.2166  0.3412  0.1968
20258W        W36442  13.440  13.913   4.467  0.0064 -0.2109 -0.2392
20259W        W36443  10.244  13.524  14.933  0.4469  0.4223 -0.0180
20260W        W36444  11.307   0.110  10.775  0.3054 -0.0588  0.2089
20261W        W36445   7.584   3.158   3.015  0.0515 -0.1691  0.3327
20262W        W36446   4.710   9.663  12.074 -0.0144 -0.1132  0.2007
20263W        W36447   8.107  17.852   0.730 -0.1125 -0.2367 -0.0636
20264W        W36448  14.561  16.201  14.442  0.3550  0.0313  0.0454
20265W        W36449  11.173  13.122  14.728  0.1527 -0.0092  0.1965
20266W        W36450   1.630   4.484  12.642  0.1122  0.0646 -0.1648
20267W        W36451   6.335   2.923   0.553 -0.0415 -0.0191  0.0046
20268W        W36452  15.684  17.641  10.523 -0.0504 -0.1881 -0.3543
20269W        W36453   0.721  12.542  13.969 -0.1622 -0.1724  0.1212
20270W        W36454  11.985   8.359  14.796  0.1816  0.0133  0.1027
20271W        W36455   0.764  17.350   0.405 -0.0905 -0.0168 -0.2686
20272W        W36456  16.231   6.558  14.076  0.0520 -0.1599 -0.1110
20273W        W36457   3.929   9.138   1.117 -0.1240  0.1780 -0.0338
20274W        W36458  18.440  15.307   1.054  0.0895 -0.2428  0.1487
20275W        W36459   0.362  10.266   2.776 -0.0904 -0.1151  0.2503
20276W        W36460   0.135   6.993  10.445  0.1426 -0.1192 -0.1672
20277W        W36461   6.233  18.276  14.661 -0.2970  0.0070 -0.2724
20278W        W36462  12.476   7.865  13.339  0.4089  0.1148  0.1245
20279W        W36463  18.421   3.666   3.361 -0.0454  0.1794 -0.3555
20280W        W36464  13.958   4.808  14.171 -0.0288 -0.2911 -0.1010
20281W        W36465  13.869   9.468   1.555 -0.1746 -0.1744 -0.0266
20282W        W36466   5.099  11.511   0.648 -0.0489 -0.2759  0.0902
20283W        W36467   1.586  15.135   1.556  0.2253 -0.3162  0.1399
20284W        W36468  16.726   5.067   4.360  0.0967 -0.2671 -0.1222
20285W        W36469  18.119   0.682  12.360 -0.1609 -0.0993  0.0421
20286W        W36470  15.384   4.999  11.192  0.4197 -0.1420  0.2270
20287W        W36471  19.199  13.436  12.942 -0.3376 -0.0857 -0.1232
20288W        W36472  10.515  12.920  12.481  0.2018  0.1538 -0.2863
20289W        W36473  19.240   0.332   1.092 -0.2575  0.2260  0.1282
20290W        W36474   7.472   4.946  11.795 -0.5492 -0.1537 -0.0031
20291W        W36475  17.071   0.794   4.871 -0.1073 -0.1908  0.2842
20292W        W36476   5.347   6.714  11.212 -0.1184 -0.0464 -0.1825
20293W        W36477  12.837   4.458   8.982 -0.1100  0.3097  0.0649
20294W        W36478   6.123   5.406  14.711  0.0217  0.2123 -0.0942
20295W        W36479  10.067  10.038  11.838  0.1525  0.2349 -0.0125
20296W        W36480  16.330  13.158   0.623  0.0360  0.1527 -0.4919
20297W        W36481  19.182   4.267   2.452 -0.3511  0.1852  0.0009
20298W        W36482   8.870  10.785   4.495 -0.3292 -0.0351 -0.1013
20299W        W36483  14.618   5.481  14.122  0.0841 -0.3173 -0.2383
20300W        W36484   8.146   9.627  14.468  0.1834  0.2469 -0.2692
20301W        W36485  13.234   8.031   3.212 -0.0105  0.1826  0.0794
20302W        W36486  11.159   1.246   9.076  0.2791 -0.0442 -0.1061
20303W        W36487  11.901  12.163  11.794  0.0112 -0.5625  0.0573
20304W        W36488   6.854   0.164   1.118  0.1018  0.2943 -0.0065
20305W        W36489   7.889  16.796  14.430  0.0922 -0.2446 -0.2244
20306W        W36490   5.638   0.204   2.575 -0.1803 -0.2376  0.2098
20307W        W36491   7.738   9.944  14.686  0.0014  0.0112 -0.1644
20308W        W36492  15.996   9.407   3.797  0.0883 -0.2362 -0.0497
20309W        W36493   6.462  15.046  12.586 -0.0290 -0.0534 -0.1458
20310W        W36494  13.194   6.230  10.669 -0.1912  0.0304 -0.2052
20311W        W36495  18.173  19.028   1.985 -0.0203  0.0591  0.0187
20312W        W36496   3.913   7.123  14.663 -0.0074  0.0884  0.0404
20313W        W36497  10.798  15.589  13.761 -0.2737  0.0335  0.0824
20314W        W36498  14.965  11.544  10.034  0.0174  0.2253 -0.1659
20315W        W36499   3.332   1.349  12.318 -0.0659  0.1695  0.0178
20316W        W36500  16.156   2.805  13.571 -0.0965 -0.0194 -0.0914
20317W        W36501  12.988  12.748   1.069  0.0924 -0.2308  0.0276
20318W        W36502   2.426  15.972  14.635  0.0165  0.2844  0.0208
20319W        W36503   6.371   0.588  13.918  0.1943 -0.1164  0.1314
20320W        W36504   3.012   4.007   4.198  0.1701 -0.1180  0.1971
20321W        W36505   4.708   3.803   2.922  0.0002  0.3107  0.0191
20322W        W36506   5.876   3.787   5.051  0.4241 -0.3579 -0.1266
20323W        W36507   2.652  12.999   3.978 -0.0418 -0.2630 -0.1906
20324W        W36508  15.665  18.022   8.838 -0.2693  0.3808 -0.0028
20325W        W36509  11.584   6.229   0.315  0.0963  0.1070  0.2210
20326W        W36510   2.872  10.334  12.313 -0.0500  0.1806 -0.0572
20327W        W36511   3.960  12.412   1.573 -0.2906  0.2128 -0.0014
20328W        W36512   7.192  13.769  11.141 -0.0307 -0.0453 -0.2129
20329W        W36513   9.805   7.674   3.604 -0.1739 -0.1379  0.1118
20330W        W36514   3.047  16.335  13.064 -0.5189 -0.2267  0.1125
20331W        W36515  12.425  12.403   0.543 -0.0961  0.0005 -0.1049
20332W        W36516  16.395   1.008  10.474 -0.2426  0.2077  0.0792
20333W        W36517  10.894   9.881   0.669  0.1930 -0.2287 -0.0190
20334W        W36518  17.586  11.025   1.198 -0.0819 -0.0898  0.1643
20335W        W36519  11.983  13.351  12.777  0.1377  0.2101  0.0487
20336W        W36520  16.391  10.653   4.168 -0.4242  0.2562  0.4062
20337W        W36521   0.128   4.846  10.263  0.0600  0.3389 -0.3283
20338W        W36522   2.961   9.299   1.211 -0.1062 -0.2784 -0.1547
20339W        W36523  11.577  11.551  11.322  0.0990  0.2570  0.1528
20340W        W36524  17.712  10.004  11.049 -0.3710  0.1328  0.1575
20341W        W36525   8.536   0.350   1.927  0.0859  0.0065 -0.0814
20342W        W36526   6.360   2.334  13.366  0.0601 -0.1898  0.1694
20343W        W36527  18.270   1.890   0.690 -0.0099  0.2145  0.4120
20344W        W36528  12.709   0.504  14.232 -0.0625 -0.1175 -0.0051
20345W        W36529   2.783   7.908   1.376 -0.4540  0.0761 -0.1715
20346W        W36530   1.021   4.770  11.048 -0.6883  0.1878  0.1525
20347W        W36531   4.782  10.348  12.318 -0.1401 -0.0675  0.1730
20348W        W36532  10.753   5.282  12.916 -0.2550  0.0190  0.2377
20349W        W36533   7.943   4.587   2.582 -0.1006 -0.1280 -0.2065
20350W        W36534  14.979  12.676  14.542 -0.0019 -0.1336  0.0586
20351W        W36535   2.001  12.248   6.393  0.0263 -0.1548  0.1740
20352W        W36536   0.537   5.443   2.099 -0.0909  0.2137 -0.3372
20353W        W36537  14.576   5.652   0.008  0.1414 -0.0927  0.3921
20354W        W36538   1.481   6.350   4.097 -0.0571  0.2492  0.3146
20355W        W36539   6.997  12.506  14.733  0.0316 -0.3214 -0.3789
20356W        W36540   7.443   7.125   0.720 -0.1025  0.6016 -0.0067
20357W        W36541  17.509   2.587   2.856 -0.1225  0.4983 -0.0062
20358W        W36542   1.519  11.698  11.023 -0.0523 -0.1426 -0.0680
20359W        W36543  10.709   4.816   3.410  0.3441 -0.1814  0.0321
20360W        W36544  16.814  10.970  13.165 -0.0247 -0.0306  0.0662
20361W        W36545  10.845   9.417  10.084  0.4049  0.1661  0.1589
20362W        W36546   0.070  15.788  14.355 -0.3680 -0.3960 -0.0001
20363W        W36547  18.741   9.669   4.229 -0.2961 -0.2152  0.1095
20364W        W36548   5.636   9.769  14.703 -0.0688  0.1108  0.2394
20365W        W36549  17.033  11.698  11.233  0.1084  0.1248 -0.0180
20366W        W36550   8.698   5.943  13.602  0.0766 -0.0301  0.0240
20367W        W36551   5.829  10.678  12.481  0.0883 -0.0054  0.2461
20368W        W36552   4.934   6.659   3.125 -0.1167 -0.0343 -0.1418
20369W        W36553   3.514   1.311  13.732  0.0841  0.2221  0.3362
20370W        W36554   3.791   8.446  12.132 -0.2286 -0.1598 -0.2141
20371W        W36555   1.165  15.825   4.109 -0.3321 -0.1339 -0.0120
20372W        W36556  18.918   9.655   5.218 -0.2481 -0.2158  0.6234
20373W        W36557  11.072  10.784  14.498  0.0379 -0.0748 -0.0039
20374W        W36558   9.349  14.415   2.245 -0.0104  0.0851  0.0780
20375W        W36559  12.981   3.919  11.320  0.1936 -0.2300  0.0540
20376W        W36560  13.432  14.360  12.783 -0.0012 -0.1245 -0.2144
20377W        W36561  11.793   1.858  10.353  0.0052 -0.1325  0.2001
20378W        W36562   5.660  16.996   4.404 -0.0475 -0.0815  0.0459
20379W        W36563   7.899   7.684   4.133  0.0229  0.0418 -0.0425
20380W        W36564  15.510   0.891  14.838  0.0968  0.0157 -0.0608
20381W        W36565   8.652   2.978   1.084  0.0359  0.3464 -0.0385
20382W        W36566  15.895  12.741  14.062  0.1684  0.3223 -0.2165
20383W        W36567  10.507  10.786  14.651 -0.0242 -0.0637  0.0838
20384W        W36568   0.408  13.734   1.144  0.0196  0.1084 -0.1373
20385W        W36569  14.797   2.389  12.441 -0.0028 -0.1093  0.3117
20386W        W36570   1.804   5.193  11.706 -0.3086  0.3731  0.0235
20387W        W36571  12.504  13.707   2.885  0.0238  0.4078  0.1620
20388W        W36572   8.877  12.562   4.316  0.2603  0.0458 -0.3506
20389W        W36573   7.189  15.518  10.148  0.0671  0.1195  0.2698
20390W        W36574   7.201  15.568   4.781 -0.0150  0.0625 -0.0109
20391W        W36575   6.856   4.156  10.381  0.0035  0.0771 -0.1947
20392W        W36576   3.906  13.777  12.520  0.2002  0.3434  0.1932
20393W        W36577  17.489  15.048   0.538 -0.1657 -0.0594  0.2117
20394W        W36578   8.746   7.699   1.169 -0.2154  0.2520  0.1480
20395W        W36579  10.859   7.672  13.078  0.1906  0.4862  0.0406
20396W        W36580  18.796   0.795  12.185  0.1790  0.0205 -0.2056
20397W        W36581   2.865   9.773   5.170  0.2691 -0.1500  0.1508
20398W        W36582  18.273  17.500   4.382 -0.1708  0.1492 -0.0165
20399W        W36583   1.489   9.852   4.794  0.1494 -0.2912  0.3072
20400W        W36584  12.889  15.931  10.806 -0.2043  0.0843 -0.1411
20401W        W36585  14.512  11.897   3.896 -0.0040 -0.2536 -0.0566
20402W        W36586  13.751   4.079   3.670 -0.2000 -0.1608  0.0170
20403W        W36587  16.746   7.344  10.755  0.0031 -0.0905 -0.0728
20404W        W36588   5.423   4.900  14.285 -0.0361  0.0622  0.0264
20405W        W36589  15.745  14.577  13.067 -0.2685  0.0525 -0.2639
20406W        W36590  17.642   9.085  11.982 -0.1957 -0.2009 -0.2536
20407W        W36591   0.141   7.216  12.041  0.2572 -0.2155 -0.1872
20408W        W36592   3.631   6.999   4.330 -0.0099  0.0453 -0.4074
20409W        W36593   2.000   0.987  14.345  0.0541 -0.1427 -0.0925
20410W        W36594   6.409   8.676  10.621  0.1893  0.1438  0.0873
20411W        W36595   5.131   9.729   0.064  0.1537 -0.1899  0.0407
20412W        W36596  19.343  16.060   0.175 -0.0193 -0.0720 -0.2746
20413W        W36597   2.205   9.834   0.852  0.1091 -0.1439  0.1481
20414W        W36598   8.926  15.109  14.059  0.3284 -0.3709 -0.1936
20415W        W36599   5.752  10.396  13.919 -0.0499 -0.0720 -0.0292
20416W        W36600  13.587  12.870  14.271 -0.1387 -0.1056 -0.3581
20417W        W36601   2.880  16.051   2.317  0.3220 -0.2964  0.1492
20418W        W36602   0.086  16.616   1.722 -0.0149 -0.1418 -0.2074
20419W        W36603   6.127   6.286   0.133 -0.2903  0.2718  0.0454
20420W        W36604  18.657  10.545   3.982  0.2786  0.2270 -0.2119
20421W        W36605   4.057  11.771   1.226 -0.1311 -0.3303 -0.0595
20422W        W36606   8.053  19.083  10.683 -0.2063 -0.1301 -0.6061
20423W        W36607   0.683  15.096   2.864  0.1693  0.0859  0.3082
20424W        W36608  19.379  16.483  12.274  0.1077 -0.1511  0.0323
20425W        W36609   8.553   8.706  12.654  0.0776  0.3001 -0.0420
20426W        W36610  10.294   7.941   3.342  0.0898  0.1524 -0.1461
20427W        W36611  17.705   5.488  13.278  0.3020  0.0576 -0.2512
20428W        W36612   1.547   2.960   3.274 -0.0175  0.0723 -0.0255
20429W        W36613  18.182  14.950  11.419 -0.1154  0.2662  0.0691
20430W        W36614  19.046   8.243   5.416 -0.0854  0.0638 -0.0942
20431W        W36615   3.780  19.110  14.752  0.1240  0.1590 -0.0707
20432W        W36616  10.770   3.718   3.727  0.2275  0.0522 -0.1032
20433W        W36617   4.408  10.233   2.878  0.0214 -0.1885 -0.1602
20434W        W36618  16.387   9.751   3.867 -0.0437  0.1484  0.0398
20435W        W36619  14.421   1.330   0.427 -0.0398  0.1360 -0.2493
20436W        W36620   8.994  14.008  13.413 -0.0339  0.1631  0.0642
20437W        W36621   1.474   1.501   3.930  0.0529  0.3454  0.0173
20438W        W36622  19.050   7.248   4.727  0.0672 -0.0660  0.0255
20439W        W36623  16.477  17.115  12.142  0.1759 -0.2865  0.2590
20440W        W36624   6.384   2.020   3.513 -0.0398  0.2592 -0.0815
20441W        W36625   9.635  11.940  14.219  0.1588 -0.1748 -0.0086
20442W        W36626  16.279  10.900  12.023 -0.3268 -0.1353  0.0749
20443W        W36627   7.389   0.801   1.713 -0.1119  0.4815 -0.1249
20444W        W36628   0.102   1.733  11.304  0.0407 -0.1066 -0.0763
20445W        W36629  11.683  10.934   1.043  0.2180 -0.0944  0.2384
20446W        W36630  16.241   0.216  13.912 -0.3086 -0.0801  0.0903
20447W        W36631  17.646  13.547  12.990  0.0792  0.0454  0.1436
20448W        W36632  19.261   9.038  13.737 -0.1939 -0.0355  0.2517
20449W        W36633   8.789   6.774   5.784  0.2231  0.1960  0.0340
20450W        W36634   3.869   4.343   6.063  0.1893  0.2986 -0.3149
20451W        W36635  18.744  14.382   2.734  0.1056  0.0075  0.2358
20452W        W36636  11.631   6.326   9.809 -0.0396 -0.0109 -0.1301
20453W        W36637  10.655   8.882   0.371 -0.0847 -0.0179  0.2506
20454W        W36638   8.730   0.734   0.171  0.1133  0.1520 -0.1357
20455W        W36639  13.661   1.345   4.325 -0.0283  0.0989 -0.3632
20456W        W36640  12.829  17.990  14.851 -0.1054  0.0414  0.1244
20457W        W36641  16.743  15.080   3.712  0.0356 -0.0161  0.0244
20458W        W36642  17.365   6.094   0.107  0.0311 -0.0739  0.4409
20459W        W36643   2.507   7.744   3.859  0.0777 -0.1572 -0.0484
20460W        W36644   2.554   7.262  14.728 -0.0987 -0.0937 -0.2457
20461W        W36645   3.795  18.307   4.702  0.1153  0.0914  0.0553
20462W        W36646   3.776   2.081   2.505  0.1853  0.4061 -0.0900
20463W        W36647  12.911  12.053  11.934 -0.2905  0.3594  0.0966
20464W        W36648  13.501   9.587  11.286 -0.2538 -0.2929 -0.0130
20465W        W36649   1.199   8.545  12.752 -0.2192 -0.4345 -0.0935
20466W        W36650  14.383   7.482  12.224  0.3644  0.4446  0.0186
20467W        W36651   4.067   4.582   4.674 -0.0386 -0.4009 -0.0306
20468W        W36652  16.068   9.156   5.598 -0.0392  0.0387  0.1695
20469W        W36653   0.727   7.032   2.432 -0.2448 -0.3291 -0.1752
20470W        W36654  13.857   0.537   2.167  0.0382  0.2118 -0.1084
20471W        W36655  10.321   1.247   0.989 -0.3574 -0.4613  0.2134
20472W        W36656  14.847   8.386   2.164  0.3310  0.2631 -0.1453
20473W        W36657   8.410   9.467   4.822  0.1766 -0.0771 -0.1526
20474W        W36658   5.576   9.618   4.227  0.2030  0.3105  0.0778
20475W        W36659  16.579  15.310   4.153 -0.0831 -0.1080 -0.1292
20476W        W36660   8.101  12.731  13.758 -0.2413  0.3082  0.1795
20477W        W36661  10.195   8.753  10.901  0.2020  0.0391  0.2429
20478W        W36662   3.437   5.650   1.903  0.1037  0.0404 -0.1729
20479W        W36663  15.953  10.360  14.911 -0.0185  0.2464 -0.2789
20480W        W36664   4.368   0.714   4.774 -0.2908  0.1477  0.1471
20481W        W36665  17.318  11.864   4.852 -0.1409  0.4961 -0.1824
20482W        W36666   0.513   7.626   4.593 -0.0250  0.2244  0.0045
20483W        W36667  11.074   5.183   1.023  0.3028 -0.0866 -0.1243
20484W        W36668   3.921   8.609  14.010  0.4376  0.1490 -0.1144
20485W        W36669   1.199  13.251  11.710 -0.1745  0.1548 -0.2387
20486W        W36670  12.982   5.757  14.829  0.1203 -0.0777  0.1053
20487W        W36671  13.666  11.086   0.654  0.1008 -0.2323 -0.1755
20488W        W36672  16.634   6.905   1.221 -0.5790 -0.1041  0.3221
20489W        W36673   9.331  15.212   4.576 -0.2322  0.0261 -0.3909
20490W        W36674   1.081   1.784   3.975  0.3959  0.1836 -0.0391
20491W        W36675   6.001   5.081   4.732 -0.0586  0.0261 -0.2880
20492W        W36676  18.125  18.077   1.815  0.0070 -0.5154  0.0543
20493W        W36677   1.298  11.319   0.612  0.0126 -0.1988 -0.2975
20494W        W36678   6.100   0.039  13.366 -0.3242  0.3236  0.3253
20495W        W36679   9.710  12.138   1.040  0.1223 -0.0045 -0.0826
20496W        W36680   0.373   8.091  11.663 -0.2621 -0.1426  0.3809
20497W        W36681  13.918  15.109   9.245 -0.0993  0.1155 -0.0464
20498W        W36682   6.510   7.661  13.072 -0.0735  0.0174 -0.0260
20499W        W36683  19.228  17.676   1.612  0.2370 -0.0340 -0.0848
20500W        W36684  17.518   9.469   2.961  0.1060  0.2447 -0.1838
20501W        W36685  18.939  10.880  13.998 -0.0968  0.1785  0.0885
20502W        W36686  14.400   8.400   2.571  0.0275 -0.2292  0.0141
20503W        W36687   5.493  11.501   4.170 -0.2702  0.1592 -0.0980
20504W        W36688  19.217   8.931  12.830 -0.1738  0.0938 -0.0300
20505W        W36689  13.906  17.250   2.994 -0.2978  0.1102 -0.0252
20506W        W36690  15.630   5.048   2.875 -0.1885  0.1216  0.0340
20507W        W36691   0.385  12.867   3.935  0.0423 -0.0661 -0.4751
20508W        W36692   9.066   2.966   4.262  0.1342  0.2963  0.0010
20509W        W36693  13.431  16.824  14.247 -0.1675 -0.0305  0.1175
20510W        W36694   5.283   6.670  10.399 -0.1342  0.1120  0.1793
20511W        W36695   1.035   9.931   0.342  0.1863  0.0852 -0.0277
20512W        W36696   6.273   5.585   2.719  0.2681 -0.1112 -0.2603
20513W        W36697  17.100  14.957   3.359 -0.1422 -0.3693  0.1532
20514W        W36698  13.906   2.223  13.155 -0.0147  0.0650 -0.0282
20515W        W36699  18.533  17.059   1.761  0.1026 -0.0247 -0.0488
20516W        W36700  10.387   3.378   2.223 -0.0255 -0.2300  0.1442
20517W        W36701  11.691  10.318  10.911 -0.2951 -0.1001  0.0732
20518W        W36702   5.680   0.823  13.189 -0.3028  0.1061  0.3538
20519W        W36703  15.014  18.755   0.898  0.0302  0.3292  0.2360
20520W        W36704   5.468  16.325  12.824 -0.0084  0.1512 -0.2169
20521W        W36705  12.588  15.725  13.546 -0.2332  0.2906  0.1033
20522W        W36706  18.724   5.810  12.200  0.3225 -0.0483  0.4007
20523W        W36707  11.002   1.241   1.461 -0.1591 -0.0007 -0.2775
20524W        W36708  18.149  12.260  12.797 -0.3066 -0.3383 -0.1631
20525W        W36709  18.835   0.515  10.826 -0.2225  0.1821  0.0184
20526W        W36710   5.861   0.035   9.861 -0.1166 -0.0069 -0.2198
20527W        W36711   2.438   0.552   0.018  0.1368  0.1831  0.2264
20528W        W36712  16.952  15.363  13.005 -0.0396 -0.0106 -0.0939
20529W        W36713  10.568   3.054   4.388  0.1387  0.0091  0.0842
20530W        W36714   6.954  19.105   2.084 -0.2608  0.0705 -0.0469
20531W        W36715  10.026  14.469  13.854  0.2123  0.4309  0.0748
20532W        W36716   9.200  17.758   1.819 -0.1772  0.0083 -0.2611
20533W        W36717   9.239   7.237  11.039 -0.1053  0.1430 -0.2049
20534W        W36718  11.174   9.485   3.573  0.0823 -0.0080 -0.0780
20535W        W36719  12.709   1.596   2.980 -0.1728 -0.2757 -0.3978
20536W        W36720   1.174   6.246  13.181 -0.2038  0.2437 -0.0326
20537W        W36721  11.778   7.113   2.430 -0.3922  0.0704  0.3577
20538W        W36722  11.485  10.548  11.794  0.0840 -0.0186 -0.0365
20539W        W36723  14.945  12.574  14.010  0.3972 -0.1665 -0.0009
20540W        W36724   6.755  14.046   1.813 -0.1814 -0.0157 -0.1752
20541W        W36725  18.234  13.528  12.669 -0.1879 -0.1838  0.0660
20542W        W36726   9.278   2.149   3.974  0.2119  0.1952 -0.1249
20543W        W36727   5.798   3.725   4.001  0.0718  0.1951 -0.1162
20544W        W36728  14.622   1.267   5.084  0.4970  0.0536 -0.2287
20545W        W36729   8.967  14.459  11.162 -0.0493 -0.2089  0.0068
20546W        W36730   2.405   2.193  11.545  0.2440 -0.0229  0.2290
20547W        W36731  12.414  12.041   0.134  0.1634  0.3571 -0.0634
20548W        W36732  11.433  14.817  13.629 -0.0437 -0.1883  0.1523
20549W        W36733   3.622  17.765   3.477 -0.1755 -0.0513  0.4859
20550W        W36734   5.134   4.651  13.947  0.3428 -0.2919 -0.0823
20551W        W36735   4.645  13.899  11.213 -0.0021  0.1928  0.2239
20552W        W36736   8.136   1.099   2.751  0.0987 -0.2541 -0.1740
20553W        W36737  13.042  11.545   0.991  0.1056 -0.3372  0.0552
20554W        W36738  18.171  10.169  11.763  0.2759 -0.1553  0.0449
20555W        W36739   0.933   0.465  14.473  0.0837  0.0862 -0.1022
20556W        W36740  18.898  10.195  13.066 -0.3585 -0.4269 -0.1885
20557W        W36741   2.768  19.208  11.200 -0.1096 -0.0396 -0.0100
20558W        W36742  17.361   2.036  12.686  0.2320  0.0283  0.3090
20559W        W36743   8.909  14.930   1.617  0.1783 -0.0705  0.0050
20560W        W36744   4.847   6.151   4.472  0.0462 -0.0796 -0.0187
20561W        W36745  11.070  15.038   2.261  0.3644  0.0063 -0.1436
20562W        W36746   9.590  18.815   3.940 -0.1248 -0.0522 -0.2389
20563W        W36747   7.312  18.118   3.066 -0.0734 -0.1464 -0.0590
20564W        W36748  16.329   4.256   4.049 -0.0876 -0.1644 -0.2635
20565W        W36749   9.091   3.434  12.957 -0.0889  0.1108 -0.1503
20566W        W36750   8.604   9.990   0.564 -0.2088  0.2018 -0.2866
20567W        W36751   9.042  17.285   4.624  0.2043  0.2624 -0.1607
20568W        W36752  16.866  17.608  12.977 -0.0785  0.0848 -0.2280
20569W        W36753  10.196   4.048   3.631  0.1254  0.2362 -0.0799
20570W        W36754  16.593   8.471  14.708 -0.1661  0.0889 -0.2473
20571W        W36755  15.446  15.234  14.757  0.0837  0.1804  0.2465
20572W        W36756  16.898   4.079   1.501  0.1127 -0.1394 -0.0343
20573W        W36757  11.193   3.475  14.021 -0.0872  0.0749  0.0617
20574W        W36758   8.553   4.748   0.876  0.1777 -0.0828 -0.0163
20575W        W36759  15.230   1.902   4.430  0.0012  0.2877  0.2686
20576W        W36760  11.682  13.831   0.453 -0.1535  0.1991 -0.1385
20577W        W36761  19.205  16.591  12.724 -0.3210 -0.2443  0.2447
20578W        W36762   6.741   7.835   3.921  0.1072 -0.1800 -0.2576
20579W        W36763  12.527  16.328  11.286  0.2906 -0.1747 -0.2264
20580W        W36764   2.897   2.837  11.845  0.1104 -0.1651  0.2396
20581W        W36765  11.645   2.745   5.014  0.2818 -0.0328 -0.0967
20582W        W36766  10.903   0.159  12.863 -0.0011 -0.0683 -0.2205
20583W        W36767  15.813  10.685  13.382  0.2151  0.0459  0.2191
20584W        W36768   2.867   0.226   1.690  0.2948  0.0459  0.1839
20585W        W36769   4.003   8.111   0.210  0.5210 -0.2897  0.2194
20586W        W36770  18.081   3.679   5.111  0.0478  0.1599 -0.0527
20587W        W36771   7.372  11.229  11.447 -0.2489  0.0641  0.1506
20588W        W36772   4.334  15.777  13.218  0.0621  0.1296  0.1942
20589W        W36773   9.764  16.661   3.088  0.0226  0.0465 -0.2849
20590W        W36774  15.731   2.367   4.419  0.1366 -0.1362  0.1595
20591W        W36775  15.798  17.602   0.063  0.1969  0.0729  0.1097
20592W        W36776   0.696  13.247  12.399  0.2080 -0.0856 -0.0330
20593W        W36777   2.789   6.079  13.857 -0.2779  0.0034  0.1867
20594W        W36778   1.684   4.924   1.473 -0.0786  0.4066 -0.3413
20595W        W36779   6.055  13.884  14.219 -0.0581  0.1344  0.1223
20596W        W36780  15.724  16.096  14.801 -0.0191 -0.0607 -0.1049
20597W        W36781  11.317  19.328   2.044  0.2201  0.0429  0.2302
20598W        W36782  10.271  13.122   4.505 -0.0323 -0.1876 -0.0466
20599W        W36783   3.136  13.756   4.626  0.0407 -0.0758 -0.3024
20600W        W36784   6.086   3.217  13.653  0.1036  0.1447 -0.0149
20601W        W36785   6.553  11.689  14.275  0.0247  0.0575  0.0023
20602W        W36786   8.673   1.720  10.621  0.0221 -0.0855  0.1144
20603W        W36787   0.761  10.447   4.678 -0.1167  0.1472 -0.2377
20604W        W36788  15.992   7.253   2.963 -0.0707  0.0127 -0.0556
20605W        W36789  12.015  10.827   3.261  0.1401 -0.1931  0.3355
20606W        W36790   3.581   0.016  11.928  0.0192 -0.1962  0.2760
20607W        W36791  11.084  18.867  13.589 -0.0332  0.0113  0.2358
20608W        W36792  11.605  15.026  12.708  0.1090  0.2022 -0.1306
20609W        W36793  18.155   5.054   2.149 -0.0660  0.1738  0.0831
20610W        W36794  12.955   0.007   1.974  0.1118  0.0923 -0.0752
20611W        W36795  18.668   9.451  14.145 -0.2210 -0.1294  0.3311
20612W        W36796  10.185  11.961   0.893  0.0493  0.0005  0.0719
20613W        W36797  17.013  17.761  13.980 -0.0201  0.1143  0.0031
20614W        W36798   2.694  11.357  14.486 -0.0007 -0.1220  0.2916
20615W        W36799   9.209   0.784   1.455  0.1399 -0.0141  0.1755
20616W        W36800  16.192   2.205  10.750 -0.2933  0.0319  0.1321
20617W        W36801   0.725  19.170  12.880 -0.3660 -0.3356 -0.1710
20618W        W36802  11.654   4.626   3.567  0.0820  0.0659 -0.1873
20619W        W36803  14.045   6.327  14.094  0.1972  0.0434  0.1389
20620W        W36804  16.066   8.150   4.995  0.3416  0.3317  0.0923
20621W        W36805  14.854   5.607   4.457  0.0182 -0.3074 -0.1632
20622W        W36806  11.533   9.855   4.236 -0.1042 -0.2208  0.2734
20623W        W36807   8.439   6.957  13.843 -0.0864 -0.1185  0.2288
20624W        W36808   3.655   1.969  14.333  0.2713 -0.0833 -0.2123
20625W        W36809   5.561   8.558   4.198 -0.3992  0.1551  0.1030
20626W        W36810   3.875  16.493   5.535  0.0839  0.3254 -0.1493
20627W        W36811  15.753   2.949   1.004  0.0033  0.2251 -0.0800
20628W        W36812  10.975   8.069   5.367  0.1950  0.1493  0.0289
20629W        W36813  11.758  10.480   2.205  0.1925  0.1447 -0.0701
20630W        W36814  11.213   7.959  14.612 -0.0981  0.2352 -0.2721
20631W        W36815  12.112   9.317   5.522 -0.2095 -0.1557  0.0007
20632W        W36816   2.448  15.206   3.639 -0.0695 -0.0531 -0.0870
20633W        W36817   5.576   8.468   0.643 -0.2231  0.1575  0.2235
20634W        W36818   8.644   4.494   2.186 -0.1106  0.3920 -0.1814
20635W        W36819  14.916  13.387  13.145 -0.1314  0.0263 -0.1668
20636W        W36820  12.271  16.446  11.669 -0.0483  0.0139  0.2205
20637W        W36821  19.164  10.520  11.957  0.1663  0.0184  0.0549
20638W        W36822  10.498   6.032   4.525 -0.0032  0.0573 -0.0543
20639W        W36823  14.141  16.160   4.453 -0.2143  0.0231 -0.1560
20640W        W36824  17.337  16.220   5.334  0.0337 -0.0696 -0.2718
20641W        W36825   0.173   9.664   4.237 -0.0345  0.5046 -0.2194
20642W        W36826   1.173   9.419  13.072  0.2445  0.1688  0.0177
20643W        W36827  10.380   7.977   5.206 -0.0222 -0.1009  0.0570
20644W        W36828  16.532  14.084   4.078 -0.1197 -0.1084  0.1412
20645W        W36829   3.409   9.039   1.247  0.0216 -0.2101 -0.0765
20646W        W36830  12.677  12.384  12.729  0.1398 -0.1705  0.4099
20647W        W36831  14.809   1.041   9.753 -0.0412  0.0288  0.0555
20648W        W36832   4.146  18.129  11.954  0.1886  0.2596  0.3699
20649W        W36833  16.490   5.425  11.617 -0.2966  0.1294  0.0651
20650W        W36834  17.949   8.229  11.074  0.0723 -0.3760 -0.0062
20651W        W36835  12.846   8.999  10.403 -0.0697  0.2291 -0.0779
20652W        W36836  16.202  14.467   0.424  0.2323 -0.2747 -0.0350
20653W        W36837   1.051   2.770  13.948  0.1153 -0.0730 -0.0710
20654W        W36838   7.719   8.458   2.920 -0.0356 -0.4562 -0.0897
20655W        W36839   0.407  16.245   4.066  0.0375 -0.0805  0.3345
20656W        W36840  13.582   5.461  12.693  0.1078  0.0100 -0.2438
20657W        W36841   0.838   7.227  13.105 -0.3135  0.1882  0.0552
20658W        W36842  10.205  15.065  11.735  0.3395  0.2769 -0.1130
20659W        W36843   7.709   3.685  13.219  0.0345  0.1681 -0.2156
20660W        W36844   1.801   0.278  10.832 -0.2105  0.3171 -0.0435
20661W        W36845   5.414   2.621   1.433  0.3553  0.4754 -0.3284
20662W        W36846   8.084   2.975   9.535  0.2143  0.1546 -0.1545
20663W        W36847   8.769   3.377  11.326 -0.0903  0.0068  0.0897
20664W        W36848   7.504   9.418   4.926  0.0026  0.0323 -0.0502
20665W        W36849   7.238   5.740   3.659  0.0232 -0.1243 -0.2747
20666W        W36850   7.693  12.975   4.477  0.2623 -0.1373  0.1997
20667W        W36851   9.459   9.700   0.347 -0.2618  0.4128  0.3005
20668W        W36852  17.684   4.826   1.882  0.5679  0.0155  0.1405
20669W        W36853   4.850   8.885  13.620 -0.1589  0.4602 -0.0332
20670W        W36854  14.341   4.804  10.452  0.3566  0.0255 -0.0494
20671W        W36855  13.847  13.360  14.306 -0.1106  0.1591  0.3158
20672W        W36856   7.653  14.926  14.294  0.0292  0.1184  0.1264
20673W        W36857   2.531   5.875  13.416 -0.1038  0.0216  0.2292
20674W        W36858   7.287   1.477   3.831 -0.0339 -0.2333  0.2506
20675W        W36859  10.534  17.452  11.592 -0.3284  0.0259  0.1502
20676W        W36860   3.475   3.185   2.249 -0.0262 -0.0079  0.1021
20677W        W36861  11.907  13.478   0.752  0.1617  0.0039  0.1400
20678W        W36862   0.431  13.909  10.123  0.3347  0.2555 -0.2081
20679W        W36863   2.962  12.867   4.540 -0.0344  0.0314 -0.1451
20680W        W36864   6.719  13.022  11.621 -0.0546  0.2524 -0.0446
20681W        W36865   2.797  13.273  14.798  0.1276  0.0034 -0.2055
20682W        W36866  12.509  15.113   0.010  0.0602 -0.2318 -0.0004
20683W        W36867   9.379   2.655   4.495  0.0735 -0.1820  0.0179
20684W        W36868   3.562   9.658  12.062 -0.1454 -0.0394  0.0709
20685W        W36869  18.198   6.304   3.054  0.1625  0.2157  0.1210
20686W        W36870   8.759   3.413   4.258  0.0777 -0.0294 -0.3887
20687W        W36871   1.211  11.403   5.536 -0.0011 -0.0545 -0.1437
20688W        W36872   1.204  13.801   5.102  0.2264  0.2465 -0.3354
20689W        W36873   9.875   9.348   0.102  0.2681 -0.0073  0.0780
20690W        W36874  18.118   1.300  14.049  0.1846  0.1377 -0.0905
20691W        W36875  10.560  10.638   2.240 -0.2317  0.0730 -0.3698
20692W        W36876  14.629  11.434  13.378  0.4524 -0.1815 -0.0224
20693W        W36877  14.188   1.016   3.360 -0.4064 -0.0557  0.3844
20694W        W36878   2.887   3.416  12.796 -0.1508  0.1621  0.1658
20695W        W36879  14.934  15.401  11.858  0.0522  0.0577 -0.0132
20696W        W36880   7.479  14.803   2.707 -0.2123  0.2433  0.0165
20697W        W36881   6.232  15.983  11.711 -0.2733 -0.2621 -0.2001
20698W        W36882   0.397   5.853   0.646  0.3139  0.0911  0.0389
20699W        W36883  18.974  18.857  13.836 -0.0383  0.3156  0.1879
20700W        W36884   8.224  17.508  10.406  0.2574 -0.0613  0.0017
20701W        W36885  18.759  11.916   1.583 -0.3425  0.1332  0.0001
20702W        W36886   7.223  12.948  11.467  0.1358 -0.2552  0.4735
20703W        W36887  12.135   1.732  11.658 -0.0650 -0.0347 -0.2028
20704W        W36888   0.241  19.376   1.096 -0.0377  0.0060  0.1375
20705W        W36889  19.345  13.514   3.381  0.1864  0.0389  0.0073
20706W        W36890   1.473   1.067   3.328  0.0423  0.0457 -0.2481
20707W        W36891  14.732  18.630  10.181  0.2428  0.0768 -0.0759
20708W        W36892  11.471  12.821  12.370 -0.1225  0.1788 -0.2674
20709W        W36893   2.446   6.623   5.133 -0.2973 -0.1237  0.1133
20710W        W36894  16.500   9.227  13.239 -0.0025 -0.1821 -0.1789
20711W        W36895   0.416   0.969   1.514 -0.0275  0.1798 -0.2314
20712W        W36896  16.594  12.746  10.569 -0.0665 -0.0332  0.0018
20713W        W36897   7.084   8.572   2.393 -0.0319  0.3813 -0.2021
20714W        W36898   7.523  15.316   4.549 -0.0834 -0.1263 -0.1925
20715W        W36899  13.317  10.782  14.802  0.0370 -0.0587  0.1580
20716W        W36900   0.635  10.917   4.548  0.0873  0.1081  0.0589
20717W        W36901  18.613   9.359  12.650  0.1597 -0.0814 -0.1695
20718W        W36902   8.769   9.791   4.813 -0.1856  0.1956 -0.2417
20719W        W36903   0.319   3.772  13.421  0.2163  0.0170 -0.1052
20720W        W36904   2.971   7.302   4.905 -0.0584  0.2083  0.2191
20721W        W36905   9.457  12.442  10.618 -0.1796  0.3560  0.1217
20722W        W36906  15.495   3.162   0.299 -0.2060 -0.3228 -0.1680
20723W        W36907  18.755  16.904  11.511 -0.4843 -0.2133 -0.0650
20724W        W36908   2.272   3.580   1.592 -0.0796 -0.1105 -0.3655
20725W        W36909  14.504  10.100  13.921  0.3007 -0.2762  0.0988
20726W        W36910  11.433  15.947   3.000  0.0239 -0.1152  0.2267
20727W        W36911   7.129  14.303   4.501  0.1026  0.1921  0.1648
20728W        W36912  19.117  18.327  11.253 -0.0747  0.0580 -0.1537
20729W        W36913   7.993  17.300   1.477 -0.1021 -0.2545  0.0215
20730W        W36914  15.310   1.003   4.326  0.0700 -0.3646 -0.0394
20731W        W36915  12.367   3.792  12.510 -0.0839 -0.0055  0.1098
20732W        W36916   3.051  11.828   0.445  0.3250 -0.2400 -0.1421
20733W        W36917   3.272   5.508   4.509 -0.0248 -0.2185 -0.2535
20734W        W36918   4.100   1.989   1.173 -0.0130  0.2675  0.2937
20735W        W36919   0.134   8.633  13.838  0.0154 -0.0221  0.1315
20736W        W36920   2.105   8.132   3.656  0.1511  0.4531  0.0201
20737W        W36921   7.381  14.953   5.555 -0.2544  0.1109  0.1005
20738W        W36922   8.414  16.408   4.685 -0.1136 -0.1157 -0.1536
20739W        W36923  13.557   8.442  14.393 -0.0686 -0.1279  0.0664
20740W        W36924   5.887  18.237   0.613  0.1442 -0.0072 -0.0237
20741W        W36925  15.512   2.283  11.551  0.0450  0.0201  0.2191
20742W        W36926   5.859  15.268   0.188  0.0702 -0.2046  0.0187
20743W        W36927   3.484   0.627   2.475  0.0862  0.0513  0.2022
20744W        W36928  18.381  17.094  13.073  0.0767  0.0373 -0.1751
20745W        W36929   5.637  13.165   5.256  0.0669  0.1703 -0.0215
20746W        W36930  14.843   4.740   0.321  0.0314  0.2309 -0.3676
20747W        W36931  15.227   3.739   3.811 -0.3827  0.2341  0.2417
20748W        W36932   8.492  18.255   2.116 -0.2925  0.1883  0.2005
20749W        W36933   8.244  10.638   3.768 -0.0162 -0.0598  0.1764
20750W        W36934  16.929   5.198  12.515 -0.0623 -0.2571 -0.0805
20751W        W36935   5.585  13.432  12.242 -0.1354  0.0282 -0.4581
20752W        W36936   4.587  11.883   2.607 -0.3482  0.0418  0.1263
20753W        W36937   5.163  16.412   3.800  0.4462 -0.0519  0.3473
20754W        W36938   9.359  13.959   1.422  0.2421 -0.1079  0.0396
20755W        W36939   4.855   4.567   0.030  0.2962 -0.0442  0.0039
20756W        W36940   2.958   4.190   0.854 -0.2715 -0.1269  0.3064
20757W        W36941  16.867   6.052   1.381 -0.2471 -0.2300 -0.5130
20758W        W36942  17.180   2.860   1.675  0.0522 -0.0088  0.2200
20759W        W36943   1.683   4.308   5.807 -0.0502  0.3121 -0.0458
20760W        W36944   0.878   9.112   4.036  0.1781 -0.0348 -0.0068
20761W        W36945  18.252   3.636  12.270  0.0634 -0.2037 -0.0839
20762W        W36946  16.805   8.916  12.390  0.0998 -0.0116 -0.1058
20763W        W36947  11.162   4.512  11.122 -0.1668 -0.0427  0.2069
20764W        W36948   4.267  19.224  14.596 -0.1770 -0.2746  0.0984
20765W        W36949   3.330  18.241   4.978 -0.0906  0.1582  0.1050
20766W        W36950   2.930   3.978   2.870  0.0232  0.0539 -0.0707
20767W        W36951  18.565  12.145   0.417  0.1645  0.0832 -0.1151
20768W        W36952   7.212   7.624  10.242  0.1424 -0.3136  0.0136
20769W        W36953  17.136   8.672  14.315  0.1927  0.0189  0.0414
20770W        W36954  17.041  18.889  11.964  0.0468  0.1411  0.0859
20771W        W36955   4.915   8.096  14.713 -0.0081 -0.0400  0.0146
20772W        W36956   8.426  12.466  13.079 -0.2574 -0.0961  0.3117
20773W        W36957  15.807  18.404  12.254  0.0606  0.2750 -0.1408
20774W        W36958  12.415   1.791   0.775  0.0205 -0.2295 -0.2934
20775W        W36959  14.535   4.757   2.457 -0.1573 -0.0897  0.2870
20776W        W36960   9.603   1.795  12.745  0.2069  0.1528  0.2923
20777W        W36961  18.089   0.451   1.627 -0.1466  0.4369  0.0500
20778W        W36962   0.945  10.893   3.580  0.2394  0.0520 -0.1503
20779W        W36963   2.986  16.318   3.491 -0.0173  0.2641 -0.2804
20780W        W36964   6.484  12.158  13.082  0.2066  0.0966 -0.3753
20781W        W36965   6.759  13.257   3.049 -0.2371  0.0561 -0.0061
20782W        W36966   6.533   2.019   4.457  0.3628  0.1191  0.1855
20783W        W36967  14.796   0.299   3.113 -0.1958  0.0051  0.0116
20784W        W36968  11.655  17.193  12.933  0.0142 -0.0704  0.0780
20785W        W36969  13.513   1.654   2.115 -0.2102 -0.2086 -0.1631
20786W        W36970   7.553   8.055   2.378  0.1349 -0.0131 -0.1603
20787W        W36971   4.864   6.480   1.933  0.0225 -0.1090  0.0838
20788W        W36972   8.383   1.108  14.871 -0.0934  0.0537  0.2585
20789W        W36973  18.283  15.635  10.382 -0.0918 -0.4890 -0.1474
20790W        W36974  11.324  17.909  11.782 -0.0324 -0.2781  0.0512
20791W        W36975   6.214  13.368  12.117 -0.1119 -0.1349  0.2447
20792W        W36976  18.931   2.277  10.686 -0.0858 -0.0166  0.2079
20793W        W36977  11.644   7.696  11.109 -0.0182  0.1590  0.2231
20794W        W36978   8.017   1.359   1.437  0.0662 -0.2827 -0.2049
20795W        W36979  11.942   8.542   0.872 -0.2217  0.4336 -0.0560
20796W        W36980  13.888   1.492   0.387  0.0467 -0.0833 -0.0457
20797W        W36981   6.725  10.382  10.763 -0.1258  0.1054  0.1852
20798W        W36982   5.542   2.914   2.516  0.0265  0.1079 -0.1492
20799W        W36983   6.037  16.668   1.618 -0.1054  0.1907  0.1587
20800W        W36984  13.186   6.511   4.044  0.0492  0.1452 -0.1910
20801W        W36985  13.211   5.773  10.418  0.2772  0.1732 -0.0950
20802W        W36986   6.942  11.050   1.250  0.1162  0.2363 -0.0512
20803W        W36987   0.186  14.600   0.480  0.2791 -0.0738 -0.1213
20804W        W36988   1.145   8.433  11.956  0.5090  0.0817 -0.2572
20805W        W36989  11.125  15.217   1.351  0.0079 -0.0537  0.2318
20806W        W36990   1.004  15.966  11.532 -0.1427  0.1593  0.0065
20807W        W36991   5.079  15.361   3.764 -0.0363  0.2848  0.0919
20808W        W36992  13.589   1.277   0.787 -0.0367 -0.0181 -0.0661
20809W        W36993  16.320  14.487  10.005  0.0831  0.2303 -0.1218
20810W        W36994   3.366  14.536  13.681  0.0951  0.2196 -0.0628
20811W        W36995  17.198  15.142  11.825 -0.0733 -0.0471  0.1964
20812W        W36996  13.158   3.144  12.643  0.2679  0.0187 -0.1345
20813W        W36997   2.498  18.205   3.822  0.4689  0.1339 -0.0482
20814W        W36998  12.619   2.419   1.727  0.0966  0.3714  0.0798
20815W        W36999  15.258  16.010  11.983 -0.1243  0.1445 -0.1051
20816W        W37000   9.692   3.448   4.163 -0.0972  0.2461 -0.0623
20817W        W37001  18.547  12.638   0.704  0.0417 -0.0248 -0.0906
20818W        W37002   0.102  11.627   4.914 -0.2533 -0.3076 -0.0920
20819W        W37003   6.742  10.208   1.749  0.1278  0.1190 -0.0454
20820W        W37004  15.855  18.629   9.735  0.1930 -0.0987 -0.1066
20821W        W37005  14.339  13.564   4.675 -0.0170  0.0168  0.3135
20822W        W37006  15.207  18.851  13.009 -0.1801 -0.0562 -0.1341
20823W        W37007  11.229  10.695  13.411  0.3509 -0.3105  0.0150
20824W        W37008   3.937  15.991  13.989  0.0429 -0.0801 -0.1199
20825W        W37009   2.732   1.996  12.885 -0.0840 -0.0431  0.3950
20826W        W37010   5.395  17.914   3.550 -0.1144 -0.3474 -0.1742
20827W        W37011   8.307  13.109  14.679  0.0470  0.1832 -0.0961
20828W        W37012   7.273  17.515  11.552 -0.3172  0.2488  0.0967
20829W        W37013  17.748   5.584   3.903 -0.0569 -0.3581  0.0965
20830W        W37014   2.435   8.648   3.587 -0.1268 -0.0336  0.1044
20831W        W37015   9.746  12.432  13.464 -0.0496 -0.0270 -0.0141
20832W        W37016   1.922   9.751   2.373 -0.2595  0.0372 -0.1141
20833W        W37017  15.699  16.846   1.830  0.0523 -0.3806 -0.1420
20834W        W37018   3.130   2.444   1.779 -0.1849 -0.1577  0.1064
20835W        W37019  13.699  10.763   1.942 -0.0942  0.2147 -0.0639
20836W        W37020  11.942   3.552  11.288 -0.3457 -0.2779 -0.2252
20837W        W37021  17.497  10.725  13.897 -0.0314 -0.0415 -0.1963
20838W        W37022   4.731  15.801  12.074  0.2083 -0.0254 -0.0735
20839W        W37023  18.786   9.665   1.650 -0.0135  0.0087 -0.0755
20840W        W37024   2.267  12.038   2.334 -0.3803 -0.4942  0.3549
20841W        W37025  12.995   6.723   2.389  0.2189 -0.0636 -0.1416
20842W        W37026   5.259  13.580  13.797 -0.1189 -0.1209  0.1622
20843W        W37027  13.318  18.169   0.159 -0.2205  0.2410  0.2497
20844W        W37028   9.184   6.744   0.587  0.1798 -0.0653 -0.0018
20845W        W37029   3.861  11.697  11.459  0.3552 -0.2581  0.1812
20846W        W37030  10.580  17.237   5.298 -0.0277  0.0688 -0.1032
20847W        W37031  19.146  12.863   0.485  0.1704 -0.2839  0.1258
20848W        W37032   8.406  12.276  10.671  0.0574  0.1323 -0.0192
20849W        W37033  17.268   0.264  13.722 -0.1382 -0.3053 -0.1763
20850W        W37034   5.211  16.583  14.607  0.0799 -0.0462  0.1135
20851W        W37035  14.268   9.787   3.771  0.2520 -0.0729  0.1030
20852W        W37036   6.184  18.982   1.957  0.1551  0.1766  0.0406
20853W        W37037   6.612  15.270  14.939  0.1710 -0.2910  0.0497
20854W        W37038  18.865  17.992   0.133 -0.1416  0.2072 -0.1217
20855W        W37039   0.438  15.823   4.885  0.0931  0.0338  0.5962
20856W        W37040  16.575  17.161  14.479 -0.1210 -0.0431 -0.2005
20857W        W37041   6.079  12.506   4.109  0.4321 -0.0875 -0.1593
20858W        W37042  13.462   2.684  11.109  0.1411  0.0087 -0.1718
20859W        W37043   0.757   4.807   3.070  0.2729  0.2126  0.2830
20860W        W37044   6.017   6.712   2.985 -0.0648  0.0084 -0.0020
20861W        W37045   8.398  16.554  12.520  0.1003  0.0222  0.0863
20862W        W37046  19.292   7.730   9.786 -0.0391 -0.2431 -0.1616
20863W        W37047   1.380   8.333   0.537  0.1835 -0.0054  0.2804
20864W        W37048   2.220  11.207  11.780 -0.0496  0.2885 -0.1433
20865W        W37049  11.884   3.285  13.756 -0.2578  0.0909 -0.0245
20866W        W37050  13.553  16.912  13.161 -0.1943  0.1022  0.1722
20867W        W37051  19.103  17.115  11.847 -0.0614 -0.3222  0.1334
20868W        W37052  11.608  13.293   0.399 -0.0029  0.2797  0.0554
20869W        W37053  17.536   8.122  11.885  0.1150  0.0970 -0.0678
20870W        W37054  17.626   7.708   0.062  0.0625 -0.1037 -0.1647
20871W        W37055   7.029   7.056  14.891  0.1441  0.0630 -0.0946
20872W        W37056  11.855   2.846   1.865 -0.1685  0.1381 -0.0440
20873W        W37057   3.733   9.327  14.643 -0.1436  0.0060  0.2144
20874W        W37058  12.056   7.392  14.503  0.1168  0.0131 -0.2860
20875W        W37059   8.239  14.774  10.605 -0.0077  0.1180  0.2190
20876W        W37060  10.693   1.077   2.856  0.0348  0.0072  0.2556
20877W        W37061  16.155  18.457   9.397  0.3333  0.0823 -0.1290
20878W        W37062   3.807  13.155   0.038  0.2227 -0.0025  0.2899
20879W        W37063  10.687  14.047  10.457 -0.1147  0.0273 -0.2470
20880W        W37064   8.299   3.969   3.497  0.0303  0.0583  0.1355
20881W        W37065   8.954   9.198   1.009  0.0131 -0.0775  0.2505
20882W        W37066  10.843  15.439   9.521  0.3792 -0.1248  0.0196
20883W        W37067   2.526  12.714   3.543  0.2382 -0.0045 -0.2034
20884W        W37068   5.969  17.470   0.137  0.1696  0.0686 -0.1550
20885W        W37069   0.980  18.184  11.802  0.2415  0.1473 -0.1417
20886W        W37070   5.940   1.497   0.027 -0.0401 -0.2541 -0.2970
20887W        W37071   3.314  17.972  12.480 -0.1442  0.0658 -0.3259
20888W        W37072   4.211  16.343   2.661  0.5021  0.0270  0.2133
20889W        W37073  10.556   1.009   3.695  0.1515  0.1939  0.2611
20890W        W37074   7.506   9.746  12.840  0.0310  0.0028 -0.1461
20891W        W37075  17.474   0.836   4.288 -0.4378  0.4011  0.1291
20892W        W37076   4.407   2.980   2.181  0.1791 -0.3456  0.1642
20893W        W37077   2.058   7.680  11.269 -0.0246 -0.0123 -0.0039
20894W        W37078  14.313  13.290  14.712 -0.2247  0.0241  0.1579
20895W        W37079   1.260  16.357  13.563 -0.1423  0.3186 -0.1887
20896W        W37080   2.911  18.434   4.018  0.2929 -0.0140  0.1184
20897W        W37081   5.161  13.842   2.247 -0.0498 -0.1447  0.2797
20898W        W37082   9.530  14.009   4.520  0.2293 -0.0619 -0.0038
20899W        W37083   4.724  13.170  13.818 -0.3972  0.2035  0.0499
20900W        W37084  16.431   1.956   2.519 -0.2881  0.0611 -0.1052
20901W        W37085   2.708  11.455  13.302  0.1558  0.1653  0.3801
20902W        W37086   5.258   7.540   0.563 -0.0360 -0.0493  0.3883
20903W        W37087   3.162   3.757  14.903 -0.0587 -0.2146  0.0651
20904W        W37088   3.604   5.398   1.447 -0.1982  0.0251  0.4429
20905W        W37089  15.394  11.187   4.191  0.0436  0.0176  0.2675
20906W        W37090  14.820  11.038  14.348 -0.0795 -0.1653  0.0268
20907W        W37091   5.917  10.942   3.017 -0.0207  0.1165  0.4143
20908W        W37092   7.457  16.797   2.050 -0.1027 -0.2015 -0.1859
20909W        W37093   3.220  12.744   1.706 -0.1671  0.3287  0.3360
20910W        W37094  18.105  14.947   3.763  0.1030  0.1018  0.2709
20911W        W37095   4.659   8.431  14.341 -0.1550 -0.1072 -0.2861
20912W        W37096   5.853  12.154   4.893 -0.3325 -0.0861 -0.1229
20913W        W37097  14.915   0.246   4.061 -0.2522 -0.0521  0.0451
20914W        W37098  15.497  12.275   2.843 -0.0460  0.1479 -0.2316
20915W        W37099   1.911  18.865  12.760 -0.0620  0.1053 -0.0148
20916W        W37100   0.941   4.134  11.860  0.0019  0.0597  0.0573
20917W        W37101  17.552   5.562   2.560  0.1480 -0.2366  0.2138
20918W        W37102   1.837  10.356  13.881 -0.1899 -0.1378 -0.0350
20919W        W37103  15.241  15.588  14.068  0.0110 -0.7093  0.0488
20920W        W37104   5.579  18.545   0.306  0.0316 -0.0735 -0.0700
20921W        W37105   8.812  16.997   4.173 -0.2155  0.3129  0.3617
20922W        W37106   0.397  17.137  14.265 -0.0556 -0.0257 -0.0012
20923W        W37107  18.456  13.725   1.478  0.0042  0.0897 -0.2091
20924W        W37108  15.028  17.821  13.129 -0.0897 -0.1338  0.1530
20925W        W37109  10.289  14.363   1.209  0.1703 -0.1218  0.0448
20926W        W37110   3.985  16.987   0.911 -0.0093  0.3431  0.1215
20927W        W37111   1.787   5.499   4.480  0.1634 -0.1082  0.3991
20928W        W37112  11.510   5.672   5.403 -0.0413  0.0604  0.1144
20929W        W37113  15.694   7.306   0.206  0.0725 -0.0660 -0.1701
20930W        W37114  16.209  16.465  14.743 -0.1915 -0.0240 -0.0306
20931W        W37115  12.067  11.841   1.632  0.0062  0.2331 -0.0291
20932W        W37116  18.635  13.209  14.070  0.2794 -0.1773 -0.0529
20933W        W37117   8.277   4.541   1.232  0.0376  0.1326  0.0357
20934W        W37118   3.049   7.253   3.466  0.1452  0.1129  0.1122
20935W        W37119   3.350  11.145   5.527 -0.0762  0.2805 -0.2004
20936W        W37120   9.732  11.483   1.896  0.3443 -0.0268 -0.2041
20937W        W37121  14.733  19.264  12.567  0.2640  0.2316 -0.0011
20938W        W37122   0.645   8.259  12.817 -0.1714  0.4180 -0.1746
20939W        W37123   1.426   0.008   0.355 -0.1254  0.0191 -0.2228
20940W        W37124   5.446  11.034   3.133 -0.4582  0.1392 -0.0621
20941W        W37125  15.637   0.410  14.721  0.2446 -0.1470 -0.1247
20942W        W37126  18.357   4.460   4.083  0.4432  0.3180  0.0429
20943W        W37127   9.755  11.316  11.307 -0.3120  0.2044 -0.1941
20944W        W37128  14.032  13.981   1.944 -0.1472  0.0170  0.0315
20945W        W37129  14.337  13.414  10.414 -0.1419 -0.3806 -0.0221
20946W        W37130  13.611  13.226  12.536 -0.2249  0.0328  0.1074
20947W        W37131   9.568  11.210  12.154  0.1543 -0.3432 -0.1103
20948W        W37132   1.387  10.058   2.914 -0.4445 -0.1801  0.1049
20949W        W37133   7.322  13.746   0.572  0.1836 -0.1021  0.0343
20950W        W37134  15.742   4.434   3.094  0.3188 -0.0535  0.0732
20951W        W37135   3.997  16.896  13.863 -0.1793  0.0385 -0.2844
20952W        W37136  14.289   9.674  13.330  0.0758  0.0332  0.2728
20953W        W37137  12.346  18.958   3.594 -0.1570  0.0025  0.0142
20954W        W37138   0.136  11.148  12.701  0.1657  0.0358  0.0238
20955W        W37139   0.855   7.605   0.128  0.0457  0.1107  0.2729
20956W        W37140  14.908   9.937   0.844  0.0453  0.2417  0.0687
20957W        W37141  18.042   0.156  10.240 -0.1343 -0.2197 -0.0717
20958W        W37142   0.265   7.825  14.261 -0.5087  0.2003 -0.2597
20959W        W37143   6.214   3.153  12.705  0.4071 -0.0166  0.0175
20960W        W37144   7.746  18.090  11.281  0.1591 -0.0293  0.2032
20961W        W37145  11.874  17.215  12.247 -0.0723  0.2117 -0.1718
20962W        W37146  14.199  16.580   1.576 -0.1789 -0.1381  0.1788
20963W        W37147   4.595   6.254  14.611 -0.2114  0.0280 -0.2607
20964W        W37148  12.747   0.939   4.378 -0.1820 -0.3128  0.0702
20965W        W37149   8.138  13.826   0.317 -0.5692 -0.1197  0.3295
20966W        W37150  14.706   3.648   1.559 -0.1347 -0.0461  0.3366
20967W        W37151  10.806  19.094  14.425  0.0796  0.0163 -0.0546
20968W        W37152   4.047   7.504   2.264  0.3485 -0.1198  0.1548
20969W        W37153  16.660   9.380   3.608  0.0821  0.3574 -0.0007
20970W        W37154  10.598   5.754   3.724  0.0061  0.4795  0.2305
20971W        W37155   0.595  17.496   5.388 -0.1412  0.1905  0.1438
20972W        W37156  15.190  19.074  14.409 -0.0866 -0.2266  0.3481
20973W        W37157  17.725   7.531   3.484 -0.1266  0.0485  0.4776
20974W        W37158  12.455   9.546  11.712  0.0674  0.5882 -0.3196
20975W        W37159   2.597   8.955  12.834 -0.1649  0.1116 -0.0051
20976W        W37160  10.117   3.494  10.969  0.0720 -0.0255  0.0049
20977W        W37161  16.603   1.063  10.995 -0.0309 -0.1183 -0.0052
20978W        W37162   8.668  17.855   4.689  0.1283 -0.3070  0.0001
20979W        W37163  17.238  18.631   1.695  0.2079 -0.3998  0.1299
20980W        W37164   5.906   5.752  14.298  0.0511 -0.2306 -0.1556
20981W        W37165   3.271  12.028   2.126  0.3260  0.2441 -0.0494
20982W        W37166   5.665   8.339  14.430 -0.1973  0.1808  0.0339
20983W        W37167  14.937   3.960   3.001  0.2321  0.3294  0.2477
20984W        W37168  12.302   6.814   1.832 -0.1479  0.0599 -0.1711
20985W        W37169   2.430   2.722  14.025  0.3500 -0.2816  0.1157
20986W        W37170  11.506  18.993  12.807  0.2141 -0.2146  0.3905
20987W        W37171   5.987   3.488   2.052 -0.2122  0.0018  0.0748
20988W        W37172   3.550  10.534  13.684 -0.1260 -0.0131  0.1433
20989W        W37173  13.037   4.941   9.136  0.2293 -0.1406  0.0412
20990W        W37174   4.089  15.840  11.561  0.0077 -0.1860 -0.1700
20991W        W37175  15.463   2.806   1.507  0.1443 -0.2843  0.3523
20992W        W37176   7.487   2.855  11.516  0.0531 -0.0521 -0.2693
20993W        W37177  15.010  16.877  13.490  0.1783  0.1068 -0.1056
20994W        W37178   5.502   1.283   3.625 -0.0461  0.3052  0.0003
20995W        W37179  11.967  12.931   0.072  0.0889 -0.0219  0.2407
20996W        W37180  16.388   9.311   4.134 -0.2695  0.2508  0.1390
20997W        W37181   7.728  12.721   0.809  0.0707 -0.1384  0.1162
20998W        W37182  17.652   3.281  14.663  0.2216  0.1589 -0.0567
20999W        W37183   7.106  10.047  10.656 -0.4817  0.3216 -0.3915
21000W        W37184   4.186  18.648   0.683  0.2359  0.0276 -0.1758
21001W        W37185  15.587   6.573  14.001  0.1227 -0.2190  0.1415
21002W        W37186  16.518   4.724  12.238 -0.2523 -0.1750 -0.1186
21003W        W37187  16.384   1.198  13.047 -0.0430  0.2580  0.1758
21004W        W37188   5.021   2.519   0.145  0.0817 -0.0767 -0.0093
21005W        W37189   3.070   3.853   0.446 -0.0160 -0.1913  0.3950
21006W        W37190   4.340  11.978  11.464  0.0477 -0.1497  0.1647
21007W        W37191  15.820   1.679   0.729  0.0040  0.0436  0.0146
21008W        W37192   1.814  18.531  10.479 -0.1191  0.0223  0.4195
21009W        W37193  13.357   0.235   2.821  0.1699  0.0322 -0.1522
21010W        W37194   2.765  13.332   1.194 -0.0162  0.0714  0.1730
21011W        W37195  19.123  14.759   0.196  0.1192  0.4791  0.1217
21012W        W37196  15.958  10.873   3.247 -0.1973 -0.0101 -0.4366
21013W        W37197  14.197  12.119  14.427  0.2986 -0.0730  0.3506
21014W        W37198  18.642  14.160   3.506 -0.1436 -0.0918  0.3354
21015W        W37199   0.055   2.100   3.875 -0.2255 -0.1117  0.0590
21016W        W37200  19.290   8.493   4.808  0.0774  0.3984  0.3202
21017W        W37201   9.055   6.316  10.734  0.2999 -0.0178  0.2245
21018W        W37202  11.948   3.466  14.757  0.1128  0.0563 -0.0041
21019W        W37203   9.611  12.518   5.486  0.0879  0.2227 -0.0562
21020W        W37204   6.956   4.528   3.176 -0.2223  0.0320  0.2357
21021W        W37205   2.236   4.599  14.562  0.2537  0.0877  0.1154
21022W        W37206  16.705  15.791  13.154 -0.2920  0.1135  0.2755
21023W        W37207  13.496   4.255   0.182 -0.0641  0.4197 -0.1520
21024W        W37208   5.537   0.599  12.400 -0.1891  0.1426 -0.2686
21025W        W37209  13.768   7.013   4.095 -0.2187  0.6458 -0.2448
21026W        W37210  13.548  18.436  10.333 -0.0004  0.3635  0.2208
21027W        W37211  10.820  16.155  11.143  0.1213 -0.1117  0.1006
21028W        W37212   0.486   8.419   1.041  0.1408 -0.1730  0.0792
21029W        W37213  15.688  17.229  14.648  0.1118 -0.0392 -0.2216
21030W        W37214   2.296   4.397   0.085  0.3051 -0.0422 -0.1323
21031W        W37215   2.989  12.295   3.570 -0.1559  0.2194  0.2033
21032W        W37216   7.972   5.872  12.868  0.0999 -0.1889  0.2973
21033W        W37217  18.874  16.975   1.178  0.3604  0.0257 -0.1636
21034W        W37218   6.249   5.832   2.231  0.0286 -0.0134 -0.4196
21035W        W37219   5.707  14.731  10.642 -0.1522 -0.0247  0.1113
21036W        W37220  13.783   6.367   2.328  0.0849 -0.0752 -0.1272
21037W        W37221  18.811   5.262  13.810 -0.0281 -0.1941 -0.2472
21038W        W37222  14.537  18.833  14.719  0.1244 -0.1005 -0.0037
21039W        W37223   3.776  11.258  13.450 -0.2237 -0.0803  0.2775
21040W        W37224  10.831  13.232   3.583  0.2323  0.1570  0.1445
21041W        W37225   5.363  14.143  13.339 -0.3554  0.1117 -0.0898
21042W        W37226   6.952  13.445   0.782  0.1589  0.1746 -0.1493
21043W        W37227  13.522  12.094   3.930 -0.2598  0.0680 -0.3277
21044W        W37228   8.888  15.093  13.482 -0.0383 -0.1347  0.0807
21045W        W37229  16.011  10.772  11.069  0.3122 -0.1818  0.1482
21046W        W37230   3.619   9.137  11.057 -0.0036 -0.0311 -0.0869
21047W        W37231  15.216  12.608  10.749 -0.1290  0.0489  0.0737
21048W        W37232   6.639   5.314  11.800 -0.1544  0.1775 -0.4257
21049W        W37233   0.689   7.859  14.607  0.4242 -0.0321 -0.1747
21050W        W37234   0.113   1.420   4.126 -0.1189  0.1741 -0.0545
21051W        W37235  16.299   5.620   3.030 -0.0119 -0.0221  0.1759
21052W        W37236  10.658  13.674  13.037  0.1648  0.1224  0.1610
21053W        W37237   8.138  13.076   0.599  0.2282  0.0958 -0.0853
21054W        W37238  17.596   1.248   4.058 -0.0075 -0.2593 -0.1011
21055W        W37239   9.982  11.238   3.706 -0.1234 -0.1643  0.0777
21056W        W37240  15.856  15.398   4.500  0.2665 -0.2215  0.0739
21057W        W37241  11.332  11.525  10.516  0.2670  0.2259 -0.0973
21058W        W37242   8.315   9.532  12.508 -0.0783  0.1472  0.2130
21059W        W37243   1.613   3.377  10.950 -0.0676  0.2146  0.1616
21060W        W37244   7.164  17.746  10.473  0.0849  0.2257 -0.0475
21061W        W37245   9.898   6.071   0.607 -0.1454  0.2853  0.0646
21062W        W37246   6.489  18.228   9.935  0.4681 -0.0494  0.3246
21063W        W37247   7.985  11.085   0.398  0.0701 -0.1598 -0.0440
21064W        W37248   1.297   4.443  13.825 -0.2113  0.1097  0.2159
21065W        W37249   3.522  16.132   1.361  0.2914 -0.1142 -0.0175
21066W        W37250   1.428  15.061  11.002  0.0758 -0.0055  0.0834
21067W        W37251   2.360   5.815  12.858 -0.2107 -0.1829  0.3387
21068W        W37252   1.906   9.264  11.362  0.1460  0.0005  0.0494
21069W        W37253   7.428   4.918   0.799 -0.0162  0.4883  0.0187
21070W        W37254  12.723  13.979  14.214 -0.1271 -0.1062 -0.1246
21071W        W37255   5.674   2.339  12.579 -0.3133 -0.2163 -0.1527
21072W        W37256   9.464   4.460   0.954 -0.2693  0.0131 -0.0409
21073W        W37257  17.114   4.595   0.368  0.0435 -0.0602 -0.0465
21074W        W37258   5.029   4.140  14.107  0.2403 -0.1041  0.1844
21075W        W37259  15.779  11.526   3.470  0.2056  0.1042  0.0228
21076W        W37260  12.230  18.436   3.060 -0.1753 -0.1160 -0.3020
21077W        W37261   8.656  16.276  12.157  0.0800  0.1600  0.1263
21078W        W37262   1.812   1.405   0.880 -0.2190 -0.0015  0.1086
21079W        W37263  11.042  14.735   1.560 -0.1742 -0.2418  0.1829
21080W        W37264   2.594  10.158  14.577 -0.3133 -0.2392 -0.2800
21081W        W37265  17.440   4.995  12.306  0.2714  0.0877 -0.0156
21082W        W37266   0.567  10.196   5.550  0.1521 -0.5031 -0.2922
21083W        W37267   6.279   4.482  12.686 -0.2117 -0.3025  0.0691
21084W        W37268   6.180  13.179  11.637  0.0780  0.0950  0.0821
21085W        W37269  16.505   0.147  14.437 -0.0977 -0.2351  0.2169
21086W        W37270   1.045  11.001  11.133 -0.3430 -0.0742  0.4062
21087W        W37271  13.676   5.316   1.627 -0.2726 -0.0665 -0.0279
21088W        W37272   8.697  12.004   4.082  0.1758  0.1432  0.1839
21089W        W37273   5.504   9.319  11.588 -0.3930 -0.4420  0.0049
21090W        W37274   9.057   6.358  11.610  0.0074  0.1895 -0.2129
21091W        W37275   8.694  17.026   0.782 -0.1412  0.1322  0.1147
21092W        W37276  17.486   6.821  13.571  0.1838  0.2131  0.0658
21093W        W37277  16.010  11.987  10.668  0.0451  0.0702  0.0193
21094W        W37278   3.253  18.262   1.955 -0.2324 -0.0685  0.1466
21095W        W37279   1.902   6.325  13.814 -0.1711  0.2374 -0.0131
21096W        W37280  11.174   6.558  13.922 -0.0794  0.0471 -0.0575
21097W        W37281   9.932  10.967  13.653 -0.2580  0.1136  0.0137
21098W        W37282   3.111   1.703  12.055  0.0302  0.2404  0.1165
21099W        W37283  13.505  14.428   4.389 -0.2385 -0.0678 -0.0568
21100W        W37284  10.912  16.030  13.413  0.3636  0.3118 -0.2307
21101W        W37285   9.477   2.561   0.672 -0.1230 -0.0553  0.1338
21102W        W37286  14.161  15.001   0.949 -0.1452 -0.0803  0.2486
21103W        W37287  15.946   1.032   9.539  0.0835  0.1911 -0.3021
21104W        W37288   2.808  14.715  14.659  0.2921 -0.2070 -0.1475
21105W        W37289   0.210   1.334   2.755 -0.0697 -0.1215  0.1769
21106W        W37290  15.731   9.451  11.270 -0.2502  0.0315 -0.1306
21107W        W37291   5.567  14.160  14.386 -0.2486  0.3823 -0.1894
21108W        W37292   2.807  12.155  10.479  0.0168 -0.0595  0.0540
21109W        W37293   9.152  13.438   5.333  0.0385  0.1046 -0.1429
21110W        W37294   3.876  14.361  10.820  0.0159 -0.0641  0.2261
21111W        W37295  10.021  10.267  12.782  0.2831 -0.0913 -0.0748
21112W        W37296  14.563  15.081   3.485  0.2533 -0.0064  0.0348
21113W        W37297  18.583   5.162  12.982  0.0171 -0.1055 -0.1196
21114W        W37298   4.569  14.838  10.408  0.4040  0.2680 -0.2128
21115W        W37299   6.751  14.251  11.144  0.1863  0.1022 -0.1769
21116W        W37300   4.578  17.406   2.401  0.0858 -0.1436  0.0600
21117W        W37301   2.085   4.823   2.348 -0.0077 -0.1276  0.0398
21118W        W37302   6.120  16.077   1.567 -0.0122 -0.0717 -0.1021
21119W        W37303  11.568   0.067   3.887 -0.2699  0.0233  0.0673
21120W        W37304   2.292  18.797   0.768  0.0475 -0.1283 -0.2315
21121W        W37305   5.413  16.072   4.033 -0.0777  0.3948 -0.2954
21122W        W37306  17.683   3.277  10.583 -0.0009  0.1693  0.0212
21123W        W37307   0.342  13.633  14.096  0.2070 -0.0780 -0.2164
21124W        W37308   6.528   0.533  12.432 -0.0785  0.0469 -0.0572
21125W        W37309  12.508   5.974  14.697  0.3884  0.0826  0.0021
21126W        W37310   7.284   5.693  11.328  0.0141  0.0619 -0.1970
21127W        W37311   0.257   8.586  12.565  0.0638  0.0185 -0.0820
21128W        W37312  10.663  17.864   0.829  0.2001  0.1524 -0.2515
21129W        W37313   5.535  13.793   1.243 -0.2481  0.5448  0.2071
21130W        W37314   4.500   2.384  11.492  0.1389 -0.2227  0.0910
21131W        W37315  14.520  18.997   3.830  0.0902  0.0176  0.2531
21132W        W37316   5.362   7.206   0.941 -0.2185 -0.2324 -0.0900
21133W        W37317   7.230  16.740   4.258  0.1352 -0.0869  0.0243
21134W        W37318   0.877  18.260  12.917 -0.5113 -0.2209 -0.0173
21135W        W37319   0.104   1.836   2.609 -0.0960  0.3571  0.1480
21136W        W37320   4.388  14.353   2.275  0.1101  0.0983  0.0399
21137W        W37321  14.558   4.286   0.331 -0.1267 -0.0852  0.2216
21138W        W37322  12.979  17.100  11.458 -0.0045  0.4772  0.0669
21139W        W37323  16.997  12.609   4.611  0.0561  0.3102  0.1415
21140W        W37324   2.033   4.717   1.836 -0.2007 -0.3077 -0.1102
21141W        W37325  11.596   3.227   4.735 -0.0856  0.1297 -0.0956
21142W        W37326   9.576  12.488  11.528  0.0049 -0.1782 -0.1223
21143W        W37327  14.336  18.525  14.324  0.0691  0.1050  0.4648
21144W        W37328  13.926   9.295   5.215 -0.2645  0.0526  0.2694
21145W        W37329  18.616   1.074  14.820 -0.0071 -0.1080 -0.1191
21146W        W37330  15.990   4.793   1.603  0.1336 -0.3649 -0.0498
21147W        W37331  18.069  15.102   2.902 -0.0560 -0.0223  0.5212
21148W        W37332  14.616  17.973   1.901  0.0451 -0.0010 -0.0417
21149W        W37333  19.104   5.271  12.423 -0.0278 -0.3358 -0.0328
21150W        W37334  12.750  14.986  14.108 -0.1656 -0.0543  0.3164
21151W        W37335  10.632   6.965  11.651 -0.0376 -0.3092 -0.0807
21152W        W37336   9.386  12.547   0.128 -0.0630 -0.2018 -0.1644
21153W        W37337   3.328   8.730  13.344 -0.0283  0.0248 -0.1279
21154W        W37338   7.230  17.204   3.593 -0.0162 -0.1312  0.0652
21155W        W37339  14.564   9.428   3.450 -0.0915 -0.1097 -0.1570
21156W        W37340   2.078   2.399  14.370 -0.0024 -0.0001 -0.0224
21157W        W37341   1.572  12.813   5.762  0.1092  0.0688 -0.1682
21158W        W37342   0.975  18.780  11.180  0.0168  0.1223 -0.5015
21159W        W37343   8.937  12.941   0.395 -0.2981  0.0062 -0.0526
21160W        W37344  17.576   5.669   4.809  0.1309  0.0054  0.1870
21161W        W37345  11.705   7.452  14.188 -0.1123 -0.0907  0.0926
21162W        W37346  10.757   0.539   3.825  0.0992  0.1033 -0.0395
21163W        W37347  15.171   1.598   2.155 -0.1051 -0.2409 -0.1132
21164W        W37348  11.568  10.841   2.995 -0.1117  0.4367  0.0048
21165W        W37349   5.586  15.212   4.478 -0.1759 -0.3899  0.2472
21166W        W37350  15.188   2.660  11.535  0.1372 -0.2429  0.3228
21167W        W37351   5.534  11.549   0.960  0.1287  0.1221 -0.1803
21168W        W37352  10.647   1.084   1.866  0.0420 -0.3269 -0.2631
21169W        W37353   1.059   7.814   2.842 -0.1406 -0.0704  0.0850
21170W        W37354  16.489  15.294  13.167  0.2570  0.1931 -0.0192
21171W        W37355  10.426  17.273   2.367 -0.0619 -0.0277 -0.0650
21172W        W37356   7.118  14.325   3.956 -0.2497  0.1001  0.1819
21173W        W37357  10.706  17.709  12.313  0.0888  0.3643 -0.0487
21174W        W37358   6.166   3.583  12.892  0.0811 -0.1294 -0.0266
21175W        W37359   3.091   6.024   0.941  0.0751 -0.2128  0.2034
21176W        W37360  17.162  14.653  10.122  0.0199 -0.0802  0.0981
21177W        W37361   5.379   5.924   1.271 -0.2014  0.0910  0.1980
21178W        W37362   5.165  16.377   1.847  0.2417 -0.1071  0.0897
21179W        W37363   5.459  11.911  12.597  0.2332  0.0846  0.2905
21180W        W37364   7.856   5.824   0.377 -0.1678 -0.2099  0.3219
21181W        W37365   8.181   6.764   2.366 -0.0429 -0.0723  0.0294
21182W        W37366  15.626  17.436  10.979 -0.1675 -0.2059 -0.0903
21183W        W37367   9.827   3.136   2.377 -0.1541 -0.0081 -0.2325
21184W        W37368  14.140  12.687  10.807 -0.1711  0.2129 -0.4597
21185W        W37369   7.019   0.513   1.950  0.1033  0.0980  0.4142
21186W        W37370  17.691   5.166   0.402  0.0340  0.0411 -0.1391
21187W        W37371   1.553  16.190   1.189  0.1878  0.1975  0.0370
21188W        W37372  14.737   3.830  11.722  0.4644 -0.3740 -0.1585
21189W        W37373  10.332   1.023   4.556  0.1101  0.1540  0.0440
21190W        W37374  10.527   1.636   0.062 -0.0961  0.2102  0.0913
21191W        W37375   9.335   5.884   2.067 -0.2119  0.4170 -0.0235
21192W        W37376   2.746   6.831   0.549  0.0649 -0.2301 -0.0413
21193W        W37377  18.469  15.352  11.948  0.0781  0.1413 -0.0701
21194W        W37378  13.982  15.235   4.087 -0.0971 -0.0141 -0.0610
21195W        W37379   5.400  13.759  14.844  0.1277  0.2491  0.1475
21196W        W37380  11.185  13.738   0.448 -0.0757 -0.1026 -0.2651
21197W        W37381  13.781  12.256   4.761 -0.0688  0.4107 -0.2285
21198W        W37382   8.910  14.632   1.983 -0.1030  0.0977  0.2576
21199W        W37383   4.391  12.546   0.558  0.3953 -0.0038  0.1160
21200W        W37384   3.497   8.999   0.697 -0.1294 -0.1709 -0.1204
21201W        W37385   5.186  13.838   0.864  0.0814  0.1534  0.1560
21202W        W37386   9.832   8.340  14.446  0.3969 -0.0880  0.2069
21203W        W37387   3.087  13.892   4.157 -0.1886 -0.2326 -0.2336
21204W        W37388  19.129   3.999  14.206 -0.1635  0.1772 -0.0393
21205W        W37389   9.263   1.541   2.142 -0.1182 -0.2829  0.0165
21206W        W37390   7.509  17.676   5.239  0.2479 -0.1372 -0.1784
21207W        W37391   0.964  16.184   0.838 -0.5504  0.0709  0.0513
21208W        W37392   8.465   5.030  11.966 -0.2590  0.0112  0.1352
21209W        W37393   7.969   6.284  14.585 -0.1263  0.0950 -0.0095
21210W        W37394  16.837   1.409   4.145 -0.1206  0.0142 -0.0171
21211W        W37395  12.797   9.564   1.974  0.1440 -0.1162 -0.0597
21212W        W37396  15.638  11.899   1.130  0.1304 -0.0644  0.1510
21213W        W37397  13.061   0.284  14.705  0.0491 -0.1464  0.0306
21214W        W37398  19.364   2.548   0.493 -0.2142 -0.0968  0.1744
21215W        W37399   8.385   9.544   3.107 -0.0805  0.2831  0.0975
21216W        W37400  12.128  17.938   3.212  0.1249  0.2826 -0.1941
21217W        W37401  13.538  16.011   1.608 -0.0701 -0.1205  0.3206
21218W        W37402  12.302  15.181  11.257 -0.0683  0.3132  0.4468
21219W        W37403   2.244   1.246  11.336 -0.1791  0.0071 -0.1368
21220W        W37404   7.035   2.479   3.205 -0.0910  0.0220  0.3106
21221W        W37405   7.540  11.898   5.459  0.1845  0.1059 -0.0091
21222W        W37406  13.258   8.592   0.046  0.1471 -0.1735  0.1343
21223W        W37407  17.873   1.796   3.882 -0.0903  0.2410 -0.1994
21224W        W37408  10.164  10.993  10.446 -0.0752 -0.0369 -0.2477
21225W        W37409  14.852  15.409  12.371 -0.1680  0.0150  0.2327
21226W        W37410   1.426  17.049   4.344 -0.2479  0.4237 -0.1860
21227W        W37411   7.474   5.090   1.258 -0.1322  0.0796 -0.2057
21228W        W37412   0.085  19.370   1.539 -0.0593 -0.3714  0.1364
21229W        W37413   8.861  10.859   9.358  0.0458  0.1718 -0.2727
21230W        W37414  16.346  11.456  13.802 -0.1715  0.0276  0.1391
21231W        W37415  17.492   6.699   1.975 -0.1434  0.2690 -0.3649
21232W        W37416  12.385  17.310   3.137  0.5129 -0.0020  0.0018
21233W        W37417   5.535   1.649   2.252 -0.2061  0.0262  0.1699
21234W        W37418   4.285  13.233  14.260  0.1709  0.1438 -0.0181
21235W        W37419   3.074  17.013   1.881 -0.0245  0.2862 -0.0997
21236W        W37420   1.128  16.852   0.112 -0.2422 -0.1251  0.1963
21237W        W37421  11.850   0.569   1.742 -0.2785  0.1636  0.1862
21238W        W37422   2.873  17.670  12.288  0.1202  0.1209 -0.2342
21239W        W37423   3.610  14.846  10.922 -0.2893  0.2283  0.1649
21240W        W37424   6.070  16.568   3.185 -0.1657  0.1435  0.3312
21241W        W37425  14.083  17.232  12.357 -0.2048 -0.1570 -0.0058
21242W        W37426   6.241   6.278   1.015  0.4240 -0.2747 -0.1422
21243W        W37427   7.638   1.524   1.719  0.2764  0.1753  0.1309
21244W        W37428   7.688   9.674   5.818  0.0742 -0.3851 -0.3969
21245W        W37429  16.219  19.102  14.574 -0.1327  0.0417  0.2103
21246W        W37430   5.916  17.131  10.190  0.0963  0.0193 -0.1990
21247W        W37431  18.716   5.515  12.636  0.1812  0.1936 -0.1971
21248W        W37432  18.413  15.135   4.160  0.1442 -0.1240  0.0060
21249W        W37433  14.641  11.271   0.683  0.3743  0.1305  0.1649
21250W        W37434   3.297  12.750  13.778  0.0668 -0.2850  0.2244
21251W        W37435  13.160   4.618   1.418  0.0205  0.0230 -0.1190
21252W        W37436   2.953  10.917  14.348  0.4504 -0.2711  0.1474
21253W        W37437   4.833   5.420  11.588 -0.0458  0.3223  0.2902
21254W        W37438   7.381   4.702   5.101  0.0932 -0.0659 -0.0114
21255W        W37439  16.127  18.182  11.204 -0.4280  0.0812 -0.4520
21256W        W37440   0.223  16.064  12.161 -0.0787 -0.0191 -0.0024
21257W        W37441   8.551   5.699   0.846 -0.1153  0.1231 -0.1967
21258W        W37442   0.325  11.995  13.034 -0.2370 -0.1083  0.0530
21259W        W37443   7.699  13.020  11.205 -0.0020  0.1165  0.1218
21260W        W37444  13.999  16.455  10.776 -0.0322 -0.0027  0.1412
21261W        W37445  13.670   0.817   4.352 -0.1299  0.2116  0.0813
21262W        W37446  15.272  15.260  10.443  0.0416  0.2975 -0.1311
21263W        W37447  16.962  14.544  13.988  0.3614 -0.0159  0.0305
21264W        W37448   0.373  17.559  13.897 -0.4139 -0.2058 -0.1815
21265W        W37449   0.714  15.840   1.647  0.2302  0.0316 -0.0499
21266W        W37450  15.885   9.996  13.576  0.0289  0.1300  0.2398
21267W        W37451   6.955  15.353  10.605  0.2676 -0.2087  0.3411
21268W        W37452   0.921   8.083  11.423 -0.1363 -0.1778  0.2248
21269W        W37453   8.272  10.726   1.148  0.4048  0.2958 -0.1033
21270W        W37454   2.859  10.744   5.442  0.0221 -0.3111  0.0584
21271W        W37455   0.180   1.080  13.110 -0.1911  0.4940 -0.1134
21272W        W37456  15.155  18.556  11.400 -0.0000 -0.1204 -0.0110
21273W        W37457   5.731  17.079  12.450 -0.0091 -0.1188 -0.0667
21274W        W37458  10.271   8.086  11.829 -0.1056  0.2783 -0.1115
21275W        W37459  16.050   3.760  14.613 -0.0333  0.3073  0.0971
21276W        W37460   7.082   2.108  14.442 -0.1426 -0.0677  0.3555
21277W        W37461   8.350   0.124  13.529  0.1288 -0.2902  0.0335
21278W        W37462   2.029   1.096  10.712 -0.2521 -0.1277 -0.0691
21279W        W37463  16.464  12.765  10.011  0.1335  0.0234 -0.0939
21280W        W37464   6.214  17.707   0.532 -0.3871 -0.0389 -0.0817
21281W        W37465  16.461  12.108   1.260 -0.0126 -0.1283 -0.0776
21282W        W37466  14.606   7.138  13.997  0.2245  0.0518  0.0031
21283W        W37467   9.549   7.579   1.581  0.2833 -0.2019  0.0382
21284W        W37468  13.082   1.305   4.226 -0.1919 -0.0226  0.3515
21285W        W37469  17.384  13.966   4.565  0.3342 -0.0883 -0.0518
21286W        W37470   2.145  17.237  13.193 -0.3853  0.2273 -0.2702
21287W        W37471   7.125  12.828  13.760  0.1870  0.0702  0.1794
21288W        W37472  16.434   9.371  14.858  0.1718  0.4162 -0.2088
21289W        W37473  12.325  10.024  13.165 -0.2980 -0.1428 -0.1984
21290W        W37474   3.637  16.737   3.058 -0.1451  0.1756  0.3067
21291W        W37475   0.706  16.997  12.536 -0.3186 -0.1911  0.0395
21292W        W37476   4.364   5.265   5.440  0.2708  0.2660  0.0223
21293W        W37477  11.419  17.147   4.078  0.1231 -0.0662  0.0212
21294W        W37478   5.495   0.035   1.632 -0.2070  0.2888 -0.0407
21295W        W37479   0.077   0.128   3.931  0.0730  0.0404 -0.0651
21296W        W37480  10.868  17.689   4.475  0.2388 -0.1537 -0.0199
21297W        W37481   3.890  18.581  12.050  0.1967 -0.1337 -0.1406
21298W        W37482  10.449   1.752  11.361 -0.0343 -0.0201  0.1472
21299W        W37483   3.307   6.661  14.247  0.0586 -0.0348 -0.0289
21300W        W37484  16.421  11.407   4.708 -0.2139  0.2728 -0.3271
21301W        W37485  16.251   8.197  10.881  0.1547 -0.1278  0.0234
21302W        W37486  12.652   8.087  12.527 -0.4407 -0.0239  0.2677
21303W        W37487  17.696  12.257  11.183 -0.1380 -0.0122 -0.1839
21304W        W37488  18.151  18.392   0.405  0.0127 -0.0720  0.3149
21305W        W37489   6.164   4.860   0.012 -0.0338  0.0777 -0.0259
21306W        W37490  14.193   1.692   3.628  0.1224 -0.1353 -0.0483
21307W        W37491   9.897   3.689   0.947  0.0467  0.4089 -0.2562
21308W        W37492  11.963   2.423  13.605  0.0018 -0.0728 -0.0066
21309W        W37493   1.899   8.371  13.285  0.1499  0.3473 -0.0475
21310W        W37494  17.395   6.810   5.229 -0.3363 -0.1003  0.0744
21311W        W37495   1.977   2.825  10.848 -0.1981 -0.3046 -0.0920
21312W        W37496  17.925   3.178  12.805 -0.0753 -0.2287  0.3651
21313W        W37497  17.456   4.055   1.910 -0.1460 -0.0158 -0.1017
21314W        W37498   3.618  14.367  11.299  0.0428 -0.3128 -0.4560
21315W        W37499  13.517   5.635  14.753  0.0395  0.4579  0.2809
21316W        W37500   6.665  11.542   2.331  0.1243 -0.0428  0.3127
21317W        W37501  11.959  11.319  12.249 -0.1488  0.2259 -0.1164
21318W        W37502   4.850   8.886  14.427  0.1640 -0.0623  0.0646
21319W        W37503   5.350  11.025  11.532  0.1614  0.2573 -0.1308
21320W        W37504   7.486  18.125   4.161 -0.1629  0.1356 -0.1092
21321W        W37505  12.689  18.003  10.832  0.2556  0.3215 -0.0874
21322W        W37506   1.921  17.904   5.100  0.0464  0.3055  0.1708
21323W        W37507   8.694   0.864  14.559 -0.2798 -0.2392 -0.3270
21324W        W37508  17.803  13.128   4.743  0.1415  0.2338  0.0883
21325W        W37509   3.857   3.109   1.435 -0.0210 -0.0184  0.1253
21326W        W37510   9.746   6.423   3.523 -0.0105  0.2283 -0.1534
21327W        W37511   1.533   0.206  12.115 -0.1982 -0.1500  0.2210
21328W        W37512   6.917   7.049   3.659 -0.1548  0.0100  0.0597
21329W        W37513   9.137   0.456  11.072 -0.2587  0.2426  0.1868
21330W        W37514  15.065  10.135  12.234  0.2787 -0.1097 -0.0502
21331W        W37515  13.037   6.368  11.661  0.1022 -0.2294 -0.2122
21332W        W37516   7.952   8.453  12.392  0.0673  0.0352  0.1985
21333W        W37517  11.787  16.793   4.221 -0.1483  0.1412  0.1601
21334W        W37518  14.136   1.710  10.611  0.2871 -0.0886  0.1026
21335W        W37519   3.040  11.017   1.597  0.0327  0.1390 -0.1918
21336W        W37520   0.542  13.964   1.783 -0.1863 -0.1595 -0.0497
21337W        W37521  11.420  14.417  13.994 -0.1238  0.1900  0.2709
21338W        W37522   8.504  17.380  11.671  0.0645 -0.0145  0.1848
21339W        W37523  14.155   0.613  13.109  0.2514 -0.3968 -0.0178
21340W        W37524  17.142   4.014   2.524 -0.1791  0.1067 -0.1231
21341W        W37525  12.348  11.073   0.037 -0.1100  0.2190  0.0028
21342W        W37526   1.703  11.189   5.780  0.0089 -0.3620  0.1097
21343W        W37527   2.236  11.538   4.520  0.3826 -0.3333 -0.1246
21344W        W37528   4.078   2.758  14.173  0.1415  0.1117 -0.4542
21345W        W37529   6.614  16.908  12.424  0.0218  0.1334 -0.2178
21346W        W37530  13.012  13.575  12.595 -0.1370  0.0311  0.1925
21347W        W37531  10.455  12.166   4.012 -0.2409 -0.0928  0.1287
21348W        W37532  10.834  17.855  14.051 -0.0989 -0.0611  0.0703
21349W        W37533  11.761   4.001  13.027 -0.2340  0.0888 -0.2243
21350W        W37534  15.793   7.257  11.588  0.1496 -0.4343 -0.1179
21351W        W37535  16.040   7.083  13.992  0.4526  0.3021  0.1173
21352W        W37536   0.790  17.833  11.341  0.1475  0.0042 -0.0027
21353W        W37537  17.794   8.225   2.029 -0.1888 -0.0293  0.0739
21354W        W37538  11.870  16.274   0.952  0.1671  0.3664  0.2578
21355W        W37539   3.323  13.120  11.058 -0.1761 -0.2940  0.0118
21356W        W37540  17.060   3.268   1.472  0.3207 -0.4891  0.3966
21357W        W37541  14.338   6.934   0.405 -0.2297  0.0311 -0.0059
21358W        W37542  18.963  10.717  11.564  0.3469 -0.0053 -0.0307
21359W        W37543  13.064  16.531  12.883 -0.0666 -0.2514  0.3218
21360W        W37544  10.474   2.511  12.845  0.0379  0.0810 -0.0773
21361W        W37545   0.337   8.474  12.026 -0.0176 -0.0805 -0.1413
21362W        W37546   8.934   1.922  13.999  0.4778  0.1041 -0.0350
21363W        W37547  19.250   9.531  13.638 -0.2020  0.1878 -0.3864
21364W        W37548   8.379   5.012   4.693  0.0248 -0.0878  0.1366
21365W        W37549   1.763  15.684  13.210 -0.1292 -0.2234  0.0241
21366W        W37550   4.245  12.309  14.195  0.2987 -0.1846 -0.2146
21367W        W37551  13.919   0.863   9.480  0.0825 -0.1912  0.3860
21368W        W37552   0.991  10.549   4.194 -0.2426  0.1094 -0.3974
21369W        W37553   7.783  17.643  14.411  0.3465  0.4398  0.2030
21370W        W37554  18.832   9.055  14.519  0.1023  0.3118 -0.2117
21371W        W37555  18.213   6.596  10.434 -0.3836  0.0784  0.1369
21372W        W37556  13.275  16.078  12.754  0.0279  0.1757  0.1706
21373W        W37557  10.360   4.699   1.966  0.0857 -0.0512 -0.6993
21374W        W37558   6.119  10.689  13.746 -0.0533 -0.3040  0.2195
21375W        W37559  14.147   0.835  13.614 -0.2196  0.0436  0.3126
21376W        W37560   2.542  18.743  14.929  0.1451 -0.2992 -0.2762
21377W        W37561   6.606   7.079   0.354  0.0682 -0.0925 -0.0758
21378W        W37562   5.605  14.685   3.500  0.1286  0.2926  0.0870
21379W        W37563   7.504   0.733  11.835 -0.0890 -0.0186 -0.1730
21380W        W37564   5.241   7.686   1.074 -0.0463  0.0205 -0.1699
21381W        W37565   5.818  18.516  14.805  0.1169  0.0208  0.6845
21382W        W37566  14.594  10.352   1.083  0.1346 -0.1356  0.1065
21383W        W37567  13.563   4.816   3.930 -0.1896 -0.4536  0.0318
21384W        W37568   0.670  14.881   1.870  0.0634  0.1503  0.1339
21385W        W37569   4.699  12.737   4.310 -0.1477  0.2953 -0.0103
21386W        W37570   8.143  13.886   3.938  0.0433  0.1141  0.1220
21387W        W37571  15.367  19.074   4.888 -0.0165  0.1607  0.0900
21388W        W37572  18.279   9.767  14.508 -0.0342 -0.1390 -0.1260
21389W        W37573   8.965   1.247   2.453 -0.0418 -0.2155  0.1880
21390W        W37574   5.751   7.112   2.153 -0.2216  0.0978 -0.0089
21391W        W37575   4.461   7.534   1.792 -0.1897  0.3094  0.5474
21392W        W37576   1.928  17.679  10.795  0.1103 -0.1976 -0.0003
21393W        W37577   9.007  12.713  13.178 -0.0323 -0.0721 -0.3404
21394W        W37578   2.578   7.580   2.737  0.0920  0.0142 -0.0201
21395W        W37579   6.701   8.470  10.975  0.1113  0.0038 -0.0935
21396W        W37580   2.366  10.940   3.172 -0.0378  0.2394 -0.0247
21397W        W37581   0.332   3.406  13.793  0.0581 -0.3348 -0.1260
21398W        W37582  13.316   3.654   1.787  0.0546 -0.1378 -0.2400
21399W        W37583   2.019  10.052  12.462 -0.1034 -0.2873 -0.0858
21400W        W37584   7.407   9.148   4.424  0.1156  0.0122 -0.0578
21401W        W37585   2.248  12.470  14.108  0.1129 -0.0599  0.2356
21402W        W37586   2.741   1.840  13.626  0.1326  0.1368 -0.0002
21403W        W37587   2.904   9.939  13.292 -0.1566 -0.4353 -0.0018
21404W        W37588  17.399  17.889  10.270 -0.0502 -0.3143 -0.2537
21405W        W37589  19.148   0.091  12.911 -0.0371 -0.0076  0.0567
21406W        W37590   5.522   2.310   0.944 -0.3390 -0.1275  0.1671
21407W        W37591  13.473  15.931  13.859 -0.1004 -0.2936  0.1604
21408W        W37592   2.125  17.849   0.069 -0.0015 -0.1827  0.1791
21409W        W37593   5.256   0.662   0.463 -0.0371  0.3399  0.0001
21410W        W37594   0.409   7.565   0.368  0.0154  0.1366 -0.1549
21411W        W37595   7.516  12.258   2.626  0.0847  0.2620  0.0942
21412W        W37596  17.305   5.263   4.748 -0.2868 -0.3519  0.2179
21413W        W37597   8.716  12.278  13.466 -0.0766 -0.1880  0.0618
21414W        W37598  11.180  19.383   4.335  0.2249  0.2254  0.0323
21415W        W37599   3.872  11.877   0.716 -0.1137 -0.0916  0.0925
21416W        W37600  17.418   2.600  11.050  0.0107  0.1437  0.0849
21417W        W37601   9.017  17.653  14.624 -0.0677  0.2864 -0.1404
21418W        W37602  10.003   2.041  12.586  0.1303  0.0571 -0.0554
21419W        W37603   3.285   2.093   9.802 -0.3892 -0.0912  0.1798
21420W        W37604   6.971   7.788  11.718 -0.0233  0.0617  0.3447
21421W        W37605   0.188   0.529   2.932 -0.0382 -0.1942  0.2578
21422W        W37606  10.273   9.274   2.248  0.0328 -0.1370  0.1695
21423W        W37607  13.894   7.594   2.069  0.1852  0.3988  0.0196
21424W        W37608   7.035   7.360   3.969 -0.3250 -0.1671  0.0671
21425W        W37609   3.389   5.622  11.911 -0.0297 -0.1450 -0.1525
21426W        W37610  12.171  16.056  12.064 -0.0977  0.0170  0.3744
21427W        W37611  19.376   2.427   1.764 -0.2991 -0.0914 -0.2061
21428W        W37612   9.321  18.351  10.653  0.1105 -0.0038 -0.2054
21429W        W37613   7.267   4.681   0.303 -0.0899 -0.3575 -0.1359
21430W        W37614  10.402   3.586   2.695  0.3097  0.1834 -0.0796
21431W        W37615   1.661  10.055  11.401  0.1896  0.2622  0.1075
21432W        W37616   7.097  11.473   5.112 -0.2170  0.1652  0.6413
21433W        W37617   3.785  12.454  12.193 -0.2427 -0.2630  0.0870
21434W        W37618  15.914  18.765  11.274 -0.0945 -0.3753  0.2724
21435W        W37619   0.017  12.700  13.852  0.1846 -0.2153 -0.0118
21436W        W37620  16.830   8.552   0.686 -0.2034  0.0189 -0.2622
21437W        W37621  13.937   8.664  14.046  0.1765  0.1021 -0.1010
21438W        W37622   2.284   3.229  10.144  0.0174 -0.3457 -0.2578
21439W        W37623  19.260   6.289  11.937 -0.1545  0.1252 -0.1684
21440W        W37624  13.498  18.268   0.956 -0.2362  0.0769  0.2113
21441W        W37625  13.074  13.742  14.015 -0.0816 -0.3292 -0.2217
21442W        W37626  12.264  11.952   0.661  0.2274  0.1744 -0.1355
21443W        W37627  10.848  12.043   3.312 -0.0548  0.0907  0.2146
21444W        W37628  10.716  13.394   4.408 -0.0311 -0.1205 -0.0090
21445W        W37629  17.595  10.915   0.385 -0.3756 -0.0267 -0.2127
21446W        W37630  11.152   7.112  11.587  0.1628  0.1779  0.0153
21447W        W37631  15.754   4.273   0.251 -0.0997  0.1855 -0.3432
21448W        W37632   0.073  18.545   0.750  0.0139 -0.1861  0.1020
21449W        W37633   0.994  11.310   4.556 -0.0062 -0.0443 -0.1332
21450W        W37634   1.366  12.464  10.610  0.0124 -0.1065  0.1725
21451W        W37635   6.982  17.069  13.441 -0.2930  0.1192  0.0913
21452W        W37636   7.091  16.135   0.953 -0.2809  0.2727  0.2019
21453W        W37637   9.338   7.128  14.118  0.0357 -0.1917  0.2199
21454W        W37638   3.783   1.725  11.682 -0.0220 -0.2109  0.1146
21455W        W37639   0.780   9.809  11.538 -0.0534  0.0844  0.2123
21456W        W37640   3.162  12.262  13.392 -0.3477  0.1978 -0.1966
21457W        W37641   0.950   8.559   5.068 -0.2854 -0.2253  0.0252
21458W        W37642   6.875  15.288   5.420  0.0219  0.0669  0.0940
21459W        W37643   8.012   2.071  13.429  0.0920 -0.4822  0.0318
21460W        W37644  13.907   3.298  13.334  0.0287  0.2328 -0.1898
21461W        W37645  15.549  18.856   1.990 -0.0323 -0.1346 -0.2361
21462W        W37646  18.349   2.079   2.970  0.0909 -0.0395 -0.0009
21463W        W37647   6.902  14.673  11.314 -0.1135  0.1121  0.1373
21464W        W37648  12.219  14.671  11.414 -0.3607 -0.3694  0.1104
21465W        W37649  18.051   7.285   3.960  0.1041 -0.3124 -0.0172
21466W        W37650  11.907   4.518  12.306  0.1585  0.3342 -0.0088
21467W        W37651  18.992   4.785   0.829  0.0435  0.0668 -0.0948
21468W        W37652   0.968   1.505  12.495  0.2523  0.1354 -0.1732
21469W        W37653   0.418  12.858  14.165  0.2210  0.1464  0.0033
21470W        W37654  13.441   3.764   3.843 -0.2316 -0.1557 -0.1991
21471W        W37655  12.520   8.735   0.771  0.0845  0.2197 -0.3050
21472W        W37656  14.716  18.940  14.239  0.2155  0.1787 -0.1639
21473W        W37657   0.935   5.700   3.967  0.1985 -0.0088 -0.0377
21474W        W37658  12.005  15.302   9.787  0.3234 -0.0210  0.2021
21475W        W37659  18.341  15.207  10.931 -0.0137  0.3037  0.2653
21476W        W37660  18.303  14.349  11.563 -0.4044 -0.4083  0.0543
21477W        W37661   6.377   8.182   5.844 -0.2162 -0.0792  0.3194
21478W        W37662   9.903  17.910   1.753  0.2368 -0.1030  0.0247
21479W        W37663  10.092   0.395  10.089 -0.1203 -0.0414 -0.2491
21480W        W37664  18.552  14.535   0.372 -0.0332 -0.0446 -0.4616
21481W        W37665   5.395   0.096   1.020 -0.1131 -0.0702 -0.1081
21482W        W37666   2.327   0.103  14.587 -0.0031  0.1231 -0.3758
21483W        W37667   4.493   6.951   0.343  0.0673 -0.1761 -0.2511
21484W        W37668   5.623  10.599   2.383  0.2047  0.2713  0.1386
21485W        W37669   3.651   1.937  13.815 -0.2023 -0.0412 -0.3026
21486W        W37670   3.637  11.060   1.314 -0.1824  0.2486 -0.0775
21487W        W37671   2.387  18.703  12.981 -0.1159  0.0367 -0.5118
21488W        W37672  12.324  19.367  12.590 -0.1426  0.2309  0.0347
21489W        W37673   7.442  12.864   3.204 -0.0986  0.0108 -0.2739
21490W        W37674  10.705  11.705  10.930 -0.1596  0.1033 -0.0008
21491W        W37675  13.139   4.011   2.618 -0.0167  0.2397 -0.0699
21492W        W37676  18.881  13.133   2.097 -0.4367 -0.0493 -0.1461
21493W        W37677   3.884   3.813  11.825  0.0700  0.1927  0.1664
21494W        W37678  10.383  11.091  13.767 -0.3295 -0.2573  0.1744
21495W        W37679   0.952  16.452   1.466  0.3609 -0.0270 -0.1088
21496W        W37680   6.410  13.567   4.967 -0.1050 -0.1469  0.1313
21497W        W37681  11.872   6.145  10.270  0.0846 -0.3199  0.0299
21498W        W37682  10.916  10.055   4.004  0.2981  0.0208  0.0171
21499W        W37683   7.110  14.416  14.067 -0.1214  0.3060  0.0689
21500W        W37684   4.117   8.508  14.496  0.0511  0.1963 -0.2903
21501W        W37685  16.026   6.622  11.576 -0.0096  0.0799  0.0582
21502W        W37686   4.184   8.502   2.079  0.0507  0.1818 -0.1390
21503W        W37687   4.695   4.423   0.578  0.2102  0.0216  0.0731
21504W        W37688  14.019   3.031   3.640  0.1267 -0.3008  0.2114
21505W        W37689   6.128   0.521  13.190  0.0559  0.1558  0.0663
21506W        W37690  11.688  10.093   0.074  0.0180  0.0001 -0.1628
21507W        W37691   8.193   1.452  10.657 -0.1121  0.0614 -0.1623
21508W        W37692   7.615   9.461   2.550 -0.0124 -0.1799  0.1010
21509W        W37693  14.204  12.260   2.262  0.0401  0.0461 -0.2640
21510W        W37694   8.893  18.294  12.136  0.0866 -0.0369 -0.1151
21511W        W37695   0.208   4.346  10.674 -0.2317 -0.1311  0.0550
21512W        W37696   0.616   5.184   2.795 -0.0342  0.2722 -0.0548
21513W        W37697   0.994   7.271   1.976  0.0639  0.1681 -0.1709
21514W        W37698   6.475  14.954  14.531  0.2358  0.0521 -0.0889
21515W        W37699   2.833   4.706   0.006  0.0404 -0.0291 -0.3052
21516W        W37700  13.247   0.402   0.202  0.0032  0.2655  0.0803
21517W        W37701  12.163   4.895   1.934  0.0740  0.1365 -0.1381
21518W        W37702  17.457  19.164   1.506 -0.0466 -0.0686 -0.1444
21519W        W37703   0.873  16.947  14.077  0.0193  0.1645 -0.3284
21520W        W37704  18.506   5.508  10.511  0.0618 -0.0087 -0.1205
21521W        W37705  12.818   8.806   0.001 -0.2167 -0.1782  0.2238
21522W        W37706   0.560  13.840   2.989  0.0445  0.2239  0.0060
21523W        W37707  17.152  17.515  10.512  0.4889  0.2545  0.1287
21524W        W37708  14.739   2.462   1.912  0.0106  0.1820  0.0435
21525W        W37709   0.411   4.770   1.093  0.3414 -0.0392 -0.2698
21526W        W37710  13.970  15.419  13.579  0.4215 -0.1111  0.0026
21527W        W37711  19.026   1.342   4.477  0.1326  0.1315 -0.2004
21528W        W37712  16.185  11.949  14.748  0.1671 -0.2019 -0.1269
21529W        W37713   5.611  12.957  10.563 -0.0061  0.0553 -0.1351
21530W        W37714   7.766  18.307  10.766 -0.2194  0.0320 -0.1539
21531W        W37715   8.841   0.990  12.685  0.1557 -0.0926 -0.3040
21532W        W37716   6.678   7.489  10.984  0.1494  0.0181  0.2086
21533W        W37717  13.072   7.797  12.257 -0.0516  0.1582  0.0280
21534W        W37718   1.782  14.227  12.813  0.2132 -0.0001 -0.1122
21535W        W37719  11.106  14.065  13.312  0.0317  0.6002  0.0240
21536W        W37720   6.602  15.044  12.134 -0.2151 -0.1605 -0.2670
21537W        W37721   4.294   4.295   0.848  0.1857 -0.2601  0.0466
21538W        W37722   4.504  14.149  10.778 -0.1159 -0.1850  0.5158
21539W        W37723   0.648   5.718  11.097 -0.1934 -0.1143 -0.0422
21540W        W37724  17.603  16.642   1.608  0.1660 -0.0910 -0.2149
21541W        W37725  15.924  10.210   2.128 -0.0106 -0.0252  0.0205
21542W        W37726  17.593  16.146  13.748  0.0228  0.3572 -0.2919
21543W        W37727   4.065   8.600   3.487  0.0911 -0.0865  0.3170
21544W        W37728   7.094  13.158   0.379  0.2364  0.1974  0.2041
21545W        W37729  13.366   7.342  12.242  0.2027  0.0855  0.4496
21546W        W37730  10.067   1.187   1.523  0.0511 -0.0719 -0.1741
21547W        W37731   2.686   3.840   1.334 -0.0123 -0.1347 -0.1545
21548W        W37732  14.347   8.832  10.757 -0.0407  0.0107 -0.1115
21549W        W37733   5.207  18.766  11.546  0.1179  0.0750 -0.1868
21550W        W37734   4.649   7.942   6.064 -0.2008  0.1981  0.1179
21551W        W37735   5.282  18.695   4.014 -0.0601  0.0054  0.0367
21552W        W37736   6.570   6.513   4.865 -0.0163 -0.2358 -0.1656
21553W        W37737   8.383  13.317   3.917 -0.1829  0.2792 -0.2696
21554W        W37738   0.057  12.735  13.292 -0.0155 -0.0144 -0.1037
21555W        W37739  11.380   4.542   4.023 -0.3468  0.0383  0.0125
21556W        W37740   4.048   0.860   4.147 -0.0353 -0.2623 -0.1929
21557W        W37741  15.028  18.893   2.990  0.1443  0.0281  0.2928
21558W        W37742  14.110   8.762   3.168 -0.2571 -0.0394 -0.0540
21559W        W37743  17.455   4.065  13.551  0.0329 -0.0427  0.0573
21560W        W37744  18.641  16.142   9.476 -0.1416 -0.3075  0.3889
21561W        W37745  10.645  17.842   1.946 -0.1186 -0.1594 -0.0130
21562W        W37746   3.867  15.910  11.115 -0.0099 -0.0034  0.0614
21563W        W37747  10.097  18.989  10.022  0.0215 -0.0160  0.3851
21564W        W37748   5.386   5.655  13.889  0.1115 -0.2372 -0.3190
21565W        W37749   8.632   4.647   5.159 -0.0315  0.2883  0.2110
21566W        W37750  16.951  16.794   0.204 -0.0459  0.1471  0.2500
21567W        W37751   3.734  15.832   3.434  0.0356  0.0653  0.1915
21568W        W37752   5.205   7.358  11.363  0.0143 -0.0312  0.0454
21569W        W37753  18.205  14.066   1.115 -0.0353 -0.0407  0.1078
21570W        W37754   5.130   1.962   2.582  0.0178 -0.0209  0.0788
21571W        W37755   8.520  15.340   2.470 -0.1870  0.0699  0.1142
21572W        W37756  18.553   7.566   2.828 -0.0777 -0.0256 -0.1729
21573W        W37757   0.652  14.842   2.387  0.3229  0.0421  0.0595
21574W        W37758  12.005  13.861   2.778 -0.0160 -0.1243  0.0135
21575W        W37759  11.523  14.848  12.175  0.0486 -0.3362 -0.2164
21576W        W37760  17.321   1.270   1.936 -0.1895 -0.0552 -0.0622
21577W        W37761   2.591   4.639   5.821 -0.1466  0.0381  0.0022
21578W        W37762   7.661  19.365  10.771 -0.2548  0.0143  0.1469
21579W        W37763   4.104  12.828  14.550  0.2992 -0.2441  0.0835
21580W        W37764   4.752   2.567   4.123  0.1032  0.1394 -0.0005
21581W        W37765  17.042  17.787   2.225 -0.0795 -0.2230  0.4385
21582W        W37766  14.759   0.095   1.221 -0.1671  0.3492 -0.0181
21583W        W37767  14.631   6.600  12.114 -0.1768  0.1467  0.2596
21584W        W37768   5.784  17.448   4.789 -0.2561 -0.2522  0.5493
21585W        W37769  14.802  18.224   4.900 -0.1287 -0.0580  0.1986
21586W        W37770  15.102   3.229   1.581  0.0019  0.1388 -0.1205
21587W        W37771   9.528  13.968   2.423 -0.1299 -0.4061  0.1170
21588W        W37772  17.735  17.259   3.503 -0.2252  0.3246  0.2336
21589W        W37773   1.484  13.684   3.135 -0.0306 -0.1065 -0.1182
21590W        W37774   2.793  11.379   1.984 -0.0699 -0.1561  0.2375
21591W        W37775  12.895   4.858   0.250 -0.0512  0.0839  0.2165
21592W        W37776  17.461   7.102   0.722  0.0127  0.1936 -0.2842
21593W        W37777   2.944  17.973   4.167 -0.1160 -0.0313  0.3937
21594W        W37778   7.306  16.715   0.108 -0.0514 -0.0215  0.0167
21595W        W37779  14.638   1.882  14.489 -0.1734  0.0601  0.2507
21596W        W37780  16.401   5.062  14.233  0.2591 -0.0929  0.1808
21597W        W37781  18.752   5.014   3.525  0.2329 -0.1316 -0.1043
21598W        W37782   0.870  11.035   4.120 -0.1992  0.2674 -0.1212
21599W        W37783  13.889  15.181   4.576  0.0581  0.2306 -0.0862
21600W        W37784   4.382   0.655   2.745  0.2367 -0.2487  0.1632
21601W        W37785  15.428   3.717   2.907 -0.4865  0.2878 -0.3679
21602W        W37786   9.732  11.995  11.760  0.1491  0.1758 -0.0566
21603W        W37787  10.518  13.599   3.932  0.2204  0.3009  0.2628
21604W        W37788   1.305  12.483   4.593  0.4882 -0.0828  0.0324
21605W        W37789   7.363   1.368  13.741  0.0857  0.0213 -0.0158
21606W        W37790  10.132   6.638   3.257 -0.0565 -0.1138 -0.4343
21607W        W37791  17.366  15.634   2.265 -0.0597 -0.2095 -0.1715
21608W        W37792   6.189  13.197   3.281 -0.0558  0.0409 -0.0875
21609W        W37793  11.287   6.667   0.475  0.2439 -0.0765  0.3874
21610W        W37794   3.628  18.331   3.613  0.2435  0.1353  0.1490
21611W        W37795   3.125   9.594  13.601  0.1367  0.0695 -0.2052
21612W        W37796  19.151  18.709   0.352 -0.2264  0.0263  0.0508
21613W        W37797   1.681   8.790   2.399 -0.3481 -0.4386 -0.0212
21614W        W37798   7.131  15.864   5.195 -0.2665  0.0638  0.1369
21615W        W37799   5.616  16.313   1.543  0.4038 -0.2011  0.2141
21616W        W37800  11.682   5.791  11.692 -0.1332  0.1931 -0.1960
21617W        W37801   0.049   6.148  13.778  0.0503  0.1837  0.4752
21618W        W37802  12.780  10.945   2.723 -0.2039  0.0645  0.0444
21619W        W37803   0.184  16.303  10.540  0.2500 -0.3726 -0.1922
21620W        W37804  12.210   4.236  13.491 -0.1425 -0.2833 -0.2689
21621W        W37805  14.354   1.186   2.101 -0.0599 -0.2758 -0.1067
21622W        W37806  14.483   3.711   2.303  0.0316 -0.4907  0.0761
21623W        W37807   9.957  11.761  12.772 -0.5017  0.1353 -0.1732
21624W        W37808   5.150   8.418   3.920  0.2606  0.0950 -0.0085
21625W        W37809   1.500   3.284   2.553 -0.1740  0.2034  0.2128
21626W        W37810  10.199  16.081  12.774 -0.3703 -0.0566  0.4233
21627W        W37811   9.371   5.832   4.629 -0.0846 -0.4296  0.0958
21628W        W37812  15.287  14.458   4.577  0.1386  0.1751 -0.1410
21629W        W37813   2.494   5.569  11.486  0.3130 -0.1388  0.4142
21630W        W37814  17.849   5.194   3.391 -0.1630 -0.1840  0.0462
21631W        W37815   8.363  18.489  12.802 -0.0709  0.0308  0.1810
21632W        W37816   1.336  11.889   0.607  0.2876 -0.1679  0.0105
21633W        W37817   4.085  14.040   2.734  0.1048  0.0221  0.1451
21634W        W37818   0.702  17.429   3.238  0.0891 -0.2202 -0.1637
21635W        W37819   9.765   2.529  13.513  0.1286  0.1442 -0.2665
21636W        W37820  12.438  14.620  13.884  0.3106 -0.0029 -0.0005
21637W        W37821  14.786  15.696   9.055  0.2831 -0.2750  0.1383
21638W        W37822  17.696  10.036  13.593  0.3464 -0.0039 -0.4614
21639W        W37823  14.815  16.876  14.014  0.1563  0.0651  0.1568
21640W        W37824   8.492   6.584  14.910  0.0883  0.1773 -0.0476
21641W        W37825   5.710  14.829   2.124  0.1311  0.2028  0.1160
21642W        W37826   5.459  18.872  13.246 -0.2131  0.1053  0.3716
21643W        W37827  14.760   3.709   3.602  0.0022 -0.0913  0.1590
21644W        W37828  18.409   3.950  12.999 -0.5668 -0.2047 -0.0946
21645W        W37829   0.105  10.624  11.388  0.1404 -0.0928 -0.0144
21646W        W37830  10.916   0.658   1.078  0.0529 -0.0561  0.1243
21647W        W37831   5.005   9.647   5.214  0.1335  0.1311  0.1826
21648W        W37832  10.968   6.915  12.157  0.1585  0.0452  0.1625
21649W        W37833  10.457  13.478  13.975  0.0041 -0.0590 -0.0262
21650W        W37834  16.873  17.277   2.808  0.3936 -0.0717  0.1441
21651W        W37835   9.608   9.656  12.382 -0.0618 -0.0837  0.2827
21652W        W37836   1.404  18.886  12.618 -0.0722 -0.1099  0.3044
21653W        W37837  14.437  16.802  10.671  0.2596 -0.4117 -0.1390
21654W        W37838  12.168   3.415  14.157 -0.1762 -0.0432  0.0144
21655W        W37839  16.774  13.361   0.518  0.1407 -0.0925 -0.2083
21656W        W37840   6.486   8.009   2.858  0.0842  0.0774 -0.4472
21657W        W37841   7.296  10.842  10.035  0.1346 -0.1372  0.4732
21658W        W37842   3.555   2.871  12.421  0.4356 -0.2214 -0.2442
21659W        W37843   8.953   5.999  14.518 -0.0696  0.1501  0.2554
21660W        W37844   5.702   6.256   4.705 -0.2577 -0.2595 -0.1420
21661W        W37845   9.748  14.003   1.105 -0.3254 -0.2414 -0.1058
21662W        W37846   3.820  14.188   4.502  0.4505  0.3168 -0.2274
21663W        W37847  17.301   0.211  14.219  0.0634 -0.1242  0.0816
21664W        W37848  12.940   3.632  10.118 -0.1750  0.2719 -0.0958
21665W        W37849   4.414   3.803   0.975 -0.0428  0.2190  0.1959
21666W        W37850   8.158   2.880   1.955 -0.1946  0.0492  0.0722
21667W        W37851   7.313   3.080   4.494 -0.4801 -0.1730 -0.0492
21668W        W37852  18.141   7.008   4.782 -0.2722  0.0451 -0.3338
21669W        W37853  13.001   3.318   1.369 -0.0945  0.0047 -0.1267
21670W        W37854   6.792  16.537  14.308  0.0958 -0.2016  0.0845
21671W        W37855   4.981  18.740  11.109 -0.3767  0.2971 -0.3244
21672W        W37856  12.538   9.754  12.779  0.1462  0.2202 -0.2761
21673W        W37857  15.380   3.884  14.188  0.0429  0.0326 -0.0486
21674W        W37858   1.046   9.698  14.307 -0.1319  0.0905 -0.2053
21675W        W37859  12.299   2.583  12.081  0.4530 -0.0855  0.2327
21676W        W37860  13.565  13.339   3.782 -0.1504 -0.1292 -0.0813
21677W        W37861   4.601  11.629  14.639 -0.3351  0.2364 -0.2065
21678W        W37862  11.122   8.326   4.825  0.1076 -0.1696 -0.1546
21679W        W37863   8.541   4.160  13.497 -0.0751 -0.3926  0.2038
21680W        W37864   7.662  15.405   1.398 -0.1700 -0.2228 -0.1267
21681W        W37865   7.099  14.476   0.031  0.0814 -0.2878  0.0444
21682W        W37866  14.601   9.112  10.425  0.2411 -0.0286  0.0918
21683W        W37867   8.593   6.922  13.173 -0.0711 -0.1023 -0.0739
21684W        W37868  11.024  19.330  14.868  0.1849 -0.2762 -0.0347
21685W        W37869  10.243   6.861  14.161  0.1240 -0.1094 -0.2084
21686W        W37870   9.809   7.865   2.514 -0.2523  0.2837  0.1083
21687W        W37871  17.495   4.424  13.141  0.3047  0.2699  0.2588
21688W        W37872  12.472  16.778   2.457 -0.3812 -0.0874 -0.0076
21689W        W37873   1.132  15.915   1.218 -0.3226  0.0418  0.2446
21690W        W37874  18.712  14.207   4.683 -0.0326 -0.1758 -0.3881
21691W        W37875   2.664   5.650   2.095 -0.1013  0.1815  0.1335
21692W        W37876   5.971  13.659  12.978 -0.4229 -0.0702  0.0497
21693W        W37877   3.741  14.295   2.956 -0.3046 -0.0858 -0.1896
21694W        W37878  11.521   0.900   4.112  0.0248 -0.2416  0.0031
21695W        W37879   6.137   0.753   1.004 -0.2222 -0.2107 -0.0468
21696W        W37880   0.112   0.014  11.182 -0.2521  0.0671  0.0936
21697W        W37881  13.933   1.121  13.222  0.1599  0.0105 -0.2371
21698W        W37882   6.947  10.701  13.307 -0.1818  0.0558 -0.2594
21699W        W37883   5.864   7.619   2.649 -0.0623  0.0868 -0.0367
21700W        W37884   3.208  12.321   0.343  0.3321  0.0816 -0.0830
21701W        W37885   0.502  16.524  12.207  0.1410 -0.1524  0.2914
21702W        W37886   8.718   0.289   2.744 -0.4179 -0.1639 -0.1644
21703W        W37887  10.299  16.360   0.535  0.1232 -0.2069  0.0132
21704W        W37888  17.088   4.835   0.810 -0.1351  0.0624 -0.1204
21705W        W37889  16.050   8.778  11.367  0.0149 -0.0234 -0.1407
21706W        W37890  14.578   7.656   0.170 -0.0738  0.1018 -0.3502
21707W        W37891   6.568   5.066   1.400  0.2017  0.2435 -0.2022
21708W        W37892  12.714  14.805  14.630  0.0465 -0.2381 -0.3485
21709W        W37893   3.721  18.196   4.114 -0.1364 -0.2027 -0.0964
21710W        W37894   5.458  15.075  13.252 -0.1406 -0.0583 -0.0566
21711W        W37895  13.564  18.996   2.672  0.0616 -0.2086  0.0763
21712W        W37896   0.106   5.207   2.851  0.0594  0.0006  0.0969
21713W        W37897  13.586   9.214   0.663  0.0568  0.0264 -0.2316
21714W        W37898   4.347   8.848  12.942  0.3549 -0.0722  0.3659
21715W        W37899   4.616  16.298  11.019  0.0252 -0.1285  0.4625
21716W        W37900   2.461  16.958  11.268 -0.1822 -0.0465  0.2051
21717W        W37901   6.101   8.009   3.369  0.1535  0.1728  0.1123
21718W        W37902   2.672   9.917   0.610 -0.1359  0.3308 -0.1101
21719W        W37903  19.054  18.628   4.265  0.0529 -0.1525  0.1681
21720W        W37904   1.668   9.085  13.236  0.0085 -0.2110  0.1022
21721W        W37905  18.703  15.537   1.774  0.3060  0.0893 -0.0517
21722W        W37906  11.145  14.424  12.848 -0.0835 -0.1761 -0.2216
21723W        W37907   1.849  18.496   4.470  0.2185  0.0269 -0.1439
21724W        W37908  12.297   6.765   5.315  0.0234  0.1615 -0.3409
21725W        W37909  13.130  13.055   9.941 -0.0859 -0.0980  0.0958
21726W        W37910  13.428  13.419  11.509  0.0605 -0.0340  0.3682
21727W        W37911  18.220   0.790   2.901 -0.0997  0.1188  0.0035
21728W        W37912  13.247   8.235  14.669 -0.1643  0.3401 -0.2762
21729W        W37913   1.501  15.636  11.551 -0.1407  0.3291  0.1908
21730W        W37914  15.189   0.193   4.509  0.1716 -0.0613 -0.1332
21731W        W37915  18.202  12.007  13.541 -0.2927 -0.2458 -0.2192
21732W        W37916   5.525   3.099  12.768 -0.4534  0.0288  0.1114
21733W        W37917   8.476   3.749   4.488  0.1708 -0.1591 -0.3288
21734W        W37918   1.440   4.381  14.755  0.3024 -0.0474 -0.2318
21735W        W37919  12.630   8.934   3.782  0.0700 -0.0777  0.0150
21736W        W37920   4.786   1.480  10.762 -0.3839  0.1774 -0.0576
21737W        W37921   1.772  10.359   2.713 -0.3321  0.0381  0.3612
21738W        W37922   4.152   2.900   3.575 -0.0753  0.0364 -0.1612
21739W        W37923  14.488   3.261   4.544 -0.1686  0.0245  0.1783
21740W        W37924   3.480  16.894  10.923 -0.0671  0.0719 -0.0735
21741W        W37925  13.904  17.447  14.920 -0.1013  0.0858 -0.0298
21742W        W37926   7.469  17.073  14.531  0.1278  0.0519  0.1514
21743W        W37927   9.409  11.721   0.960  0.1411 -0.2495  0.0066
21744W        W37928  14.748   3.331  12.168 -0.0497 -0.3546  0.3852
21745W        W37929   3.238   5.936   1.437 -0.1946  0.1849  0.2101
21746W        W37930  13.471   1.106   2.402 -0.1569 -0.1315 -0.0752
21747W        W37931  15.811   7.838  12.430 -0.0994 -0.2083  0.2715
21748W        W37932   4.169   9.765   2.100 -0.1633 -0.3993  0.2768
21749W        W37933   6.231  18.326  11.344 -0.0438 -0.0351 -0.0347
21750W        W37934   4.010  12.785  13.503 -0.2141 -0.0357 -0.1697
21751W        W37935  11.583  17.572   0.276 -0.0071  0.2284 -0.2203
21752W        W37936  16.519   5.071  12.873 -0.5077 -0.2200 -0.0576
21753W        W37937   2.518   5.249   1.847 -0.0361  0.0846  0.1152
21754W        W37938  18.179  18.481  11.130 -0.0206  0.1766  0.0067
21755W        W37939   8.663  12.636   0.685 -0.0513 -0.1739 -0.0242
21756W        W37940  14.738   2.266   2.393  0.1201  0.1226  0.1128
21757W        W37941  12.686  10.064   4.205 -0.0251 -0.0526 -0.2359
21758W        W37942   7.031  14.981  14.868  0.1228  0.0815 -0.1350
21759W        W37943   8.586   8.138   3.014 -0.3106 -0.3805 -0.0632
21760W        W37944  10.637   3.751   3.137  0.0341  0.0958  0.1367
21761W        W37945   5.825   8.152  14.891  0.2101 -0.1754  0.3917
21762W        W37946  13.150  10.241   3.356  0.0360 -0.2784  0.2949
21763W        W37947   3.907  17.620   4.483 -0.1263  0.2282 -0.0572
21764W        W37948  16.091  13.860   2.258 -0.0475  0.0357 -0.3303
21765W        W37949   7.679  15.986   2.403  0.2344 -0.2917  0.3675
21766W        W37950   3.947  12.215   4.450 -0.0610  0.0444 -0.1520
21767W        W37951  11.472   6.181   0.806  0.2269  0.0516 -0.0018
21768W        W37952   5.067   0.032  11.939  0.2559 -0.3150  0.2144
21769W        W37953  12.282  13.114   9.548  0.0788 -0.2772  0.2517
21770W        W37954   9.574   3.082   1.556  0.2572 -0.2394 -0.1824
21771W        W37955  10.411   6.894   9.427 -0.1250  0.2728  0.1356
21772W        W37956  17.683   5.630  10.193  0.3704  0.1475 -0.1608
21773W        W37957  13.693   3.900   4.630 -0.3593 -0.1639 -0.1050
21774W        W37958  13.143  12.495  11.726  0.1084 -0.1034  0.1798
21775W        W37959   0.328  15.557   5.546 -0.0819 -0.2332 -0.2361
21776W        W37960   2.739  12.473   0.372  0.2002 -0.1676 -0.3037
21777W        W37961   3.859  12.909   4.953  0.0424  0.2648  0.4079
21778W        W37962   4.578   0.740   9.566  0.1707  0.0969  0.1590
21779W        W37963   1.393  13.949  12.399  0.0718  0.2634  0.2230
21780W        W37964   0.567  11.683   3.037  0.1551 -0.0188 -0.2718
21781W        W37965  12.408  19.305  10.625 -0.0364 -0.1478 -0.2979
21782W        W37966  16.542  10.339  12.133  0.2394  0.1558  0.1326
21783W        W37967   3.507  10.544  14.238 -0.0290  0.3758  0.0581
21784W        W37968   3.334  13.193   0.090  0.0514 -0.0637  0.1452
21785W        W37969   2.894  12.567  12.288 -0.0575  0.0576 -0.0039
21786W        W37970   8.158   3.645   1.390  0.0438 -0.1425 -0.3085
21787W        W37971   8.366  10.863   0.672 -0.2777 -0.2057 -0.0707
21788W        W37972  16.537   5.557   5.248  0.2058 -0.1535  0.0282
21789W        W37973  16.341  12.537  11.136  0.4117  0.1401 -0.0490
21790W        W37974   6.210  13.772  13.720 -0.1829  0.2324  0.3262
21791W        W37975   0.082   9.459  14.506  0.0281  0.0847 -0.3652
21792W        W37976   1.539  13.267   1.948 -0.0991 -0.4204 -0.3609
21793W        W37977  15.700  18.867  13.715  0.0514 -0.0030 -0.0334
21794W        W37978   1.964  10.037   3.734 -0.2826 -0.2403  0.0050
21795W        W37979   9.213  18.154   4.692 -0.0782  0.0940 -0.0229
21796W        W37980  18.611  18.746   4.552 -0.0822 -0.2651 -0.1758
21797W        W37981   3.226  11.682   4.879  0.3963  0.0067  0.2925
21798W        W37982   7.769  17.181  12.628  0.1184  0.2058  0.0899
21799W        W37983  12.820  18.446   0.200 -0.0447 -0.0912 -0.1117
21800W        W37984   2.544   2.386   1.708  0.0024 -0.0482 -0.2291
21801W        W37985  13.655  16.218  12.241 -0.2695  0.3050 -0.0095
21802W        W37986   2.617  17.139  14.818 -0.1240  0.2903 -0.0272
21803W        W37987   9.064   4.339   2.457  0.1890  0.1870 -0.1530
21804W        W37988  11.652   3.615  11.765  0.1326 -0.0406  0.0777
21805W        W37989   3.006  16.990   2.716 -0.1024  0.3587  0.1344
21806W        W37990   1.204   3.927  11.376 -0.2510 -0.1620  0.0846
21807W        W37991  12.968  16.097  13.670 -0.1361 -0.0612  0.2085
21808W        W37992   1.430   4.061   0.164  0.1307 -0.1723 -0.1530
21809W        W37993   3.115  18.474  10.855  0.1406  0.2115  0.0921
21810W        W37994   3.477  12.023   3.470  0.4205  0.4360 -0.2863
21811W        W37995  13.635  10.424  12.085  0.0786  0.4078 -0.1509
21812W        W37996   6.793   0.875   1.790 -0.4499 -0.0583 -0.2382
21813W        W37997  11.633   9.955  11.274  0.3637 -0.0596 -0.1755
21814W        W37998  14.195  15.808  13.313  0.2476  0.0850 -0.3382
21815W        W37999  18.182  19.124  14.208  0.1426 -0.4497  0.2820
21816W        W38000  14.803  12.019   4.527  0.0405  0.1139  0.0617
21817W        W38001  15.821   9.146  10.499 -0.0127  0.2591  0.0113
21818W        W38002  14.953  12.796  12.730  0.1717  0.2389 -0.0141
21819W        W38003  12.621  14.014   0.644  0.1892 -0.3283 -0.0923
21820W        W38004   7.620  11.237  11.939 -0.0567 -0.0647  0.0404
21821W        W38005  14.677   6.679   0.655 -0.3052 -0.2321  0.0533
21822W        W38006   8.890  17.884   1.401  0.0447  0.1491 -0.0579
21823W        W38007  12.153   5.719  10.175 -0.3171  0.0112 -0.0513
21824W        W38008  13.715  12.174  14.222  0.2129 -0.2147 -0.0279
21825W        W38009   1.545  15.310  11.951 -0.0505 -0.0182  0.3967
21826W        W38010   0.433   3.110   5.093  0.0044  0.1422  0.1173
21827W        W38011   5.504  15.769   2.865  0.0059  0.1305  0.0842
21828W        W38012   3.609   5.467  14.006  0.2590  0.1516  0.2942
21829W        W38013  13.424  12.342  10.700  0.1009 -0.1295  0.1928
21830W        W38014  15.892   6.348  13.669 -0.1067  0.0315  0.3697
21831W        W38015   6.543  12.808  13.866  0.0678 -0.0526  0.0465
21832W        W38016   9.270  14.202   0.936 -0.2527 -0.0061  0.0189
21833W        W38017   7.822   4.721   1.108 -0.0735  0.3796 -0.1733
21834W        W38018   4.116  16.425   4.464  0.1911  0.0400 -0.3214
21835W        W38019  17.619   3.004  10.214 -0.1682  0.2696 -0.0582
21836W        W38020   8.898   1.399   4.132  0.0463 -0.0006  0.1661
21837W        W38021  15.505  18.332   1.526 -0.2798 -0.0586 -0.0227
21838W        W38022   3.114  12.898   1.213  0.2066 -0.0547 -0.1011
21839W        W38023   9.521   1.734   2.611 -0.1449  0.3225  0.2219
21840W        W38024   9.407   8.484  10.863  0.3612 -0.2142 -0.1909
21841W        W38025  14.512  10.376   3.177  0.0976 -0.0381  0.0642
21842W        W38026  17.113   8.556  14.812  0.2735  0.1569 -0.1632
21843W        W38027   0.754   1.133   1.856  0.1912 -0.0800  0.0670
21844W        W38028   2.453  10.256   3.611 -0.2199  0.1978  0.1995
21845W        W38029   4.470   3.433   3.925 -0.3221 -0.4010 -0.1641
21846W        W38030  16.423   6.183  14.839  0.3318 -0.1860  0.0601
21847W        W38031   7.706   7.868   2.795  0.3650 -0.2171 -0.2797
21848W        W38032  19.245  14.583  12.754 -0.0122  0.1173  0.0604
21849W        W38033  15.358   8.959   4.147  0.2390 -0.0982  0.1481
21850W        W38034   3.567  15.166  12.207  0.2957 -0.2944  0.0944
21851W        W38035   7.203   7.365  12.500 -0.1473 -0.3081  0.2833
21852W        W38036  10.406  18.631  14.691  0.4367 -0.0889  0.1412
21853W        W38037  15.465  17.084  13.301 -0.0987  0.0194 -0.2304
21854W        W38038  16.830  10.183   2.890  0.2820 -0.2248  0.0929
21855W        W38039  14.842  16.549  14.874  0.1310  0.2778 -0.1703
21856W        W38040  10.815   8.325   9.793 -0.1838  0.1327 -0.2866
21857W        W38041   4.677  16.338   0.392  0.3823  0.0859 -0.1921
21858W        W38042   4.474  14.274  14.576 -0.2915 -0.1998 -0.1216
21859W        W38043  13.242   7.246   2.384 -0.4843  0.4496 -0.1696
21860W        W38044  14.593   5.975  13.356  0.2910 -0.2685  0.4549
21861W        W38045   8.652   1.990   1.094  0.3772 -0.0371  0.0174
21862W        W38046   3.771  15.729  12.152 -0.3449 -0.3922  0.1252
21863W        W38047  19.221  10.579  13.469  0.3191  0.3273  0.0108
21864W        W38048  11.885   9.192   4.186  0.1416 -0.2217  0.0503
21865W        W38049   4.380  15.120   3.372 -0.1064  0.0713 -0.3548
21866W        W38050   0.724   1.048  12.542  0.1004  0.1500 -0.0429
21867W        W38051   1.767   7.016   5.673 -0.0124  0.2731  0.0228
21868W        W38052   4.545  16.780  10.578 -0.1409  0.0765 -0.0750
21869W        W38053  16.575  11.358   5.213 -0.0087 -0.0638 -0.1349
21870W        W38054   7.086   9.300  13.729  0.1586  0.1555  0.1335
21871W        W38055  18.546  16.997   3.650 -0.0606 -0.0372  0.0067
21872W        W38056   9.226  11.596  12.094 -0.2482  0.0510 -0.1017
21873W        W38057   9.668   9.408  10.624 -0.0613  0.0528  0.0499
21874W        W38058   5.072   4.856  13.019  0.1116 -0.0432  0.0658
21875W        W38059   3.951   0.393   4.519  0.1560  0.3220  0.1184
21876W        W38060   3.647  13.793   2.768 -0.1769  0.2330  0.1324
21877W        W38061   2.768   6.458  14.153 -0.1601  0.0249 -0.2102
21878W        W38062   9.103  12.208  14.682 -0.2487  0.2040 -0.1864
21879W        W38063   4.427  17.172   0.927 -0.0827 -0.3593  0.2809
21880W        W38064   0.121  17.228  10.872  0.0780 -0.0783  0.1991
21881W        W38065  16.794  12.282  13.885 -0.0323 -0.1412  0.1403
21882W        W38066   7.517   9.341   9.982  0.1890  0.2797 -0.3002
21883W        W38067  16.577  12.119  11.845 -0.2355  0.3143 -0.1438
21884W        W38068  10.443  17.771  10.563  0.1215 -0.0029  0.0409
21885W        W38069  14.809  11.363  10.804 -0.0368  0.0000  0.5342
21886W        W38070  13.327  10.019  12.151 -0.0125  0.0670 -0.1066
21887W        W38071   3.522  10.276   3.380 -0.0790  0.0565 -0.1108
21888W        W38072   8.795  17.829  13.575  0.1568 -0.0197 -0.1596
21889W        W38073  13.000  18.853   0.496  0.2083 -0.0003 -0.1544
21890W        W38074   8.409  10.287   1.410 -0.1795  0.0521  0.0336
21891W        W38075   2.634   2.950   2.471  0.1044  0.2195 -0.2099
21892W        W38076   9.449  16.652   3.527 -0.0873 -0.2280  0.0321
21893W        W38077   3.726  15.141  12.802 -0.2988 -0.1639  0.0831
21894W        W38078   1.986  12.312  12.696  0.3336 -0.2774 -0.3472
21895W        W38079   1.777   9.593   0.498  0.2536  0.0599 -0.1544
21896W        W38080   0.616   6.430   1.323 -0.1038 -0.0234  0.0268
21897W        W38081   3.071  14.825   2.648  0.0298  0.1809  0.0504
21898W        W38082   6.369   5.511   1.404  0.1750 -0.0541 -0.1609
21899W        W38083   2.268   8.814  10.604 -0.1382 -0.4186  0.1499
21900W        W38084  11.261   1.353  11.377 -0.5139 -0.1998 -0.4283
21901W        W38085   2.546   6.238  12.649  0.0977  0.0975 -0.0543
21902W        W38086   7.432  13.416   4.889 -0.2114 -0.0469 -0.0434
21903W        W38087  16.990   6.530  13.719  0.1132 -0.1869 -0.1870
21904W        W38088  15.066   3.969  12.066  0.0094  0.2825 -0.0677
21905W        W38089   7.656   8.376  10.659 -0.3568  0.1059  0.3173
21906W        W38090   4.133  19.105  11.219  0.3401 -0.1430  0.0923
21907W        W38091   4.933  18.408   3.027 -0.0113  0.3635  0.0011
21908W        W38092  19.215  15.123  14.225 -0.2368 -0.0545  0.0751
21909W        W38093  14.018   4.282   1.461 -0.3614 -0.2072  0.2521
21910W        W38094  14.004  18.000   3.588 -0.0131  0.0422  0.1762
21911W        W38095   6.315   3.652  14.289 -0.0105  0.1555 -0.1783
21912W        W38096   5.920  16.967  11.967 -0.2539 -0.1255  0.1142
21913W        W38097  18.973   4.312   0.211  0.0833  0.3356 -0.0186
21914W        W38098  10.075  13.111  14.049  0.0288  0.0607 -0.1348
21915W        W38099  15.908   4.276   4.475 -0.3140 -0.1767 -0.1898
21916W        W38100  14.189  13.527   8.918  0.0959  0.0559  0.1065
21917W        W38101  11.042  18.009   1.705 -0.1097 -0.0244 -0.2187
21918W        W38102   7.625  14.392   1.266  0.3683 -0.0407 -0.0813
21919W        W38103   4.570   5.185   4.077  0.1012  0.2075 -0.2914
21920W        W38104   7.357  18.159   0.640  0.0868 -0.0780 -0.3316
21921W        W38105  11.528   5.494   4.101 -0.0672 -0.0849 -0.0276
21922W        W38106  17.832   8.697  13.674  0.4348 -0.4024 -0.1240
21923W        W38107  15.988  15.383   3.952 -0.0868  0.1413 -0.1847
21924W        W38108   8.210  19.062  12.981  0.1298  0.2582 -0.4564
21925W        W38109  14.076  18.066  13.379 -0.2232  0.3000 -0.1182
21926W        W38110   7.515  13.922   2.692 -0.0051  0.1347 -0.0002
21927W        W38111  18.260  14.475   3.643 -0.0839 -0.2262  0.2354
21928W        W38112   0.771  17.768  13.446 -0.1135  0.0619 -0.3274
21929W        W38113   1.674  15.287   2.066  0.1144 -0.0870  0.2087
21930W        W38114  12.977  18.862  10.620  0.1681  0.0785  0.1120
21931W        W38115   4.253   2.558   2.369 -0.1004 -0.2496 -0.1252
21932W        W38116  13.833  12.436  11.251 -0.0503  0.3025 -0.3158
21933W        W38117  12.189  14.341  12.735 -0.1613  0.2103  0.2659
21934W        W38118   6.139  18.318   4.811 -0.1697  0.3374 -0.0465
21935W        W38119   1.528   8.290  12.210  0.2486 -0.0723 -0.1122
21936W        W38120  15.253  11.857   0.157  0.2770 -0.1384 -0.1573
21937W        W38121   0.082  10.981   4.284 -0.2309 -0.0267 -0.0556
21938W        W38122   6.307  15.520   2.766  0.2697 -0.0921 -0.1824
21939W        W38123   5.009   9.385  13.423 -0.2689  0.1347 -0.0387
21940W        W38124   0.617   5.688   3.274 -0.0490  0.0037 -0.0585
21941W        W38125   9.864  16.079   2.324 -0.0973  0.0753  0.1773
21942W        W38126  17.980   4.313   3.721 -0.1629  0.1586  0.1262
21943W        W38127  13.214   8.124  14.125 -0.2153 -0.3701 -0.0465
21944W        W38128   5.606   9.229   1.590 -0.1368 -0.0739  0.1453
21945W        W38129  15.743   1.850  10.464  0.1186  0.1186  0.1801
21946W        W38130  12.113  14.957  14.190  0.0446 -0.3303 -0.1368
21947W        W38131   3.919  15.878  13.388  0.0496 -0.3458  0.0714
21948W        W38132   9.033   0.818  10.703  0.0638 -0.0480  0.1118
21949W        W38133  10.559  11.159   1.862 -0.2789 -0.0781 -0.2068
21950W        W38134   5.842   3.187  12.357  0.0869 -0.1753  0.0700
21951W        W38135   7.300   3.370   2.577 -0.1184  0.3488  0.2172
21952W        W38136   1.884  11.965   5.191  0.0888  0.0256 -0.0065
21953W        W38137   1.847  16.167  12.409 -0.0987 -0.2464 -0.2553
21954W        W38138  17.106  12.038  10.709  0.1432  0.1966 -0.1267
21955W        W38139  16.850   0.931  12.251 -0.1412  0.0805 -0.1604
21956W        W38140   6.849   7.988  10.930 -0.1247  0.2644 -0.1061
21957W        W38141   5.959  14.449   3.149 -0.1500 -0.4499 -0.2097
21958W        W38142  12.970  15.048   5.519 -0.0781 -0.3686 -0.1379
21959W        W38143   6.087   6.173  10.640  0.2886 -0.3671  0.0556
21960W        W38144  15.599   6.399  11.006  0.1218 -0.2514  0.1944
21961W        W38145  16.134   7.673  11.992  0.2505  0.2646  0.1087
21962W        W38146  14.301   7.300  14.882 -0.3081  0.0419 -0.3650
21963W        W38147   3.997   5.708   2.471 -0.0045  0.0156 -0.1556
21964W        W38148  15.996   4.585   0.550 -0.4251  0.1219 -0.0197
21965W        W38149  14.188  10.108   1.216  0.0035 -0.2582 -0.1230
21966W        W38150   6.613   8.979   1.473  0.1736 -0.5147  0.3529
21967W        W38151  16.436  15.152   5.070 -0.0591  0.1834 -0.1117
21968W        W38152   2.587  17.435  11.504 -0.0582 -0.0055 -0.1290
21969W        W38153   1.108   9.714   3.339 -0.1147 -0.0777  0.1759
21970W        W38154  11.848  12.022  10.656 -0.4583  0.3198  0.3174
21971W        W38155   2.306   1.334   3.759  0.0362  0.6404 -0.2447
21972W        W38156   4.707   7.221   4.778 -0.1910  0.2035  0.0435
21973W        W38157  13.793   9.536  12.063  0.0285 -0.0006  0.2768
21974W        W38158   4.405   1.948  14.565  0.2129  0.1177  0.1935
21975W        W38159   0.257   8.333   2.525  0.2175 -0.1142 -0.2426
21976W        W38160   3.004  10.100   1.701 -0.1858 -0.0465 -0.1196
21977W        W38161   5.596  19.072  14.101 -0.5153 -0.2394 -0.0902
21978W        W38162   3.901   9.203   2.157 -0.1245  0.1360  0.3993
21979W        W38163  18.464  18.107  11.311 -0.1485  0.1785  0.0669
21980W        W38164   9.077  16.804  12.919 -0.1360  0.0047  0.2464
21981W        W38165   9.639   2.004   0.663 -0.1454 -0.2057  0.1282
21982W        W38166  14.528   4.842   2.906 -0.0107  0.2704  0.4355
21983W        W38167   7.903   7.395  11.025 -0.2970 -0.0970 -0.2050
21984W        W38168   2.634  11.697  11.024 -0.0194  0.2740  0.1150
21985W        W38169  12.156  15.197  12.993 -0.0497 -0.3205  0.0392
21986W        W38170  13.977  18.153   4.500  0.0466 -0.2049 -0.1206
21987W        W38171   7.077   7.076  13.313  0.1347 -0.1244 -0.0504
21988W        W38172   7.933  10.061   3.411  0.1370  0.1058  0.0768
21989W        W38173   9.849  14.848  11.462 -0.0610  0.0987 -0.0259
21990W        W38174   4.882   0.295   4.438  0.0982  0.2951  0.2296
21991W        W38175   4.897   1.609   4.064 -0.0215  0.0069  0.1232
21992W        W38176  10.030  17.830  10.194  0.0692  0.0379 -0.3832
21993W        W38177  15.000  12.398   2.778  0.0295 -0.1607  0.0759
21994W        W38178  15.337   4.986  12.305  0.2235  0.2195 -0.0938
21995W        W38179  11.797   2.583  11.286 -0.0646 -0.0131  0.0329
21996W        W38180  17.766  14.367  11.829  0.4784 -0.2573  0.0599
21997W        W38181  12.243   7.437   3.875 -0.1250 -0.5671  0.0121
21998W        W38182   8.839  12.353   2.605  0.3077 -0.0522  0.1135
21999W        W38183   6.309  16.719  10.205 -0.2903 -0.2624  0.0733
22000W        W38184  15.969   3.346  11.620 -0.0671 -0.1150  0.2928
22001W        W38185   3.994  17.796   4.012 -0.0558 -0.0382 -0.2120
22002W        W38186   2.670   4.414   2.910 -0.0872  0.0595  0.0147
22003W        W38187  14.840   2.920  14.563 -0.2312  0.2431  0.0587
22004W        W38188   4.782   8.013   4.849  0.0259 -0.3515 -0.1721
22005W        W38189   7.712  13.544   1.076  0.1285 -0.0423  0.2807
22006W        W38190  11.634  10.313  12.641 -0.1243 -0.0932 -0.0170
22007W        W38191  19.247   8.813   4.078  0.0624 -0.0237 -0.1893
22008W        W38192   3.685   2.199   1.542  0.2577  0.0613 -0.0695
22009W        W38193  16.727   5.456  10.485  0.0579 -0.1201  0.1121
22010W        W38194  15.445  14.371   9.952 -0.2206 -0.0115 -0.0828
22011W        W38195  19.254   6.864  10.859  0.0177  0.5821  0.2578
22012W        W38196  13.108  10.599   4.523  0.0655  0.2790  0.1967
22013W        W38197   3.697  13.543   0.745  0.0101 -0.1216  0.1288
22014W        W38198   4.303   5.401  11.478  0.3074  0.1693  0.0894
22015W        W38199   4.993   4.058   0.076 -0.0612  0.0817  0.2463
22016W        W38200   5.961  14.014   0.924 -0.3182 -0.1960  0.0402
22017W        W38201  17.970   8.423   0.865 -0.1527  0.1633  0.1235
22018W        W38202   8.889  19.382   9.847  0.0761 -0.3661 -0.3043
22019W        W38203   6.581  16.363   0.591 -0.1910  0.0146 -0.2114
22020W        W38204   6.453  16.591   3.683 -0.0010 -0.7396 -0.2530
22021W        W38205  17.411   8.058   4.131  0.1038  0.1773 -0.2120
22022W        W38206  10.574  11.635  12.957  0.2048  0.0777 -0.1018
22023W        W38207  17.079  12.922  14.838  0.0876 -0.1529 -0.2300
22024W        W38208  11.768   3.800   4.722 -0.1705 -0.1617 -0.2341
22025W        W38209   3.005  15.162  11.825  0.0848 -0.2619 -0.3432
22026W        W38210  13.591  11.731   1.510  0.1470  0.0099  0.2962
22027W        W38211  18.633  12.149   4.200  0.0837 -0.2339 -0.0549
22028W        W38212  11.142  11.751   4.703 -0.0093 -0.0283 -0.1771
22029W        W38213  11.006  11.922   2.221 -0.1900  0.0501 -0.0296
22030W        W38214  18.966   0.740   0.079 -0.0186 -0.2187  0.2128
22031W        W38215  13.044  12.228  13.522 -0.0358 -0.0327  0.0764
22032W        W38216   2.383   6.647   1.596  0.0531  0.0385 -0.1909
22033W        W38217  19.317   6.955   0.731 -0.0291 -0.0475 -0.0001
22034W        W38218   2.921   3.719  11.565 -0.2695  0.1830 -0.1150
22035W        W38219   1.021  10.745   2.042  0.0750  0.1988  0.1105
22036W        W38220   6.506  14.269   1.213 -0.4912 -0.1187  0.1347
22037W        W38221   5.372  15.629  14.081  0.1223 -0.2165  0.2174
22038W        W38222   8.474  12.791  13.466  0.0232 -0.0209  0.0618
22039W        W38223  16.591  12.939   3.101 -0.1529  0.0468 -0.1349
22040W        W38224  18.531  18.570   1.280 -0.0375 -0.0706  0.1087
22041W        W38225  10.800  12.733  13.424 -0.1384  0.1854 -0.1046
22042W        W38226  12.200  17.269  14.072  0.0779  0.1049  0.0266
22043W        W38227  12.639   5.430   4.698  0.1623  0.2140  0.1844
22044W        W38228   8.468  12.868   4.150 -0.2550 -0.0239  0.1533
22045W        W38229   8.554   2.824   2.227  0.1935  0.1363 -0.1439
22046W        W38230   6.324   2.058  11.584 -0.1362  0.0451 -0.0245
22047W        W38231   9.574  14.314  11.216  0.2092  0.2688 -0.1979
22048W        W38232   6.311  10.611  12.702 -0.0177  0.2298  0.0460
22049W        W38233   3.441  15.483  11.859  0.0483 -0.2878  0.1575
22050W        W38234  14.828  10.059   1.951 -0.3611 -0.2715 -0.2934
22051W        W38235   4.815  12.422   2.103  0.1235 -0.0634  0.0324
22052W        W38236   8.451  16.446   2.776 -0.3024 -0.3322  0.0820
22053W        W38237  18.527  16.039  13.271 -0.0645  0.0045  0.0035
22054W        W38238   9.451  12.454   4.219 -0.0878  0.2641  0.0092
22055W        W38239  18.715   8.332  13.461 -0.0100  0.0535 -0.0942
22056W        W38240   1.011  12.901  12.134  0.0485  0.1332  0.2171
22057W        W38241  10.961   8.295  14.329 -0.1077  0.0282 -0.0742
22058W        W38242   4.970   1.476   0.360  0.1439 -0.3041 -0.3590
22059W        W38243  10.167   7.072  13.138  0.0645 -0.2265 -0.0222
22060W        W38244   9.577   4.604  11.561  0.2030 -0.2539  0.1726
22061W        W38245  15.153   5.770   4.036 -0.0117 -0.1353 -0.1603
22062W        W38246  10.936   3.712  12.590 -0.2846  0.0975  0.2397
22063W        W38247   8.810   9.147   3.084 -0.1491  0.5130  0.2390
22064W        W38248   1.140   4.781   1.494 -0.2743 -0.1506 -0.1761
22065W        W38249  17.335  17.846   4.030  0.2406  0.0826 -0.1903
22066W        W38250  17.051   0.488   3.963 -0.4980 -0.1166 -0.0054
22067W        W38251   1.779  16.941  14.037  0.2148  0.1133 -0.1870
22068W        W38252  17.173  18.227  14.699  0.1757  0.2175  0.0856
22069W        W38253   7.809   6.627  11.858  0.2299  0.0839 -0.1253
22070W        W38254   9.856  17.462   3.024  0.2378 -0.2589 -0.2185
22071W        W38255  15.232  12.636   4.041  0.0016 -0.1991  0.3028
22072W        W38256  11.298   9.163  11.589  0.2644 -0.0814  0.2121
22073W        W38257   4.849   7.809   2.255 -0.0022 -0.1583  0.3519
22074W        W38258  17.016  15.771  11.088  0.4042 -0.1044  0.3731
22075W        W38259  18.535  16.603  13.025 -0.1840  0.3748  0.0329
22076W        W38260   3.133   8.387   2.553  0.2644  0.2905 -0.0841
22077W        W38261   9.903   1.627  13.552 -0.0680  0.2930 -0.0072
22078W        W38262   3.995   9.149   4.555  0.0791  0.1103 -0.0908
22079W        W38263  16.852   4.505   4.299 -0.1454  0.0683  0.0428
22080W        W38264  10.192   6.462  11.788  0.0493 -0.0813 -0.0840
22081W        W38265  14.182   7.825  14.850 -0.2823 -0.0031  0.0465
22082W        W38266   9.266   5.638   5.643 -0.0779 -0.2670 -0.1004
22083W        W38267  16.573  14.403   1.592 -0.0267  0.2944 -0.1180
22084W        W38268  10.829  17.028   0.685 -0.1720  0.2190  0.0730
22085W        W38269  16.553  10.954  13.641 -0.1676 -0.0578 -0.0632
22086W        W38270  12.774   9.548  13.167  0.0178  0.2575 -0.0289
22087W        W38271   9.154  17.902  11.865  0.0942  0.0088  0.1140
22088W        W38272  18.912   8.793   2.098 -0.2245  0.0093 -0.2680
22089W        W38273   9.662  10.850   1.297  0.2987 -0.2923  0.0531
22090W        W38274  10.260   6.912   3.712  0.0874 -0.0374  0.2225
22091W        W38275   8.046  11.056  12.866  0.0810  0.2036 -0.0440
22092W        W38276  19.201   5.554   4.657 -0.2198 -0.0476  0.0978
22093W        W38277   6.487   9.972   5.910  0.1925 -0.2460 -0.0618
22094W        W38278   8.262  16.502  11.895 -0.1230  0.0031  0.4407
22095W        W38279   4.286  17.601  13.636 -0.1128 -0.0774  0.2919
22096W        W38280   8.124  17.879  11.553 -0.2831  0.0586  0.0487
22097W        W38281   5.482   5.988  12.300  0.0514  0.0042 -0.2562
22098W        W38282  15.412   5.824   5.173  0.3594  0.2924  0.0413
22099W        W38283   1.336   2.379  12.633  0.1609 -0.1164 -0.3202
22100W        W38284  12.944  13.727  11.770 -0.0986 -0.0375 -0.0834
22101W        W38285  17.425   1.377  14.682 -0.1084  0.2486  0.3950
22102W        W38286   2.189   5.296   4.701  0.0039  0.0952 -0.0044
22103W        W38287   8.939   8.986   4.360  0.1448  0.2987  0.0435
22104W        W38288  16.118   0.436  14.813  0.0188  0.0645  0.1119
22105W        W38289   3.482   6.935   1.919 -0.1920 -0.1603 -0.0511
22106W        W38290   4.372   4.959   2.421 -0.0763 -0.2055 -0.1550
22107W        W38291   0.742  12.091  12.300  0.0559  0.2211 -0.3371
22108W        W38292   7.422   6.174  12.879 -0.3294 -0.2240  0.0430
22109W        W38293   4.336  13.478   3.369 -0.2401 -0.2933  0.0101
22110W        W38294  18.456  17.328   3.971  0.1393 -0.0957  0.2653
22111W        W38295  13.330   3.058   5.133 -0.1846  0.3420  0.3512
22112W        W38296  13.536   1.678  10.927  0.3054  0.0511 -0.1737
22113W        W38297   1.512  11.503   1.017  0.0396  0.1165 -0.0825
22114W        W38298   0.196  14.224   3.112 -0.2906 -0.2165  0.0172
22115W        W38299  11.792  11.812  14.170 -0.0566 -0.0116  0.4566
22116W        W38300  17.769  14.624  11.427  0.2850 -0.1429 -0.1587
22117W        W38301  18.747   4.730   4.402  0.1545 -0.1127  0.2492
22118W        W38302   8.139   9.261   4.115 -0.2196 -0.0573  0.1624
22119W        W38303  12.786   1.830  10.400  0.0515 -0.1455 -0.0642
22120W        W38304   4.737   7.644   4.431 -0.2089 -0.1929  0.3436
22121W        W38305  17.000  10.641   2.748  0.0086  0.0823  0.0555
22122W        W38306   7.657  15.184  12.178  0.5386 -0.0067  0.0475
22123W        W38307   7.406   3.715  14.005 -0.1421  0.0551 -0.1091
22124W        W38308   8.400  15.001  13.709 -0.1357  0.0756 -0.0616
22125W        W38309   0.176  16.093  13.644 -0.0694  0.1797 -0.3849
22126W        W38310  15.328  11.801   2.696  0.1990 -0.1425 -0.2891
22127W        W38311  18.744  15.225   4.491  0.2493 -0.3690 -0.2943
22128W        W38312   4.693   9.272   2.636 -0.1440  0.4774 -0.2646
22129W        W38313  16.634   3.481   3.485 -0.1776 -0.3395 -0.1767
22130W        W38314   2.508   5.888   0.941 -0.3530  0.0670  0.3568
22131W        W38315  13.446   0.148  13.180  0.1168 -0.0952  0.0288
22132W        W38316  12.141  19.161   0.123 -0.2756 -0.3416  0.1843
22133W        W38317  14.494  18.170  13.903  0.0497 -0.3327 -0.1320
22134W        W38318   7.418  16.571   8.877 -0.0180  0.1063  0.1321
22135W        W38319  15.078   1.419  11.239  0.1300  0.0888 -0.0516
22136W        W38320  14.010  15.876  13.886 -0.1035 -0.1758 -0.0956
22137W        W38321   6.537   5.346  10.951  0.0698  0.0273 -0.1601
22138W        W38322  10.070  13.606  13.187 -0.1019 -0.3229  0.1375
22139W        W38323   8.550  10.470   4.159 -0.0345  0.0917 -0.0356
22140W        W38324   5.580  13.923  13.933 -0.0458 -0.0004  0.1084
22141W        W38325   4.820  12.026   6.026 -0.3135 -0.0315 -0.2086
22142W        W38326   3.221   7.840  12.998 -0.0679 -0.2319 -0.0051
22143W        W38327  17.014  15.310   0.620  0.0409 -0.0109  0.0835
22144W        W38328  13.589  14.614   5.281 -0.0445 -0.1025  0.3586
22145W        W38329  16.874  14.063   3.641  0.2611  0.1956 -0.3759
22146W        W38330   4.940   5.731   1.491 -0.0925  0.0608  0.0277
22147W        W38331   9.652  18.767   4.781 -0.1716  0.2110 -0.0985
22148W        W38332   1.980  11.725   1.124  0.0677  0.0237 -0.3611
22149W        W38333   1.272   2.878  10.790 -0.0912 -0.0976 -0.1977
22150W        W38334  11.675  12.030   2.753 -0.0686  0.2053  0.0112
22151W        W38335  14.061   4.012  12.913 -0.0138 -0.3082  0.2314
22152W        W38336   4.395   1.876  10.482 -0.1760 -0.1723 -0.0100
22153W        W38337   2.636  10.980  11.323 -0.0591 -0.0168  0.0314
22154W        W38338   2.144   7.502   2.944 -0.0692  0.0590 -0.2581
22155W        W38339   0.121  14.050  12.208  0.3853 -0.1205 -0.1294
22156W        W38340  14.244   1.121   2.851 -0.1554 -0.2390 -0.5335
22157W        W38341  19.344   7.123   2.779  0.0333  0.0455 -0.4008
22158W        W38342  13.676   8.604   9.482 -0.1164  0.3240  0.1969
22159W        W38343   8.471  17.449   1.476 -0.0885  0.4018  0.1971
22160W        W38344  15.918   2.996   0.551  0.0405  0.1006 -0.0202
22161W        W38345   2.756  11.672   0.863 -0.3817 -0.0389  0.0128
22162W        W38346  13.815  17.321  10.153  0.0425  0.0543  0.0731
22163W        W38347  10.626  15.303  11.479 -0.1253  0.1749  0.4376
22164W        W38348   4.111   8.863   0.261 -0.1471  0.2014 -0.1910
22165W        W38349   6.170   9.518   2.751  0.1604 -0.4458 -0.1338
22166W        W38350  15.704   6.192  11.460  0.0232  0.0123  0.0372
22167W        W38351   8.647  17.800  10.387 -0.0965 -0.1220  0.4829
22168W        W38352  12.201   9.454  14.253  0.2454  0.1478  0.2656
22169W        W38353   5.571   1.537   0.409 -0.1762 -0.1008  0.2687
22170W        W38354   2.284   7.557  14.257  0.1036 -0.0624 -0.0707
22171W        W38355  17.115  13.718  13.054  0.0271  0.3294 -0.2596
22172W        W38356   3.111   3.328   5.493 -0.3035  0.1971  0.3122
22173W        W38357  18.580   7.944   0.888 -0.1178  0.1307  0.1366
22174W        W38358   8.480  14.203   3.514 -0.1056 -0.0343 -0.2314
22175W        W38359   2.958   4.518   1.425 -0.0633  0.1122  0.0639
22176W        W38360   7.531  18.888   3.900 -0.0968 -0.1249 -0.1845
22177W        W38361   3.849  18.771   1.995  0.0205  0.0997 -0.0269
22178W        W38362  12.946   5.319  13.958 -0.0268 -0.0094 -0.1436
22179W        W38363   6.415   0.963   1.474  0.4775  0.0246 -0.0186
22180W        W38364  16.980   0.893  10.582 -0.0537 -0.3344 -0.2557
22181W        W38365   9.023   1.180   0.049  0.2358  0.1966 -0.0428
22182W        W38366   9.340  14.259   2.789  0.1318 -0.0809 -0.2369
22183W        W38367  19.357   8.809  12.213  0.1751  0.3825 -0.1013
22184W        W38368  13.763  14.546   0.022 -0.2779 -0.0988 -0.0683
22185W        W38369  16.739   9.054   0.665  0.1595 -0.0584  0.0808
22186W        W38370  15.540   5.330   5.087  0.2319  0.0265  0.0680
22187W        W38371  16.054  17.748   2.690  0.0814  0.1384 -0.2187
22188W        W38372  19.366  12.173   4.803 -0.2117 -0.1994  0.0496
22189W        W38373  11.312  12.106  13.896  0.1201  0.1392  0.0894
22190W        W38374  10.737  13.432   2.989 -0.2703  0.1234  0.0706
22191W        W38375   0.870   6.697   0.947  0.2060  0.0277  0.1027
22192W        W38376   4.787   4.644   0.994  0.0341 -0.0886 -0.1376
22193W        W38377  13.012  14.532   0.756 -0.1180  0.0996 -0.3073
22194W        W38378   2.519   7.984  14.196  0.0788  0.2177 -0.2852
22195W        W38379   6.146   9.108  11.903  0.0055 -0.1735 -0.0681
22196W        W38380   4.226   1.468  14.769 -0.1287  0.1253  0.1429
22197W        W38381  15.149   6.714   0.793 -0.2042 -0.1565 -0.2523
22198W        W38382   9.570  12.237  11.070 -0.1151 -0.0817 -0.0800
22199W        W38383   5.607  13.981   1.697 -0.1216 -0.2577  0.0765
22200W        W38384  16.023  12.321   9.215 -0.0859 -0.0764  0.0155
22201W        W38385  18.695   3.943   1.253 -0.0451 -0.2443  0.1236
22202W        W38386   9.884  16.596  13.659  0.1087  0.0009 -0.2401
22203W        W38387   6.846   1.704   0.305  0.3490 -0.0929 -0.0992
22204W        W38388   1.133  13.286   5.015  0.1727 -0.2091 -0.1417
22205W        W38389   8.259   7.829   2.834  0.0779 -0.2991 -0.3375
22206W        W38390  17.183  16.297  13.393  0.2439 -0.2275 -0.2354
22207W        W38391   8.606  11.861  14.038 -0.4229 -0.1894  0.1422
22208W        W38392   0.481  10.642  12.516 -0.0190 -0.3078 -0.4687
22209W        W38393   0.906  16.504   4.725  0.0869 -0.5101  0.2679
22210W        W38394  17.672   6.873  12.664  0.0891 -0.3324 -0.2617
22211W        W38395   8.489  18.307  10.208 -0.0718  0.0203  0.1735
22212W        W38396   5.956   8.766   3.972  0.0461  0.0213 -0.1034
22213W        W38397   4.731  17.367  14.925 -0.1748 -0.5988 -0.1419
22214W        W38398   6.604   0.216  13.213 -0.3113  0.1797  0.2857
22215W        W38399   4.707  12.185  13.962 -0.1343 -0.0423 -0.2397
22216W        W38400  18.674   2.161   9.214  0.1820 -0.3096 -0.1561
22217W        W38401   6.814  18.941  12.020 -0.3550 -0.2887 -0.1416
22218W        W38402   2.994  18.028   0.189  0.1098 -0.1773 -0.2036
22219W        W38403   9.473  15.050  11.686  0.2882 -0.1788 -0.0680
22220W        W38404  15.741   6.494  10.328 -0.0497  0.1561 -0.0976
22221W        W38405  12.319  16.823   3.175  0.0918 -0.3286 -0.2774
22222W        W38406  19.205   0.649  11.232  0.1061 -0.1330  0.2333
22223W        W38407   8.526  13.694   2.130 -0.1630 -0.3716 -0.2417
22224W        W38408  10.079   8.572   4.323  0.0610  0.1773 -0.1184
22225W        W38409   6.624   3.396   1.989 -0.2441  0.0220 -0.1760
22226W        W38410   8.294   9.853  10.140 -0.1405  0.0680  0.0503
22227W        W38411   2.884  15.164  14.331  0.3067 -0.0361 -0.0837
22228W        W38412   5.285   8.804  11.677  0.2007 -0.0633 -0.0473
22229W        W38413  11.050  10.989   3.160 -0.0488 -0.1337  0.1485
22230W        W38414  11.234   3.803   3.348  0.3515  0.1558 -0.1140
22231W        W38415   5.217  13.397  12.582 -0.1361 -0.0005  0.0635
22232W        W38416  18.581   7.922  10.862 -0.2369  0.0879 -0.2852
22233W        W38417   7.138  14.067  13.245 -0.0970 -0.0857  0.1011
22234W        W38418   7.817   1.360   3.061  0.0651  0.1599  0.0643
22235W        W38419   2.038  14.783   5.034 -0.1610  0.0408  0.0716
22236W        W38420   5.577   6.864  12.219  0.0726  0.0042 -0.2889
22237W        W38421  11.644   1.830  11.744 -0.1215 -0.1388  0.0704
22238W        W38422   8.570   9.813   3.432  0.1554 -0.0693  0.1359
22239W        W38423  10.177   6.222   1.056 -0.1053  0.0840  0.0211
22240W        W38424   6.389  15.930  11.178  0.1035 -0.3088  0.0952
22241W        W38425  11.540   9.158   0.279 -0.2502 -0.2714  0.0766
22242W        W38426   0.470   8.692   4.274  0.4280 -0.1329  0.0108
22243W        W38427  15.484  11.129  11.445  0.3083 -0.1091  0.5136
22244W        W38428  15.640  18.354   4.023 -0.2919  0.0105 -0.0679
22245W        W38429  15.618  18.249   2.719 -0.3803  0.3663  0.0372
22246W        W38430  13.697  10.962  14.224  0.0814  0.2034  0.0936
22247W        W38431   6.355   4.030  13.068  0.1599  0.1297  0.0393
22248W        W38432   1.582  13.077  12.089  0.1859 -0.0171 -0.2182
22249W        W38433  14.187  18.338   2.673  0.1419  0.4827 -0.0380
22250W        W38434  15.662  15.969   2.443 -0.1533  0.1962  0.1790
22251W        W38435   1.060  19.363  11.394 -0.0440  0.3826 -0.0250
22252W        W38436   1.777  12.360   3.045  0.0269 -0.0877 -0.2428
22253W        W38437   6.065   8.532   3.450  0.0274  0.2086 -0.0016
22254W        W38438   9.737  10.153  11.450  0.1784 -0.0185 -0.0708
22255W        W38439   5.681   6.406   1.157  0.3730  0.2791 -0.1710
22256W        W38440  12.697   8.964   8.917  0.0661 -0.1107  0.2103
22257W        W38441  17.610   5.642  11.531 -0.1376  0.1112  0.0903
22258W        W38442  18.040   0.748  14.012 -0.0222  0.3385 -0.3452
22259W        W38443   5.052   4.032   0.605  0.2161 -0.1577  0.4371
22260W        W38444   0.841   8.697   1.231  0.0682  0.0637 -0.3769
22261W        W38445  17.497   1.961   4.633 -0.0460 -0.1830  0.0204
22262W        W38446   6.609   8.923  14.749 -0.1182 -0.0234  0.0678
22263W        W38447  11.407   6.700  10.102 -0.3189 -0.0173 -0.3099
22264W        W38448  10.030  12.793  14.429 -0.0820 -0.2933 -0.2196
22265W        W38449   8.748  18.954   2.277  0.2783  0.2792  0.6408
22266W        W38450  11.820  15.740   0.111  0.2214  0.1605  0.1635
22267W        W38451  13.531  10.389  10.849  0.0849 -0.4120 -0.1854
22268W        W38452   9.109   2.481   1.975  0.0133 -0.3051  0.2280
22269W        W38453  11.702  18.240   4.156  0.0349  0.1071  0.2773
22270W        W38454   5.214  18.710  12.639  0.0821  0.1463 -0.4140
22271W        W38455  10.435   4.160  11.091 -0.0530 -0.0152 -0.0404
22272W        W38456   5.590  13.854   4.493  0.1193 -0.1266 -0.2285
22273W        W38457   3.889  15.129   5.114  0.2749  0.1890  0.1442
22274W        W38458  14.259   7.081   4.632 -0.0269  0.1944 -0.0711
22275W        W38459   6.999  19.097   3.953 -0.1125  0.2234 -0.1397
22276W        W38460   2.649   1.441   1.024  0.0296 -0.0076  0.4007
22277W        W38461  15.607   5.498   2.604 -0.1832  0.0682  0.2282
22278W        W38462   0.210   9.550  12.211  0.0155  0.2480  0.2211
22279W        W38463   7.627  14.088  11.102 -0.0808  0.0692 -0.2386
22280W        W38464   3.042   4.228  14.481  0.1062 -0.1629  0.2002
22281W        W38465   7.725  12.874   3.945 -0.0139 -0.1494 -0.0925
22282W        W38466   5.860   1.981  14.629  0.2441  0.1244  0.2464
22283W        W38467  14.018  14.944  13.465  0.1608 -0.1170  0.2233
22284W        W38468   8.277  19.105   1.385 -0.0930 -0.3254  0.0003
22285W        W38469   6.949   1.708   9.250 -0.0100 -0.1111  0.3266
22286W        W38470  18.814  19.146  13.048 -0.0328  0.2832  0.0485
22287W        W38471   4.303   7.595   0.956 -0.2117  0.0282 -0.3166
22288W        W38472   6.713  14.117   4.219 -0.0321 -0.2045 -0.0009
22289W        W38473   3.182  18.442  11.772 -0.2456  0.0815  0.3464
22290W        W38474   6.780  12.270   3.025  0.0947 -0.2551  0.1252
22291W        W38475  15.865   4.106   3.426  0.0557 -0.0576  0.1193
22292W        W38476  17.657   7.246   0.274 -0.1681 -0.0100  0.4766
22293W        W38477  12.603  13.410  11.937  0.0103  0.0940  0.1093
22294W        W38478   9.722   6.173  13.406  0.1437 -0.1692  0.2601
22295W        W38479   9.349  19.213  12.644 -0.3309  0.2167 -0.0469
22296W        W38480  13.232  11.850  10.681 -0.0941  0.1483 -0.3054
22297W        W38481   2.632  13.612   4.395 -0.0966  0.0125  0.1827
22298W        W38482  13.306  16.178  13.255 -0.5295 -0.3560  0.2818
22299W        W38483  15.765   1.794  14.097 -0.1524  0.2857 -0.1487
22300W        W38484  18.031   5.219   2.628 -0.2019  0.0360 -0.0255
22301W        W38485   9.875  10.480  13.314  0.2559 -0.7220  0.3247
22302W        W38486   3.419  16.197   3.882 -0.1589 -0.0474  0.3392
22303W        W38487   8.273   6.947  11.779 -0.1275  0.0460 -0.0952
22304W        W38488  11.257  14.250   1.722 -0.1343  0.2028 -0.0880
22305W        W38489  19.244  17.272  12.698 -0.0137  0.0295  0.1714
22306W        W38490  13.833   8.874  14.519  0.1367  0.0277 -0.3115
22307W        W38491   9.328  14.025   3.916  0.2921 -0.1282 -0.0349
22308W        W38492  13.478   5.191  10.351 -0.1556 -0.1744 -0.0667
22309W        W38493  10.334  15.899   5.064 -0.0274 -0.2709 -0.0202
22310W        W38494   1.491  13.666   2.681  0.1930  0.0596 -0.1670
22311W        W38495   6.198   5.784   1.037 -0.1036  0.4614  0.2737
22312W        W38496   8.057  10.246  12.508  0.3248  0.1260 -0.0456
22313W        W38497  12.291  12.133  10.450  0.2351  0.1223 -0.2771
22314W        W38498  11.514  16.431   1.766  0.1296 -0.0658  0.0102
22315W        W38499  13.066  13.753   1.082 -0.2683  0.3140  0.0802
22316W        W38500   3.189   8.805  12.877  0.0094 -0.3880  0.2081
22317W        W38501   6.531  16.450   9.406 -0.1913 -0.2918 -0.0162
22318W        W38502   5.702   0.822   4.366  0.0090 -0.1297 -0.1957
22319W        W38503  19.041  15.996  12.098 -0.1305 -0.2034  0.3491
22320W        W38504  14.832  15.913  11.592 -0.2224 -0.1572 -0.2385
22321W        W38505   0.700   7.600   3.071  0.3056 -0.0724  0.1694
22322W        W38506   5.255   9.461   1.931 -0.1073 -0.0717  0.1395
22323W        W38507   2.967  11.021  13.122 -0.1735 -0.1632  0.2200
22324W        W38508   7.384   3.280  10.650  0.5722  0.0909 -0.0114
22325W        W38509  18.690   8.356   3.535 -0.2160 -0.0124 -0.2670
22326W        W38510   4.937  11.636  14.262  0.1092 -0.2260 -0.0487
22327W        W38511   2.616   0.286   4.781  0.0994 -0.1591  0.1804
22328W        W38512  10.492  16.478   1.866 -0.0427  0.3889  0.0315
22329W        W38513  11.591  16.483  13.688 -0.0808 -0.1316  0.3099
22330W        W38514  10.091  16.551   1.473  0.0192  0.0883 -0.2001
22331W        W38515   2.907   0.281  11.395  0.4089  0.0596  0.1829
22332W        W38516   2.630  15.951  13.022 -0.2612 -0.0435 -0.2303
22333W        W38517   2.843  12.665   0.831 -0.1497  0.1217  0.0392
22334W        W38518  14.073  18.465  14.737  0.0254  0.0285 -0.0590
22335W        W38519   5.692  11.584   1.479 -0.0424 -0.0114 -0.0558
22336W        W38520   4.418  17.271  14.580  0.2517  0.1290  0.1851
22337W        W38521  15.193   1.336   9.948  0.1681 -0.2187 -0.3674
22338W        W38522  18.722   0.598   8.937  0.3781  0.2872  0.1473
22339W        W38523   1.038  18.612  13.194  0.0995  0.2161  0.1200
22340W        W38524  10.579   6.934   1.041 -0.0638 -0.1098 -0.1229
22341W        W38525   0.903   3.602   3.045 -0.1016  0.3137  0.1334
22342W        W38526  19.110   3.887  11.583 -0.1873  0.0012  0.0149
22343W        W38527   9.503   0.915   4.688 -0.1328 -0.1570  0.1772
22344W        W38528  13.776  15.723   4.455 -0.1562 -0.1670  0.1084
22345W        W38529   8.399  12.580   2.438 -0.0304  0.2975 -0.0220
22346W        W38530   5.285  12.091   0.649 -0.1897  0.1477 -0.0780
22347W        W38531  17.192  18.145   1.695  0.0348 -0.1110 -0.0827
22348W        W38532  17.463  19.133   2.503 -0.0848 -0.2665  0.3052
22349W        W38533  16.102   2.853  11.504  0.0980 -0.2884 -0.0167
22350W        W38534  14.582   4.695   0.922 -0.0707  0.2004 -0.1860
22351W        W38535  13.681  15.088   5.107  0.3134  0.1111  0.0888
22352W        W38536  11.459   6.377  12.224 -0.1288 -0.3035  0.0842
22353W        W38537  10.352   3.014  10.999  0.0993 -0.5900 -0.0425
22354W        W38538  16.709  11.145  11.827  0.0356 -0.2038 -0.4579
22355W        W38539   4.755   9.446  11.171 -0.2009  0.0066 -0.1831
22356W        W38540  15.884   8.581   2.470 -0.0246 -0.0856 -0.0744
22357W        W38541  12.730   6.288  14.009  0.1346 -0.2471  0.0496
22358W        W38542   6.304   8.799   1.164  0.2621  0.3376 -0.0319
22359W        W38543  11.810   7.439   4.541  0.0109  0.0686 -0.0067
22360W        W38544   5.650   8.436  13.379  0.0524 -0.0942  0.0561
22361W        W38545  19.166  10.801  12.455  0.2409 -0.0348  0.0301
22362W        W38546   7.596  17.160   3.209 -0.0299 -0.0346 -0.3122
22363W        W38547  10.443   3.302   4.806  0.0570  0.1174 -0.2949
22364W        W38548   4.090  16.569   1.163  0.1701  0.2010  0.1227
22365W        W38549   9.012   6.048   3.672 -0.0958  0.4396 -0.0072
22366W        W38550  10.432  13.336  12.787  0.2544 -0.0459  0.3902
22367W        W38551  10.923   5.191  10.437 -0.1578  0.0905  0.0635
22368W        W38552   1.241   1.525   3.297 -0.1824 -0.0048 -0.0392
22369W        W38553   7.390   7.085  11.602  0.0290  0.1010 -0.1260
22370W        W38554   1.341   6.245  11.153  0.2001  0.5263 -0.0705
22371W        W38555   4.611  19.326   4.238  0.3552  0.0114  0.3004
22372W        W38556  16.454   5.938  11.872  0.0031 -0.0025 -0.0260
22373W        W38557   1.559   7.173   1.115  0.0707 -0.0974  0.3519
22374W        W38558   9.125   3.105   4.719  0.1601  0.4664 -0.2608
22375W        W38559   7.054  12.607   1.510 -0.2913 -0.1549  0.4036
22376W        W38560  10.354   0.251  11.026 -0.1827 -0.3279  0.1017
22377W        W38561  14.867   5.572  13.310  0.1021  0.0359  0.0131
22378W        W38562   9.694  15.668  10.395 -0.2037 -0.3942 -0.1197
22379W        W38563  11.943   5.620   3.246  0.0265  0.1745 -0.5486
22380W        W38564   9.973  13.986  10.997 -0.0800 -0.0776  0.0777
22381W        W38565   4.399  16.545  13.815  0.2693 -0.1179 -0.3021
22382W        W38566   9.176  11.557   3.001  0.1883  0.2373  0.2170
22383W        W38567  14.492   0.660   3.023  0.1011 -0.0947  0.0451
22384W        W38568  18.034  15.144  12.253  0.1179  0.2264 -0.0305
22385W        W38569   5.097   7.216   1.456  0.1162  0.0328  0.1178
22386W        W38570   2.024  18.360  13.716  0.2633 -0.2865  0.1579
22387W        W38571  17.069   2.164  13.189  0.1744  0.2143  0.1135
22388W        W38572  16.480  10.566  13.124 -0.0202  0.0925  0.2159
22389W        W38573  16.057   1.231   3.797 -0.3918  0.0407  0.2110
22390W        W38574  18.627  16.338   2.427  0.1327  0.4828 -0.0728
22391W        W38575  10.860  14.843  11.550  0.1496 -0.1315  0.0749
22392W        W38576   2.220   6.775   2.393  0.0714  0.1458  0.1717
22393W        W38577  14.734   1.647  13.457  0.1427 -0.0931  0.2810
22394W        W38578   7.104   2.304  10.932  0.3653  0.0563 -0.3762
22395W        W38579  18.032   5.381   0.794 -0.0057  0.1377  0.4622
22396W        W38580   2.840  10.822   0.311 -0.0325 -0.0169 -0.4254
22397W        W38581  16.654  13.898  13.249  0.2404  0.0725 -0.1705
22398W        W38582   0.853   9.414  11.194 -0.0911 -0.0013  0.2764
22399W        W38583   5.409   1.694   3.980  0.2592  0.0403 -0.1479
22400W        W38584   1.064  10.253   3.310  0.3496  0.0498  0.0914
22401W        W38585   1.335  14.458  11.935  0.1710 -0.2539 -0.0436
22402W        W38586  15.049  13.574  13.599 -0.0562 -0.0210  0.0392
22403W        W38587   3.521   2.893   4.675 -0.0427 -0.2481 -0.1234
22404W        W38588  14.037   0.154  11.938 -0.2446  0.0739  0.2510
22405W        W38589  17.931   3.424   3.224 -0.0302 -0.3270  0.2008
22406W        W38590  16.142  13.876   3.858  0.3649  0.1100 -0.2195
22407W        W38591   8.939   9.210   3.961  0.3960 -0.0587  0.1959
22408W        W38592  15.539  18.810   3.022  0.1374 -0.1251  0.4444
22409W        W38593   6.092  17.721  12.643 -0.0621  0.1854 -0.1844
22410W        W38594  10.237   2.901   3.490 -0.1215 -0.1670  0.1485
22411W        W38595  15.144  19.274  10.721 -0.1813  0.2548 -0.3610
22412W        W38596   1.623  11.515  12.325  0.1517 -0.0594 -0.4606
22413W        W38597   3.487   1.170   0.010 -0.1572 -0.2398  0.0270
22414W        W38598   4.415  13.043   4.594  0.0054 -0.0144 -0.1756
22415W        W38599   9.149  16.493   3.966 -0.1586 -0.1564 -0.5172
22416W        W38600   1.040  14.865  14.218  0.1323 -0.0844 -0.1155
22417W        W38601  10.126   5.418   0.532 -0.3689 -0.3071  0.0642
22418W        W38602  14.975   0.904   3.890 -0.1567  0.4212 -0.1055
22419W        W38603  11.660  11.636   1.811  0.2072  0.0002  0.0391
22420W        W38604  12.812   5.019  13.525  0.1029 -0.1246 -0.0709
22421W        W38605   5.632   2.521   2.841 -0.0084  0.2928 -0.1118
22422W        W38606  13.871   2.303   2.779  0.0923  0.1657  0.0545
22423W        W38607   9.172  18.288   2.378 -0.0192  0.1087  0.1415
22424W        W38608   4.296  10.786  12.701 -0.0909 -0.0395 -0.0705
22425W        W38609   6.032  14.768  13.793 -0.1720 -0.1239 -0.0316
22426W        W38610  10.791   2.770   2.930  0.1848  0.0309  0.0201
22427W        W38611   3.837   6.918   4.766 -0.0172  0.0261  0.0213
22428W        W38612   1.460  11.663   5.110 -0.3953  0.0271 -0.2049
22429W        W38613  14.225   7.513  11.728  0.2029 -0.1843  0.0170
22430W        W38614  17.680   5.277  10.652 -0.1649 -0.0997  0.1656
22431W        W38615   0.402  10.872   5.991 -0.0903 -0.1745  0.2695
22432W        W38616  17.478   4.638   1.067 -0.0103  0.2826 -0.0845
22433W        W38617  17.291   5.956  11.217  0.2778 -0.2634  0.0584
22434W        W38618   6.974  18.289   0.220 -0.2527  0.2529 -0.1046
22435W        W38619  13.108  17.466   5.161  0.0879  0.0062 -0.1677
22436W        W38620   7.577   4.381  10.754  0.1371  0.1463 -0.1159
22437W        W38621   2.407  17.699  11.006  0.1121  0.1523  0.2067
22438W        W38622  18.241  13.854   2.449 -0.0950 -0.1253  0.1249
22439W        W38623  11.963   0.428  11.176 -0.2164  0.0159  0.2033
22440W        W38624  16.985   7.351  10.309  0.1854 -0.1663  0.1314
22441W        W38625   0.129  15.019   0.040  0.0493 -0.1081 -0.2836
22442W        W38626   1.958  15.226   1.274  0.0326 -0.0952 -0.0998
22443W        W38627   0.369  10.148   6.077  0.1435  0.3009  0.0240
22444W        W38628   1.270   1.078   1.799  0.3755 -0.2105 -0.0296
22445W        W38629  13.200  17.343  13.537 -0.0787  0.1366 -0.2032
22446W        W38630   7.794   3.392   5.119 -0.0605 -0.1398 -0.0274
22447W        W38631   5.986  11.626   5.083 -0.2913 -0.3638 -0.0713
22448W        W38632   3.851  16.749   2.548 -0.1398 -0.5146 -0.0565
22449W        W38633  10.089   2.009   2.868 -0.3300 -0.2738 -0.0124
22450W        W38634   8.052   8.821   0.623 -0.1512 -0.5523 -0.1005
22451W        W38635   9.107  16.175  11.094  0.1242 -0.0642  0.1241
22452W        W38636   5.534   2.173  11.272  0.0629 -0.0271 -0.0229
22453W        W38637   1.345   5.420   2.599 -0.0363  0.0349 -0.0938
22454W        W38638  17.424   1.221   1.090  0.1882 -0.0164  0.0410
22455W        W38639   8.207   4.358  14.266 -0.0969  0.2057 -0.1056
22456W        W38640   2.629   0.446   2.713 -0.5227 -0.1912  0.1204
22457W        W38641   0.207  18.055   4.285  0.1603 -0.2822 -0.2943
22458W        W38642   7.435   6.476   0.682  0.1360 -0.2455 -0.3007
22459W        W38643   9.197   6.617  12.098 -0.1943 -0.0582 -0.0813
22460W        W38644   6.379  15.911   0.679 -0.1259  0.4355  0.2342
22461W        W38645  11.994   0.242   4.105 -0.1467  0.1027 -0.0207
22462W        W38646   1.528   8.093   2.506  0.2682  0.0320 -0.2515
22463W        W38647  17.023   4.546   2.601  0.0686  0.0188  0.0115
22464W        W38648  14.741  10.711   3.525 -0.1311  0.0014  0.0167
22465W        W38649   2.604   5.168   3.464  0.0536  0.2060  0.0355
22466W        W38650   3.828  13.965   0.392 -0.0265 -0.0572  0.0434
22467W        W38651  18.546  15.043   1.634  0.0231 -0.2374 -0.2383
22468W        W38652   9.216  14.857  12.143 -0.3195  0.1130 -0.0479
22469W        W38653  12.388  18.126   0.049 -0.3823 -0.0745  0.0949
22470W        W38654   8.893   6.318   0.332  0.1666  0.2548 -0.0837
22471W        W38655   6.254  18.420  11.882 -0.0835 -0.0152 -0.2431
22472W        W38656   7.037   7.788  12.226  0.3216  0.0352  0.3872
22473W        W38657   3.769  19.306  10.872 -0.1991  0.0023  0.1059
22474W        W38658  11.394  18.728  11.749 -0.2102 -0.2992 -0.1881
22475W        W38659  12.598   7.962   0.291 -0.0827 -0.1642 -0.0993
22476W        W38660  14.279   5.542  11.200 -0.0700 -0.3454  0.1402
22477W        W38661  15.966   7.215   4.873 -0.0951  0.1860  0.2431
22478W        W38662  11.877   6.644   4.374  0.3553 -0.3183 -0.1407
22479W        W38663  13.086  12.153   1.026  0.3572  0.0266 -0.1094
22480W        W38664  17.940  18.411  14.304  0.0322  0.3096  0.0304
22481W        W38665  15.631   4.597  12.393 -0.2026 -0.1673 -0.2755
22482W        W38666   0.468  13.879   0.675 -0.0631 -0.1830 -0.2064
22483W        W38667   9.250  18.218  10.178  0.0847 -0.1085  0.2814
22484W        W38668  18.145   3.848  11.258  0.0175  0.1243 -0.0971
22485W        W38669  11.099  18.236   0.913  0.0582 -0.2648  0.0639
22486W        W38670  12.773   6.671  12.376  0.4714  0.0509  0.2675
22487W        W38671   4.762  18.523  11.789 -0.2537  0.0727 -0.3464
22488W        W38672  15.281  12.852  11.248  0.0979 -0.0425 -0.1509
22489W        W38673  16.240  17.210  13.434 -0.0647 -0.0241  0.0158
22490W        W38674  18.949  11.856  11.598 -0.1118 -0.1367  0.0551
22491W        W38675  14.449   5.884   4.603 -0.3813 -0.2220  0.0673
22492W        W38676   7.270   9.871  14.882 -0.0035  0.0163  0.2395
22493W        W38677   5.436   7.580   4.015  0.0677 -0.1085 -0.0004
22494W        W38678   7.973   2.700   5.159 -0.1086  0.4935  0.1391
22495W        W38679  17.853  17.234   4.149  0.0506 -0.2685 -0.1370
22496W        W38680   7.362   0.766  12.839  0.0383  0.0511  0.0885
22497W        W38681  17.729   6.242   3.295 -0.0430  0.0530  0.1471
22498W        W38682  17.546   2.563  14.008 -0.1251  0.1402  0.1400
22499W        W38683  14.582   3.842  12.815  0.1231 -0.1555  0.1002
22500W        W38684  11.249  12.490   3.966 -0.2150 -0.0289 -0.1279
22501W        W38685   2.713   7.304  13.535 -0.0748  0.3264 -0.1171
22502W        W38686  16.652   9.173  10.241 -0.0665 -0.2020  0.1458
22503W        W38687  13.696   9.266  11.644  0.1626  0.1865  0.0392
22504W        W38688  15.925  10.824  14.269  0.0889  0.2081 -0.2712
22505W        W38689  14.486   8.447  12.004  0.0003  0.1246 -0.3947
22506W        W38690   1.679  13.868  11.554  0.0832  0.2907  0.2741
22507W        W38691   2.173   6.828   3.339  0.0262  0.2084  0.3205
22508W        W38692  14.016  11.678  10.935 -0.2590  0.0631 -0.0615
22509W        W38693  18.617   6.648  10.786  0.0391  0.1085 -0.0505
22510W        W38694  12.843   1.604   3.443  0.0013  0.0645 -0.1379
22511W        W38695  17.831   8.793   4.911  0.1938 -0.1455  0.2394
22512W        W38696   3.765  12.569   3.985 -0.3563 -0.0393  0.0528
22513W        W38697  18.749   2.415   4.568 -0.0940  0.0979  0.1824
22514W        W38698  14.639  10.220  14.357 -0.2449 -0.1723  0.1584
22515W        W38699   9.284  18.853  12.973 -0.0769 -0.0186  0.1599
22516W        W38700  10.240   4.166  14.923 -0.0227  0.1933 -0.3677
22517W        W38701  15.157   2.456  12.852  0.0840 -0.3145 -0.0547
22518W        W38702  18.000   0.332   3.138  0.0146 -0.1678  0.1319
22519W        W38703   8.881   7.636  10.962 -0.0065 -0.4071  0.0104
22520W        W38704   1.516  17.249  12.418  0.1987 -0.0233 -0.0161
22521W        W38705  16.058   2.425   3.069  0.1745 -0.1970 -0.1345
22522W        W38706  15.470  13.457   1.796  0.0436  0.1200  0.3545
22523W        W38707   1.690   2.603  14.809 -0.0102 -0.1965 -0.1168
22524W        W38708   4.643  12.680  10.691 -0.1863 -0.0133  0.1516
22525W        W38709  10.100   4.813   0.305 -0.1739 -0.1311 -0.0198
22526W        W38710   4.256   2.138   2.784  0.2498 -0.4905  0.1435
22527W        W38711   3.362   3.642  11.962 -0.0221 -0.0493 -0.0385
22528W        W38712  14.219  11.114  10.282 -0.0416  0.0333 -0.1166
22529W        W38713  11.289   2.381  11.221 -0.2697 -0.0096 -0.3453
22530W        W38714  13.534   7.449  14.082 -0.1271  0.1550  0.2128
22531W        W38715   1.693  13.477   3.954 -0.1403  0.0297  0.0930
22532W        W38716  15.019  11.884  12.385  0.2078 -0.1714  0.1591
22533W        W38717   6.497  13.679  10.473 -0.2123 -0.3381 -0.0521
22534W        W38718  11.477   9.751  10.874  0.1553  0.1044 -0.4385
22535W        W38719  18.264  13.207   3.160  0.1978  0.3046  0.2137
22536W        W38720  13.209   5.426   9.218  0.4571 -0.1691 -0.0285
22537W        W38721  10.056   3.345  13.021 -0.1623  0.2275 -0.0850
22538W        W38722  13.488   1.666  10.427 -0.0372  0.1591  0.0696
22539W        W38723  19.306  18.139   1.035 -0.1387 -0.2531  0.0505
22540W        W38724  10.459   6.077   3.181  0.2918 -0.1009 -0.1757
22541W        W38725   0.784   0.295   2.241 -0.0641 -0.2065  0.0825
22542W        W38726  12.315   2.986   3.063  0.1640  0.4896  0.4154
22543W        W38727   6.120  13.050  14.722  0.0660 -0.3186  0.1258
22544W        W38728  11.392  15.087  11.612 -0.3815 -0.1866  0.4529
22545W        W38729  15.109   3.585   1.909  0.2106  0.0315 -0.0186
22546W        W38730   6.177   9.273   1.856  0.1483 -0.2859  0.3617
22547W        W38731  15.417  11.334  10.881  0.3533  0.3202  0.2653
22548W        W38732   8.621  13.403   4.341 -0.2284 -0.2205  0.0381
22549W        W38733   2.463  12.052   0.393  0.2174 -0.1000  0.2133
22550W        W38734   0.407  13.343   3.009 -0.1393 -0.1383  0.1122
22551W        W38735  11.382  16.059   4.788  0.2504  0.0754 -0.0498
22552W        W38736   4.628   0.476   1.776 -0.2206  0.1982  0.0227
22553W        W38737  18.248   1.308  11.002  0.0029 -0.4385  0.0991
22554W        W38738  14.502  10.427  10.659 -0.0155  0.1196 -0.1506
22555W        W38739   9.858   0.655   3.328 -0.3394  0.0216 -0.1129
22556W        W38740  16.438   6.983  11.651  0.1180  0.0033  0.0620
22557W        W38741   0.085  16.010   4.467  0.1029 -0.0681 -0.1062
22558W        W38742   2.202  10.676  12.888 -0.2847 -0.1467 -0.0059
22559W        W38743  12.572  10.072  13.982  0.0088  0.0446  0.0116
22560W        W38744  18.553   3.629   2.061 -0.1114 -0.3007  0.0904
22561W        W38745  10.470   2.934  14.646 -0.0064  0.1383 -0.0130
22562W        W38746   6.917   8.458   3.788 -0.1980 -0.0214 -0.1221
22563W        W38747   8.891   4.859  11.736 -0.0894  0.0536 -0.0584
22564W        W38748  12.848  10.055  10.241  0.1111  0.0918 -0.4311
22565W        W38749  17.343   9.763  12.104 -0.3283  0.4265 -0.1405
22566W        W38750   8.661  10.882   1.637 -0.0038  0.0246 -0.0412
22567W        W38751   5.650  11.410   3.413  0.1643 -0.2396  0.0015
22568W        W38752   0.991   7.139   1.131  0.3020  0.4723  0.1365
22569W        W38753   2.481  15.147   1.473  0.0345 -0.0970 -0.1874
22570W        W38754   4.220   8.868   0.769  0.1509  0.1844 -0.0767
22571W        W38755   1.536  14.823   2.004 -0.1387 -0.1188 -0.2526
22572W        W38756  13.491  11.394   1.122 -0.3298  0.3793  0.0832
22573W        W38757   0.591  14.059  10.991 -0.1047  0.1145  0.4198
22574W        W38758   0.737  11.285   0.995 -0.0783  0.2659 -0.1561
22575W        W38759   0.933  11.469   2.776 -0.3265  0.1132  0.1568
22576W        W38760  16.141   3.118  12.637 -0.0429 -0.4516 -0.2422
22577W        W38761   6.764  11.998   2.176 -0.1350 -0.1916  0.4212
22578W        W38762   2.493   8.908   1.025 -0.0415  0.2101 -0.1858
22579W        W38763   7.633  14.178  12.854  0.1503  0.1447 -0.4327
22580W        W38764  12.863   9.366   1.030 -0.2199 -0.0868 -0.0616
22581W        W38765   1.958  14.396   0.730  0.1340 -0.4594 -0.1539
22582W        W38766   5.668   0.159   4.288 -0.2321 -0.0038 -0.0614
22583W        W38767   3.328  11.928  12.807 -0.2109 -0.3000 -0.1516
22584W        W38768  14.352  15.540   0.028  0.2548 -0.0270 -0.1563
22585W        W38769   2.027   4.680   4.134  0.0019 -0.1244 -0.0585
22586W        W38770  10.596   7.261   2.436  0.3756 -0.1360  0.0451
22587W        W38771  18.542  18.519   3.333 -0.0503 -0.3618 -0.1696
22588W        W38772  15.085  13.960   0.652  0.1362  0.2693  0.1232
22589W        W38773   8.046  10.152  11.183 -0.0462 -0.0965 -0.2023
22590W        W38774  13.935  10.242   3.915 -0.1525 -0.2153 -0.4942
22591W        W38775  17.563  15.397  12.081  0.0673 -0.1728 -0.1799
22592W        W38776  12.191  13.270   1.091  0.0191 -0.0322  0.2764
22593W        W38777  16.931   8.041   5.464  0.1677  0.0241  0.1653
22594W        W38778  11.607   0.589  12.585  0.1491  0.0769 -0.1421
22595W        W38779   6.076   3.794   1.651 -0.0617 -0.4361 -0.3175
22596W        W38780   3.269  16.909  11.939 -0.1119 -0.2163  0.2744
22597W        W38781   9.104   2.082  12.462 -0.1680  0.1206 -0.0045
22598W        W38782   7.993   1.880   5.038 -0.0458  0.1299  0.0613
22599W        W38783   2.976   0.045  11.985  0.0816 -0.1989 -0.2291
22600W        W38784   9.857   0.360  11.891 -0.0471 -0.2566 -0.1864
22601W        W38785  12.921  17.559  14.533  0.1866 -0.0129 -0.0428
22602W        W38786  17.444   2.523  13.097 -0.1247  0.1053  0.0829
22603W        W38787   6.492  14.858   3.996 -0.5566  0.1815 -0.1118
22604W        W38788  11.176   1.790  11.085  0.1122 -0.0759  0.1720
22605W        W38789   8.550   4.351  13.009  0.0187 -0.0543 -0.2577
22606W        W38790  19.367  10.145  11.153 -0.1613 -0.3954 -0.3653
22607W        W38791  13.075   0.968  10.807 -0.3794 -0.0322 -0.2703
22608W        W38792  10.911  17.219  11.851  0.0974  0.1677  0.1482
22609W        W38793  17.796  11.737   3.491 -0.2459  0.1976  0.3009
22610W        W38794  14.496  11.195   1.413 -0.1656  0.0774 -0.1254
22611W        W38795  13.700   3.939   1.301  0.1666  0.0297 -0.0633
22612W        W38796  12.433  11.408   4.250 -0.0261 -0.1399  0.3673
22613W        W38797  19.047   3.696  13.784 -0.3995  0.1832 -0.1614
22614W        W38798   2.900   9.099   3.350 -0.0886  0.1424  0.3182
22615W        W38799   8.714   1.871  11.366  0.0097 -0.2769  0.0714
22616W        W38800  15.401   7.224  11.248 -0.0763  0.0253  0.2277
22617W        W38801   4.430   9.033   4.208  0.1455  0.2915  0.1684
22618W        W38802   0.638   4.516   0.714  0.2858 -0.1323  0.1244
22619W        W38803  17.256  15.800   0.187 -0.2853  0.0484 -0.0278
22620W        W38804   8.894  16.144   2.865  0.1048 -0.2313 -0.0814
22621W        W38805   2.796  13.309   2.083  0.1788 -0.0897  0.0898
22622W        W38806   7.083  13.793  14.086 -0.2933  0.2530 -0.1241
22623W        W38807  13.212  15.677   3.563  0.1493  0.0593 -0.4419
22624W        W38808  19.048  11.001  13.171  0.0502  0.2580 -0.0564
22625W        W38809  17.347   9.982   3.075  0.1890  0.0724 -0.0588
22626W        W38810  10.571   2.428   3.392 -0.2636  0.1579 -0.0226
22627W        W38811   7.998   7.415   0.131 -0.1312 -0.1031  0.1596
22628W        W38812   3.502   9.962   0.749  0.2527  0.0268  0.0494
22629W        W38813  16.969   1.543   1.005 -0.2481 -0.1157 -0.0597
22630W        W38814   7.901  13.374   4.009  0.1386 -0.1396 -0.2668
22631W        W38815   2.229  15.909   9.537 -0.3232 -0.0028  0.1736
22632W        W38816  15.422   7.021  13.647  0.0183 -0.2289 -0.0230
22633W        W38817  13.647  19.099  11.866  0.2688 -0.1611 -0.0527
22634W        W38818  11.459   6.569   3.171 -0.1470 -0.2527 -0.0113
22635W        W38819  15.214   1.211   9.101  0.0125 -0.0492  0.3313
22636W        W38820  16.895  15.109  12.254 -0.2550 -0.2567  0.2077
22637W        W38821   8.690  12.061   0.979 -0.1123 -0.1814 -0.0170
22638W        W38822   6.889  10.331   4.323 -0.2955 -0.1052  0.0876
22639W        W38823   9.698   3.579   4.711  0.1870  0.1497  0.0306
22640W        W38824  17.507  17.926   0.319  0.0093 -0.0587  0.0752
22641W        W38825   2.222  17.224  14.197  0.0953 -0.1536 -0.2133
22642W        W38826  12.172   3.623  10.285  0.0822 -0.1236 -0.2969
22643W        W38827  19.277   9.403   1.805  0.0196 -0.1887 -0.3175
22644W        W38828  16.380   0.895   0.300  0.1654  0.0012 -0.0073
22645W        W38829   3.003   1.729  14.396 -0.0673  0.3294  0.2069
22646W        W38830   1.400   6.818   0.795  0.1089  0.0063  0.1533
22647W        W38831   7.014  16.133  14.493  0.0775 -0.3236  0.3353
22648W        W38832   4.445  12.610   1.703  0.2166  0.3691 -0.2148
22649W        W38833   3.541   0.736  13.567  0.0278  0.0447 -0.2734
22650W        W38834  12.952   8.597  12.655 -0.0176 -0.0771 -0.1810
22651W        W38835   9.209  16.473  10.541  0.0428  0.0218  0.0231
22652W        W38836   1.546  15.754   3.728  0.0841  0.0541  0.2466
22653W        W38837   3.520  17.135  10.459  0.3669  0.2478  0.1075
22654W        W38838   7.349   4.888   4.007  0.3463  0.0704  0.1349
22655W        W38839  17.328  17.959  14.333 -0.0078 -0.3470  0.0132
22656W        W38840   9.288   0.339   3.581  0.0867 -0.3869  0.1369
22657W        W38841   7.843  18.878  14.565  0.2046 -0.1060  0.0534
22658W        W38842   4.178  18.615  10.150  0.0530 -0.0385  0.2722
22659W        W38843   3.446   2.222   3.905 -0.0725 -0.0634 -0.0020
22660W        W38844  15.550   9.326   1.054  0.3355  0.0028  0.0917
22661W        W38845   7.862  14.659   2.221  0.0435  0.0462 -0.0875
22662W        W38846   6.151  11.171  11.508  0.0558 -0.0811  0.1202
22663W        W38847  10.390   4.689   2.765  0.1236 -0.1299 -0.0127
22664W        W38848  16.602  14.759   2.937 -0.0545  0.0118  0.5447
22665W        W38849  19.136  10.615   2.462 -0.4483  0.1044 -0.3596
22666W        W38850   4.676   2.366  13.655  0.0876 -0.4983  0.2944
22667W        W38851   0.100   7.917  12.746  0.1327 -0.1900  0.0173
22668W        W38852   4.919   8.658   3.487  0.2895 -0.3319 -0.0413
22669W        W38853  11.590   7.063   1.324  0.0381  0.2373 -0.0191
22670W        W38854  19.241   9.965   4.060 -0.1354  0.1282  0.2379
22671W        W38855  18.966  14.890  12.450 -0.1468 -0.1309  0.1144
22672W        W38856   3.785  17.865   0.940  0.0094 -0.1118 -0.3666
22673W        W38857  11.183   7.751   4.960 -0.1287 -0.3287  0.0379
22674W        W38858   6.543  11.486   0.468 -0.0997 -0.2230 -0.1327
22675W        W38859   5.487   4.573   1.665 -0.1315 -0.2233 -0.0300
22676W        W38860   1.634  11.805   6.380  0.1696  0.2482 -0.1494
22677W        W38861   6.660  16.049   9.807  0.2528  0.0833  0.3534
22678W        W38862   4.655  17.387  13.104 -0.2246  0.1821  0.0323
22679W        W38863  18.996  12.194  11.958  0.0186  0.2503 -0.0926
22680W        W38864  10.811   5.955   4.150 -0.1681 -0.1932  0.2713
22681W        W38865   2.325  13.202  13.134 -0.2205  0.2238  0.1838
22682W        W38866   7.264  16.225  12.816 -0.0481  0.2233 -0.0965
22683W        W38867   0.208   7.266   9.665  0.1226  0.3201 -0.0979
22684W        W38868  11.547  12.755  11.880  0.0492 -0.4171  0.3832
22685W        W38869   0.196   5.837   2.105 -0.2394 -0.2056 -0.1673
22686W        W38870   6.497  17.910  12.843  0.2447 -0.2382  0.0469
22687W        W38871  11.397  13.871   3.554 -0.0420  0.1192  0.1886
22688W        W38872   5.915   2.078   0.567  0.0820 -0.1140 -0.0689
22689W        W38873   3.013  15.422  11.102  0.0787  0.0996  0.3509
22690W        W38874  17.707   5.809   0.817  0.1913  0.3189 -0.0592
22691W        W38875  15.632   4.323  11.992  0.1906 -0.0460  0.0475
22692W        W38876   9.864  12.839  10.656 -0.0355 -0.0440  0.2723
22693W        W38877  10.706   9.484   1.952  0.2927 -0.1582  0.3399
22694W        W38878   7.631  18.100   1.397 -0.2305 -0.0031 -0.1199
22695W        W38879  16.707  12.363   5.002 -0.1023  0.3430  0.1885
22696W        W38880  16.574   9.257   2.650 -0.0950  0.2586 -0.5933
22697W        W38881   0.942  14.826  14.727 -0.0406 -0.1450  0.0570
22698W        W38882  11.270   0.195  14.109  0.1678 -0.0828 -0.1417
22699W        W38883   5.894  18.142  12.773  0.0915  0.1546 -0.2350
22700W        W38884   3.894   7.563   1.293 -0.1371 -0.0223 -0.1141
22701W        W38885  18.928  18.907   3.417  0.1168  0.1525  0.0330
22702W        W38886   8.124   2.559  13.480 -0.3375  0.0328  0.0801
22703W        W38887   2.008  12.580  12.182  0.2841 -0.3043 -0.0571
22704W        W38888  14.342   2.272  12.203  0.0889  0.1114  0.1948
22705W        W38889   1.312  17.103  14.606  0.1001 -0.0958 -0.0431
22706W        W38890   1.118  15.109   1.761  0.3215 -0.3372 -0.0402
22707W        W38891   3.576   1.826  12.138 -0.0594 -0.2707 -0.3434
22708W        W38892  14.393  13.053   4.155  0.2303  0.2795  0.0171
22709W        W38893   0.419   3.848   5.814  0.2083  0.3613 -0.0726
22710W        W38894   1.053   3.812   4.738 -0.0907 -0.0518 -0.0727
22711W        W38895  16.649  15.054  11.622  0.1501 -0.3230 -0.0249
22712W        W38896   7.984   9.417  13.122  0.3179  0.0586 -0.0534
22713W        W38897  15.890  18.957  10.117 -0.0402  0.3292  0.1663
22714W        W38898  15.591   2.192  14.849 -0.0322  0.1129 -0.0337
22715W        W38899   8.862   7.346  13.379  0.0352 -0.2400 -0.0426
22716W        W38900   3.869  11.303   4.874  0.2991  0.0368  0.2767
22717W        W38901   5.791  12.492   3.580 -0.1718 -0.0541 -0.3452
22718W        W38902   3.822  16.582  14.204 -0.1003  0.2780 -0.3391
22719W        W38903  11.432   8.040  10.803  0.1302  0.0058  0.0654
22720W        W38904   7.583  16.520   4.630 -0.2272 -0.0736  0.0484
22721W        W38905  15.443  13.636   4.408 -0.1092 -0.1212 -0.2163
22722W        W38906   7.056   6.563   3.818  0.1813 -0.0903  0.4651
22723W        W38907  15.933   8.130   3.870 -0.3114  0.3916  0.3061
22724W        W38908  16.326   3.829   9.550 -0.1724  0.2525 -0.0528
22725W        W38909  14.600  17.904   0.192  0.0465  0.0778  0.0866
22726W        W38910   7.362  14.707   2.141  0.0374  0.2604 -0.5120
22727W        W38911   7.115  11.410   2.298  0.0313  0.0374 -0.3879
22728W        W38912   8.887   3.537   4.782  0.1151 -0.0730 -0.2431
22729W        W38913   0.961   5.652   2.810 -0.0773  0.1055  0.0491
22730W        W38914   6.420  18.189   9.352 -0.3548 -0.0579  0.1085
22731W        W38915  16.902   7.474  14.621  0.0006 -0.2018 -0.3041
22732W        W38916   8.567   7.802   1.723  0.0732 -0.3979 -0.1014
22733W        W38917   8.735   1.073  11.553  0.2819  0.0810 -0.1388
22734W        W38918   2.890   7.387  10.227 -0.3061 -0.2968  0.0051
22735W        W38919   0.805   9.556   1.162 -0.0540  0.2612 -0.0720
22736W        W38920  16.073   6.608  10.849 -0.1195 -0.0735  0.4225
22737W        W38921   7.291   1.784  10.743 -0.4375  0.0617  0.1125
22738W        W38922   7.734  14.819   5.107 -0.0112 -0.4729  0.0781
22739W        W38923  15.530  15.711   4.142  0.0040  0.2411 -0.0617
22740W        W38924  14.144  10.217   2.504 -0.0774 -0.2978 -0.3260
22741W        W38925  14.390   1.896   2.354  0.0697  0.3983 -0.2582
22742W        W38926   8.247   5.903  14.494  0.0572  0.2897 -0.0453
22743W        W38927  13.382   8.880  14.194 -0.0387 -0.4866 -0.1706
22744W        W38928   2.847   2.640  10.502  0.1476  0.2762 -0.4202
22745W        W38929  19.079  13.339   1.269  0.1451 -0.0802 -0.1185
22746W        W38930  13.183   6.207  13.568 -0.1089  0.0785 -0.1818
22747W        W38931   4.605  17.520   3.777 -0.2362  0.2571 -0.0387
22748W        W38932   2.944   7.769   5.094  0.0497  0.0945  0.0470
22749W        W38933  14.316   2.156  14.227  0.2505  0.0996 -0.1713
22750W        W38934   6.957   6.285   2.052  0.2348 -0.3391 -0.2240
22751W        W38935   4.920  17.809  12.388  0.2522  0.1080 -0.3510
22752W        W38936  11.749   1.834   9.557  0.0586  0.0749  0.0381
22753W        W38937   8.180  13.135   5.241  0.0162 -0.2717 -0.1471
22754W        W38938   0.207   0.189  12.586 -0.1110 -0.1706 -0.1381
22755W        W38939  13.217   4.515   0.584  0.0186 -0.2235 -0.1729
22756W        W38940  10.469   6.475   2.823  0.0473 -0.0324  0.0121
22757W        W38941   6.659  13.822   1.012 -0.1239  0.1867 -0.1857
22758W        W38942  15.829  14.096   5.336 -0.2910 -0.0738 -0.1546
22759W        W38943  19.131  11.150   5.708 -0.1651  0.1471 -0.1363
22760W        W38944   5.344  14.320   4.361 -0.4138  0.0004  0.0084
22761W        W38945   0.913  10.015  10.960 -0.2649  0.2692 -0.0214
22762W        W38946   7.259  12.033  11.261  0.0596 -0.3636  0.0119
22763W        W38947  12.949  13.282  11.550 -0.0762  0.0318  0.0130
22764W        W38948   9.728   5.806  10.375  0.1927 -0.1246  0.1472
22765W        W38949  14.976   1.242  13.035 -0.1306  0.2263 -0.0937
22766W        W38950   1.545   8.246   3.801  0.2122 -0.0414  0.1747
22767W        W38951   6.212   1.361  11.038  0.2021  0.0955 -0.0894
22768W        W38952   9.309  10.966  12.536  0.1067  0.2556 -0.0915
22769W        W38953   2.111   4.656  11.852 -0.1481 -0.2939 -0.0202
22770W        W38954   3.976  17.381  12.742 -0.0839  0.1135 -0.0604
22771W        W38955   4.955  18.649  13.065 -0.0252 -0.2389  0.1957
22772W        W38956   7.471   8.339   0.688  0.0256  0.1905  0.0783
22773W        W38957  17.865  14.807  14.167  0.1410  0.0195 -0.1088
22774W        W38958  10.827   7.765  14.174 -0.2015  0.1868 -0.2077
22775W        W38959   9.327   3.650  14.182 -0.0233  0.1305 -0.1714
22776W        W38960  11.319  11.896   5.370 -0.0585  0.3174  0.2723
22777W        W38961   4.157   7.394  12.145 -0.1169 -0.0907  0.0303
22778W        W38962   4.784  18.309   0.526 -0.1764 -0.2382 -0.0413
22779W        W38963  10.897   1.944   0.283 -0.0894  0.1379 -0.0250
22780W        W38964  15.301   6.953   4.200 -0.1780 -0.0531 -0.2798
22781W        W38965   0.188  11.964   5.809  0.0143  0.2162 -0.1458
22782W        W38966   4.965   0.274  11.080  0.1249  0.2109 -0.0706
22783W        W38967  12.847   7.974   3.436  0.2852  0.0004 -0.3080
22784W        W38968   5.056   9.680   9.953 -0.0908 -0.0343  0.0237
22785W        W38969  14.028   2.562  10.472  0.3047  0.1244  0.2599
22786W        W38970   7.564   5.700  10.897  0.2240  0.1768 -0.1642
22787W        W38971   6.571  11.800   2.910  0.1042  0.2952 -0.2564
22788W        W38972   5.926  15.066   3.712 -0.0290  0.1381  0.2055
22789W        W38973  16.871  10.231   4.239 -0.2409 -0.0439  0.4926
22790W        W38974  10.362  15.239  13.374 -0.0307  0.3466  0.0272
22791W        W38975   5.308   2.812   0.477 -0.1588  0.0623 -0.1534
22792W        W38976  17.706  10.772   5.010 -0.0054  0.0965  0.3183
22793W        W38977   2.085   1.876  14.443  0.3049 -0.1852 -0.0785
22794W        W38978  12.612   4.962  11.157  0.0433  0.0251 -0.4648
22795W        W38979  14.934  13.576   3.540 -0.3483  0.0276 -0.1216
22796W        W38980  15.088  16.340  11.468 -0.3157 -0.3544  0.1127
22797W        W38981   5.510   7.636   0.135  0.1601  0.0948  0.0375
22798W        W38982   4.313   5.763   5.254 -0.0810 -0.2260 -0.1602
22799W        W38983  12.436   0.295  13.784 -0.2927 -0.0364 -0.2865
22800W        W38984  16.963   4.409   3.820 -0.1258  0.0143  0.3184
22801W        W38985   0.280   6.894  13.593 -0.0206  0.2267 -0.0010
22802W        W38986   0.541  15.693   3.543 -0.0604  0.0472 -0.1599
22803W        W38987   5.307  17.662  14.378 -0.2496 -0.1853 -0.0586
22804W        W38988  15.916  12.113   3.456 -0.1526 -0.1064  0.1362
22805W        W38989   2.506   0.244   9.792  0.0599 -0.2250 -0.3145
22806W        W38990  19.370   1.245  12.496 -0.1269  0.0295  0.2264
22807W        W38991   2.551   9.406  12.547  0.0260  0.1878 -0.1741
22808W        W38992  17.236  15.538   1.512 -0.1384  0.1097  0.0149
22809W        W38993   7.526   3.597   2.156  0.2017  0.1245  0.1160
22810W        W38994  15.274   7.230   2.612  0.2268  0.2183  0.4754
22811W        W38995  15.691   9.489  13.826  0.0944 -0.0032  0.1338
22812W        W38996   6.978   6.383   1.170 -0.4125  0.1570 -0.1652
22813W        W38997   1.094   3.619   2.553 -0.1421  0.1259  0.2695
22814W        W38998   1.165  19.332  13.631 -0.0188 -0.0840  0.0021
22815W        W38999   3.761   8.834  12.939  0.1418 -0.0275 -0.3220
22816W        W39000   5.212   4.651  10.754 -0.1747  0.0560 -0.0239
22817W        W39001   7.064   7.969  14.815 -0.0055 -0.1493 -0.0550
22818W        W39002  13.249   8.100  10.280  0.2305 -0.1936 -0.0312
22819W        W39003   9.964   2.704   2.512 -0.0661 -0.0486  0.0338
22820W        W39004   7.970   3.062   3.820 -0.2868  0.0330  0.0038
22821W        W39005  12.128   0.636   0.035 -0.0086  0.1344 -0.0022
22822W        W39006   3.297  14.622   1.455 -0.0976  0.2414 -0.5934
22823W        W39007  11.620   3.229  12.560 -0.0803 -0.1347  0.1906
22824W        W39008  11.088   7.024   1.209  0.0132 -0.1843  0.3481
22825W        W39009   8.690   0.944  13.293 -0.0899 -0.0770  0.1109
22826W        W39010   6.562   8.755   3.633  0.0451 -0.3415 -0.1183
22827W        W39011   3.538  16.959   1.709 -0.0609  0.2635  0.3040
22828W        W39012   8.868   0.475   4.301  0.1860 -0.2081 -0.2283
22829W        W39013   0.123  14.962   1.785  0.3173 -0.1741 -0.2123
22830W        W39014   4.026   9.436  12.350  0.1740 -0.3790  0.0234
22831W        W39015   0.277  10.841   3.312  0.3905  0.3706 -0.0772
22832W        W39016   9.043  13.507  14.120 -0.1204 -0.4551 -0.0175
22833W        W39017   9.278  12.736  12.139  0.0470  0.3613  0.0217
22834W        W39018   9.468  11.311   3.843  0.2219 -0.0290 -0.0661
22835W        W39019   8.169   1.287   4.664  0.2533 -0.0169  0.1755
22836W        W39020   9.228  17.718   4.476 -0.0100  0.1412 -0.0018
22837W        W39021   2.923  12.867   3.076 -0.1020  0.0180 -0.3429
22838W        W39022   4.999  13.520  14.943 -0.0656 -0.0694 -0.1199
22839W        W39023  15.918  13.419   2.083  0.0890  0.1372  0.3370
22840W        W39024   3.719   4.459  12.028  0.2809  0.2236  0.2274
22841W        W39025  10.836   0.657  12.119  0.1583  0.0910 -0.2674
22842W        W39026   0.384  17.241  10.425 -0.0309 -0.0138 -0.0507
22843W        W39027  10.802   5.277   2.181 -0.1504  0.0393  0.3121
22844W        W39028  11.245  10.694   1.785  0.0921  0.0650 -0.0298
22845W        W39029   3.264   7.035   0.332  0.1605  0.3303 -0.2362
22846W        W39030   2.927  15.645   1.896  0.0038  0.0120  0.0073
22847W        W39031  15.154   5.377   2.622 -0.0638  0.0115  0.1998
22848W        W39032  11.230  16.424  11.765 -0.2203 -0.0111 -0.0557
22849W        W39033  19.228   1.035  14.596  0.1627  0.0939 -0.4141
22850W        W39034   0.948  11.935   0.285  0.1579 -0.1081  0.0641
22851W        W39035   2.917   0.812  13.413  0.2423 -0.0122  0.3397
22852W        W39036   0.143  12.677   1.705 -0.0457 -0.1190  0.1216
22853W        W39037   5.465  17.547   4.131  0.1793  0.3585  0.0708
22854W        W39038  18.116   7.223  11.481  0.1386 -0.2587  0.4709
22855W        W39039   1.224   8.499   0.973  0.1061 -0.1099  0.0062
22856W        W39040  16.272  14.820  11.247  0.1041  0.0784 -0.1118
22857W        W39041  10.438  13.996  11.182 -0.1278 -0.0387 -0.1070
22858W        W39042   1.783   2.699   0.386  0.1573 -0.2207 -0.1231
22859W        W39043   8.824  15.850  12.443  0.4076  0.1436  0.1375
22860W        W39044   1.917   0.730  13.919  0.1671  0.3209 -0.1493
22861W        W39045  14.416   3.076  13.508 -0.0498 -0.0811 -0.0936
22862W        W39046  13.403   7.445   4.004 -0.2239  0.1605 -0.2411
22863W        W39047   0.905   3.105   3.308  0.0701  0.2126 -0.1138
22864W        W39048  16.125  18.688  14.098  0.0478 -0.1503 -0.0585
22865W        W39049  14.306   3.361   1.535  0.2892  0.1151 -0.0806
22866W        W39050  17.211  13.144   0.350 -0.1633  0.0516  0.2192
22867W        W39051   9.633   7.293  14.460 -0.0647 -0.0202  0.1858
22868W        W39052  14.401  13.461  14.234  0.0704  0.0906  0.1742
22869W        W39053  10.164   5.646  12.156 -0.2680  0.1455 -0.0352
22870W        W39054  14.228  11.670  13.057  0.1458  0.0816  0.0887
22871W        W39055  18.189  13.937   9.792 -0.4405  0.0942 -0.0160
22872W        W39056  13.938   2.994  13.827 -0.0553 -0.0058  0.2310
22873W        W39057  17.307   9.321   2.331  0.1502 -0.2131  0.5834
22874W        W39058   8.227  14.290  13.158  0.3309  0.0621 -0.1039
22875W        W39059   4.640   9.618  14.409  0.3230  0.1775  0.1485
22876W        W39060  12.526  10.560  12.324 -0.3858 -0.2011  0.1383
22877W        W39061  12.733  10.822  11.663 -0.1190  0.0513 -0.0787
22878W        W39062  10.812   6.733   0.226  0.1970  0.0581  0.4714
22879W        W39063   6.509  12.147  13.990 -0.0849 -0.0485  0.0853
22880W        W39064   5.870   1.426  10.612 -0.0575  0.0007 -0.0723
22881W        W39065   2.606   1.294   0.032 -0.2096 -0.1681 -0.2970
22882W        W39066   6.597   4.461   3.593 -0.0489 -0.1181  0.0688
22883W        W39067  14.063   0.478   0.010 -0.0744  0.0275  0.1427
22884W        W39068  16.824   7.762  10.466  0.1203  0.0124 -0.0593
22885W        W39069  14.042  10.177   3.403  0.0885 -0.0449 -0.1251
22886W        W39070   7.384  17.317  10.854 -0.0483  0.3318  0.0279
22887W        W39071   4.285  11.986  13.844  0.2155  0.1448 -0.0533
22888W        W39072   6.931   0.439   4.489  0.1858  0.0681  0.2136
22889W        W39073   1.300  14.001   9.436  0.0743 -0.0279  0.0802
22890W        W39074   9.390   8.352  11.317 -0.1653  0.2331  0.2075
22891W        W39075  11.585   7.916   1.930  0.1271 -0.0650 -0.3487
22892W        W39076  15.115  17.881   0.268  0.2439  0.3300 -0.3067
22893W        W39077   6.251   5.293   2.276  0.0772 -0.0187  0.0239
22894W        W39078   4.870  12.999   2.623 -0.0162  0.2765 -0.3188
22895W        W39079  18.919   1.135   2.405 -0.1561  0.1787  0.2506
22896W        W39080   6.433  18.757   3.862  0.0374  0.2204  0.1256
22897W        W39081  15.501   3.706  12.709  0.0317 -0.0500  0.3150
22898W        W39082  19.064   5.297  12.933  0.1591 -0.0510  0.0302
22899W        W39083  15.118  17.406  14.577  0.2518 -0.1902  0.0601
22900W        W39084   9.358   0.834   3.560  0.0360 -0.2468 -0.0498
22901W        W39085   4.474  13.332  12.322 -0.1519 -0.0314 -0.0009
22902W        W39086  16.844   2.952   4.187 -0.2829 -0.0318 -0.0743
22903W        W39087  11.551   2.332  11.767 -0.3251 -0.2813  0.0053
22904W        W39088   7.570   7.511  10.667 -0.2034 -0.0784 -0.2748
22905W        W39089   6.328  16.704   0.919 -0.0619  0.2082 -0.1148
22906W        W39090  15.372  11.365   5.418  0.1894 -0.2255 -0.0777
22907W        W39091  14.113  11.562  14.364  0.0596  0.0694 -0.1185
22908W        W39092   6.359   6.090   4.141  0.0857 -0.2016  0.2784
22909W        W39093   8.061  14.539  12.670  0.1540 -0.1365 -0.1979
22910W        W39094  11.081   4.144   3.881  0.1036  0.0686  0.2479
22911W        W39095   9.534  13.815   3.445  0.2056 -0.0609 -0.1484
22912W        W39096   3.414   6.086  14.760  0.0130  0.1533 -0.2340
22913W        W39097   3.054  18.103   9.257  0.0791 -0.1327 -0.0095
22914W        W39098  17.006  10.827   2.293  0.4746  0.5076  0.0707
22915W        W39099   0.095   6.293  12.427 -0.1609 -0.1984 -0.0824
22916W        W39100  15.977  16.113   0.686 -0.2395  0.0624 -0.1139
22917W        W39101   0.308   1.355   0.303  0.0910  0.0373 -0.1158
22918W        W39102  16.551   2.199   9.904  0.3361  0.0611 -0.2142
22919W        W39103   0.336  13.079  13.495  0.0238 -0.3275 -0.2028
22920W        W39104   2.704  17.566   0.860  0.2005  0.0431 -0.0057
22921W        W39105   0.033  13.745   1.495  0.2481  0.1593 -0.1520
22922W        W39106   7.081   6.109   2.576 -0.0878 -0.1624 -0.1383
22923W        W39107  14.498  18.025  12.191 -0.1684 -0.1938 -0.1085
22924W        W39108  15.757   4.949  14.435 -0.1706  0.1417 -0.0942
22925W        W39109  19.169   0.831   2.079 -0.0360  0.2578  0.0312
22926W        W39110   4.304   4.775   3.773 -0.0959 -0.0176 -0.0080
22927W        W39111   8.258   7.148  13.451  0.0102  0.0651  0.2755
22928W        W39112   0.061  15.540   3.212  0.2028 -0.0009 -0.0583
22929W        W39113  10.339   4.765  12.290  0.0996 -0.0451  0.1684
22930W        W39114   0.568  13.291  14.407 -0.1935  0.1056  0.2571
22931W        W39115   3.025   3.837  12.542 -0.2952  0.0560  0.4684
22932W        W39116  16.673  18.085   2.549 -0.1339  0.0636  0.1686
22933W        W39117  17.792  16.605  14.801  0.1395 -0.0953  0.0977
22934W        W39118  10.677   0.172  12.025  0.0671 -0.0455  0.1792
22935W        W39119  11.910   5.290   0.265 -0.0119 -0.4424  0.0547
22936W        W39120   6.104   1.838  13.484  0.0616 -0.2059 -0.0770
22937W        W39121  16.820   7.059  13.763 -0.5725 -0.0801 -0.1691
22938W        W39122  11.145  10.516   3.100 -0.0157  0.0680  0.0403
22939W        W39123   2.172   0.974   1.792 -0.1050  0.3819  0.1416
22940W        W39124   1.826  17.414   1.944 -0.1607 -0.0002 -0.0280
22941W        W39125   6.579   7.232  13.860  0.1412  0.1092  0.1418
22942W        W39126   2.871   8.825   4.805 -0.0232  0.0508  0.0790
22943W        W39127  14.698  18.236   2.553 -0.1424 -0.3157  0.0113
22944W        W39128   0.316  16.786   0.919  0.0540  0.4721  0.0877
22945W        W39129  11.468   9.826  14.459 -0.1515  0.0030  0.0375
22946W        W39130  18.108  12.470  14.065 -0.0574 -0.0217 -0.1682
22947W        W39131   2.405   9.540   3.940 -0.1358  0.0423 -0.1832
22948W        W39132  15.650  12.807   1.650  0.1360  0.4132 -0.1732
22949W        W39133  16.505   5.417  14.868  0.0770 -0.1112  0.0501
22950W        W39134  14.692   9.428  13.161 -0.1002 -0.0852  0.1706
22951W        W39135   8.354  19.204   3.498  0.0201 -0.1781  0.2496
22952W        W39136  11.210   4.187   2.971  0.1341  0.0405  0.0074
22953W        W39137  10.598   7.608  10.006 -0.0324 -0.5174 -0.1176
22954W        W39138   6.839   7.473  13.435 -0.1401  0.1438  0.0854
22955W        W39139   8.396   5.971  11.882  0.0282 -0.1689  0.1141
22956W        W39140   1.101   1.539   2.042 -0.1531 -0.2617  0.1220
22957W        W39141   2.310  10.237  14.082 -0.2692  0.0924  0.1150
22958W        W39142  18.709  15.816   2.801 -0.2748 -0.0729 -0.0315
22959W        W39143   7.563  13.554  14.148  0.0657 -0.1248  0.1859
22960W        W39144   2.103  16.822  10.686  0.2922 -0.2586 -0.0815
22961W        W39145   1.284   5.609   1.396 -0.1369  0.0161 -0.1615
22962W        W39146  16.725  11.467  14.700 -0.3845 -0.2508  0.0848
22963W        W39147  15.727  12.146   4.500  0.1568 -0.1039 -0.3197
22964W        W39148  18.667   5.714   3.763  0.0801  0.0046 -0.1620
22965W        W39149   9.253  19.206   1.100  0.0828 -0.1313  0.0910
22966W        W39150   1.550   8.453   5.274  0.2633 -0.1361  0.2258
22967W        W39151   1.878  18.153  13.178  0.1510  0.0679 -0.0984
22968W        W39152  15.415   3.787  10.685 -0.3598 -0.3365 -0.1244
22969W        W39153   0.884   0.223   0.350 -0.1680 -0.0817  0.2574
22970W        W39154  10.837  18.614  14.508  0.0588  0.4941 -0.2446
22971W        W39155   1.559   9.085  11.753  0.2229  0.1132  0.1575
22972W        W39156  15.326   1.483   0.971 -0.0338 -0.1693 -0.4188
22973W        W39157  17.161  15.940   4.015  0.0073  0.0519 -0.0124
22974W        W39158  15.718   0.610   3.611  0.1094  0.3662 -0.3634
22975W        W39159  10.725  16.939  14.642  0.6201 -0.4569  0.0002
22976W        W39160  12.028  18.514  13.993 -0.3231 -0.0086 -0.0203
22977W        W39161  13.234  16.556  10.828 -0.1251 -0.0537 -0.0153
22978W        W39162   4.715  16.017  12.546 -0.5129  0.3049  0.0441
22979W        W39163   8.808   2.918   3.799  0.0271  0.1130  0.0122
22980W        W39164  16.787  11.493  12.663  0.3962 -0.0177 -0.0832
22981W        W39165   9.476   3.911   1.180  0.1858  0.1323  0.2371
22982W        W39166  13.795  12.766  10.331 -0.0514  0.1145 -0.0378
22983W        W39167  10.021   3.203   3.112 -0.0698  0.2866 -0.0299
22984W        W39168   5.492  18.552  11.156 -0.5174 -0.0787  0.0003
22985W        W39169  10.970   6.906  14.174  0.2891  0.1571 -0.0777
22986W        W39170   6.910  12.059  14.415 -0.1804  0.1405 -0.3381
22987W        W39171  17.484   2.590   4.813  0.1274 -0.4252  0.1693
22988W        W39172  19.284   3.285  12.314 -0.2649 -0.0284  0.3338
22989W        W39173   3.811  14.447  14.669 -0.1877  0.1845  0.0974
22990W        W39174  13.468   1.618  13.765  0.1555  0.0211  0.1296
22991W        W39175   1.182  11.906   5.652  0.0302  0.2843 -0.0397
22992W        W39176   9.219   2.797   3.525  0.0354 -0.0799  0.2809
22993W        W39177  16.752  14.836   2.457  0.0785 -0.3177  0.0909
22994W        W39178   9.734   5.939   5.032  0.1611  0.1218  0.0912
22995W        W39179   3.608  18.773  14.226 -0.0687 -0.0056  0.1848
22996W        W39180   6.712   3.588  12.563 -0.0875 -0.1397 -0.0953
22997W        W39181   9.305   5.609   0.334 -0.2134  0.3187 -0.0511
22998W        W39182  15.465  10.254  14.040 -0.4000  0.0074  0.3701
22999W        W39183   2.923  15.380   0.178 -0.1754 -0.2025 -0.2633
23000W        W39184  11.134   6.766   4.632 -0.1728  0.0010  0.3978
23001W        W39185   6.785  12.532   3.761 -0.1041  0.0130  0.1624
23002W        W39186  13.317  12.012  10.199 -0.1509  0.1459  0.1587
23003W        W39187  15.922  14.053  13.066 -0.1583  0.1176  0.2112
23004W        W39188  14.442  12.348   1.396  0.0581  0.0214  0.1578
23005W        W39189  11.226   1.153  14.182  0.2317 -0.0182 -0.3103
23006W        W39190   7.895   8.137   4.403 -0.2021 -0.1530 -0.1253
23007W        W39191   6.815   3.698   0.957 -0.1610 -0.2395  0.1769
23008W        W39192   2.134  18.516   3.569  0.2589 -0.1550  0.1092
23009W        W39193   0.526   6.561  10.759 -0.1718  0.0672 -0.1594
23010W        W39194  15.413  16.391  10.942  0.2601  0.1950  0.2529
23011W        W39195   0.578   6.757   4.874 -0.0084  0.2970 -0.0682
23012W        W39196  11.785  19.170  10.252 -0.0118  0.3763  0.2086
23013W        W39197  14.294  15.443   2.385  0.0713  0.3815 -0.1482
23014W        W39198  16.059   7.703   4.733 -0.0789  0.1733 -0.2000
23015W        W39199   0.391  17.303  12.311 -0.0881  0.0301 -0.2438
23016W        W39200  14.274   6.225   4.993  0.1064  0.1411 -0.0709
23017W        W39201  10.095  14.890  14.638  0.4093  0.0813 -0.2003
23018W        W39202  18.066   7.852  13.406  0.3453  0.1468  0.2640
23019W        W39203   9.556  18.199  13.706 -0.3561  0.1457  0.1250
23020W        W39204  14.286   6.852   4.128  0.0294  0.0352  0.0135
23021W        W39205  12.179  17.274   3.622 -0.1705 -0.1709  0.2557
23022W        W39206   4.691  14.541   1.373 -0.0118  0.2832 -0.3414
23023W        W39207   9.709   7.763   4.066  0.0178  0.0401  0.0009
23024W        W39208   9.580  14.562   9.884  0.1459  0.4156 -0.2613
23025W        W39209   2.492   2.966  10.517 -0.3060 -0.1567  0.2371
23026W        W39210  12.684   4.130  13.353 -0.0226  0.0148  0.0513
23027W        W39211  19.171  16.142   2.373  0.0684  0.0595  0.0913
23028W        W39212   7.974   2.593   2.675  0.1034 -0.0161  0.0849
23029W        W39213   0.507   1.277   5.030  0.0792 -0.2656 -0.1039
23030W        W39214  13.583  10.391   2.632 -0.3025  0.0101  0.2822
23031W        W39215   2.981  13.550   0.242  0.1821  0.1913  0.1950
23032W        W39216   3.761  16.137   2.877 -0.1510  0.0059 -0.0776
23033W        W39217  11.565   2.981  10.159 -0.1346 -0.0225  0.0844
23034W        W39218  18.729   8.312   2.153  0.0473  0.2048  0.1863
23035W        W39219   9.243  13.711   4.851 -0.0939  0.1080  0.2765
23036W        W39220  18.349   5.053   3.241 -0.0808 -0.0441  0.1090
23037W        W39221  10.950   7.078   2.718 -0.2459 -0.1267 -0.0974
23038W        W39222   7.458  11.823   4.962 -0.4080 -0.1752  0.0360
23039W        W39223   1.393  11.503  13.326  0.0008 -0.2551 -0.1648
23040W        W39224  11.657   7.423   3.290  0.1757 -0.2442 -0.1797
23041W        W39225   0.334   7.499  12.911 -0.0076  0.0132  0.0416
23042W        W39226  12.343  17.944   4.638 -0.0962 -0.2687  0.0684
23043W        W39227  14.896  19.189   3.525  0.0202  0.2186 -0.1521
23044W        W39228   6.297  14.815  10.003 -0.2379 -0.2789 -0.0342
23045W        W39229   9.738   8.912  12.148  0.2303 -0.1672 -0.1768
23046W        W39230  12.055  12.151  12.270  0.1561 -0.2518 -0.0642
23047W        W39231  12.240  10.352   3.255 -0.0078  0.2126 -0.1539
23048W        W39232  13.784  10.612  12.879 -0.4993  0.3037 -0.1056
23049W        W39233   6.719  17.448  10.452  0.3821  0.1421  0.0829
23050W        W39234  12.218   8.697   2.810  0.1181 -0.0329  0.1519
23051W        W39235  16.319   1.786  10.508  0.1178  0.1678 -0.0111
23052W        W39236  16.317   6.159  12.388  0.0572  0.3216  0.3335
23053W        W39237   4.829   1.832   0.904  0.2760 -0.1356 -0.1999
23054W        W39238  12.377  18.658   0.108  0.1574 -0.4402 -0.2109
23055W        W39239  14.996  12.193  10.674 -0.1066  0.1915  0.0342
23056W        W39240  18.366  13.078   2.592  0.0502 -0.0004  0.2247
23057W        W39241   3.159  12.361   4.440  0.2119 -0.0627 -0.1977
23058W        W39242   1.616   0.613   5.603  0.2012 -0.0006 -0.2590
23059W        W39243   1.292   9.616  11.284  0.1968 -0.0741  0.2573
23060W        W39244  11.534   6.024   1.451  0.1038 -0.0109  0.1931
23061W        W39245  17.130   5.431  11.623 -0.2780 -0.2574  0.2161
23062W        W39246  11.374  14.194   4.321 -0.1739  0.2168 -0.0395
23063W        W39247  15.940  18.439   3.190 -0.1332  0.1430  0.0695
23064W        W39248   7.757   6.888   4.399 -0.1237 -0.0081  0.1992
23065W        W39249   1.241  15.239  11.461  0.2816  0.2597  0.2333
23066W        W39250   0.098   5.704  14.818 -0.4216  0.0949 -0.0026
23067W        W39251  17.183   8.065  10.463  0.2874 -0.0317 -0.0409
23068W        W39252   6.064   1.829   5.282 -0.2434 -0.3533  0.1810
23069W        W39253   4.801  15.212   2.608  0.1102  0.0647  0.2560
23070W        W39254   1.296   7.249   4.433  0.0764 -0.0120  0.3492
23071W        W39255  16.853  14.821   5.059  0.1089 -0.0396  0.1523
23072W        W39256  12.832   1.011   4.908 -0.0481 -0.0960 -0.0938
23073W        W39257  12.032   9.208  10.938 -0.0224  0.3162  0.0236
23074W        W39258   3.706  14.948   2.322  0.2023 -0.2939  0.0985
23075W        W39259  16.966  14.366   9.746 -0.0740  0.0544  0.0516
23076W        W39260   8.678  17.181  11.254  0.0644  0.1493 -0.3080
23077W        W39261   8.627  11.098   3.597 -0.2054  0.0167 -0.3993
23078W        W39262  14.550  10.383   2.194 -0.0845 -0.0841 -0.0753
23079W        W39263   0.855   5.063   1.949  0.2131 -0.0754 -0.0741
23080W        W39264  11.013   4.770   0.446 -0.2375  0.1398 -0.1400
23081W        W39265  14.024   6.179   4.552 -0.0356 -0.2270  0.0033
23082W        W39266  17.578   0.702   2.204 -0.1142  0.0138 -0.0219
23083W        W39267  14.490  18.651  10.883 -0.2385 -0.0226 -0.1240
23084W        W39268   5.780   2.012   1.370 -0.1189 -0.2998  0.0535
23085W        W39269   1.627  14.205  14.078  0.1453 -0.3275  0.1318
23086W        W39270   1.662   0.822  10.955 -0.2192  0.0035 -0.0895
23087W        W39271  12.993   1.411  13.626  0.0048 -0.0728 -0.1308
23088W        W39272  16.606   2.614   0.070  0.2557 -0.2032 -0.1810
23089W        W39273  12.192  11.605  10.540  0.1485  0.1784 -0.1258
23090W        W39274  17.538   5.714   2.024  0.1307 -0.3880  0.2313
23091W        W39275  11.587   0.272   4.706 -0.1153  0.2436 -0.0137
23092W        W39276   7.890   1.563  11.091 -0.3021 -0.0800  0.2043
23093W        W39277   1.956   8.336   2.457 -0.1837 -0.2757  0.1423
23094W        W39278   2.455   8.400   4.621 -0.0460 -0.2613 -0.0345
23095W        W39279  10.726   7.387  13.575  0.0007 -0.1166 -0.0701
23096W        W39280  16.901  15.840   2.378  0.0210 -0.0964 -0.2098
23097W        W39281   1.607   9.724  13.631  0.0735 -0.2607 -0.0629
23098W        W39282  13.918  10.257  14.670  0.0979 -0.1798  0.0812
23099W        W39283   2.726   1.949   0.631  0.0050  0.2658 -0.0219
23100W        W39284   3.921  15.206   3.154 -0.0981  0.1931  0.3262
23101W        W39285  19.303   1.465   5.049  0.1385 -0.1583 -0.2052
23102W        W39286   6.603  11.951   0.748 -0.2025 -0.1894  0.1970
23103W        W39287  18.738   7.445   1.752  0.0175  0.0400  0.5240
23104W        W39288  14.651  14.502  12.011 -0.1239  0.2412  0.0031
23105W        W39289  12.284   8.829  13.355  0.0869  0.0188 -0.1621
23106W        W39290  14.593  17.589   2.671 -0.1228 -0.1796  0.1261
23107W        W39291  10.336   8.008   2.717 -0.0631  0.0768  0.0658
23108W        W39292  12.928  12.542   0.158  0.0953  0.1551  0.1498
23109W        W39293   0.020  17.240   9.773 -0.1670 -0.5155 -0.0033
23110W        W39294   2.631  17.585   3.947 -0.2940  0.0638  0.2749
23111W        W39295   7.384   0.340   4.272 -0.1867  0.0867 -0.2720
23112W        W39296  15.662   3.165  14.751 -0.1283 -0.1343  0.1916
23113W        W39297   1.642   3.121   3.736 -0.2808  0.5834 -0.0562
23114W        W39298  14.990  16.501  10.855  0.3818 -0.3452  0.2191
23115W        W39299  17.096  17.739   2.732  0.0613 -0.1728  0.1376
23116W        W39300   0.817   5.310   0.254 -0.1345 -0.1493  0.0973
23117W        W39301   2.339   0.181  11.088 -0.0022 -0.0765 -0.3377
23118W        W39302  18.889   5.014  12.016  0.2262 -0.1680 -0.2229
23119W        W39303  19.261   3.314   1.553 -0.1379 -0.1382  0.3401
23120W        W39304   9.028   0.277   4.728 -0.1644  0.1990 -0.0263
23121W        W39305   0.864   2.144  13.140  0.0826  0.0650 -0.1794
23122W        W39306  15.159   7.586  12.954  0.0742 -0.1252  0.0004
23123W        W39307   1.140   6.133   3.706  0.1164  0.1796  0.1577
23124W        W39308   5.208  19.334   4.292  0.0842  0.4563  0.2341
23125W        W39309  15.305  11.991   4.708  0.1498 -0.1486 -0.1799
23126W        W39310  15.608   6.671   3.732  0.3564 -0.0210  0.1008
23127W        W39311  16.906   9.459   1.905  0.0040 -0.3444 -0.0627
23128W        W39312   0.564   3.435   0.906 -0.1943  0.0883 -0.0806
23129W        W39313   4.469  14.228  11.629  0.1889  0.3320 -0.0478
23130W        W39314  11.394   5.454  13.713 -0.0369  0.5235  0.0163
23131W        W39315   1.724  15.143  10.265 -0.2502  0.3699 -0.4022
23132W        W39316   6.741  19.275  13.670 -0.1716 -0.1461 -0.0175
23133W        W39317   6.477   2.520   3.607  0.2249  0.1202  0.0934
23134W        W39318  17.111  17.449   1.678  0.3642  0.0201  0.4367
23135W        W39319  17.082  11.362   4.823  0.2953  0.0279 -0.3698
23136W        W39320   1.517  12.559  12.528  0.2984 -0.2572 -0.1517
23137W        W39321   2.912   6.096   2.690 -0.0768 -0.4082 -0.0716
23138W        W39322   9.883   4.663  10.452  0.0846  0.1818 -0.1823
23139W        W39323  10.064   6.870  11.029 -0.2568 -0.1334  0.0821
23140W        W39324   4.383  10.495  14.386 -0.0635  0.0089 -0.0611
23141W        W39325  18.618   8.723   1.689  0.0189 -0.2204 -0.3173
23142W        W39326   0.991  19.254   1.806 -0.1934  0.1921  0.2459
23143W        W39327   2.785   9.341   2.185 -0.0118 -0.0356 -0.0764
23144W        W39328  18.259  10.297  12.741 -0.1874  0.0642  0.0229
23145W        W39329   2.443  14.033  13.340  0.1096  0.0428  0.2315
23146W        W39330   4.572  18.878  14.774 -0.1471  0.0251  0.2247
23147W        W39331  17.058  11.229   3.972 -0.1039 -0.1679  0.3227
23148W        W39332  10.799  15.713  12.165 -0.2554  0.1831 -0.1207
23149W        W39333   2.736   5.519  13.744 -0.1118  0.0576 -0.1451
23150W        W39334   1.550   9.632   2.154  0.0300  0.1947  0.3768
23151W        W39335   4.937  13.893  11.746 -0.0175  0.0681  0.1548
23152W        W39336   4.956  12.840   1.749  0.0070 -0.0084  0.2854
23153W        W39337   6.059   6.829   0.215  0.0934  0.0413  0.3103
23154W        W39338  11.642   1.655   0.554  0.2112  0.1797  0.1471
23155W        W39339  12.291  14.266   1.247  0.0496  0.3244  0.0712
23156W        W39340  18.783  17.871  13.234 -0.1299  0.1551 -0.0359
23157W        W39341   8.680  12.194   3.403  0.1667  0.0118 -0.1257
23158W        W39342   7.223  13.331   4.453 -0.1165  0.0517 -0.0128
23159W        W39343  10.350  10.663   0.184  0.3694  0.2862 -0.1603
23160W        W39344   4.787  16.353   3.505 -0.0537 -0.2319 -0.4433
23161W        W39345  16.050  15.462   2.629  0.1653 -0.5469  0.2567
23162W        W39346  17.642   8.383  10.644 -0.3985 -0.0574  0.0687
23163W        W39347   0.688   2.480  13.469  0.1430  0.2583  0.2775
23164W        W39348   7.997  15.227  14.228 -0.3922  0.0564 -0.1979
23165W        W39349  11.403  10.825   3.468  0.1461 -0.3745 -0.0588
23166W        W39350   4.259   8.225  14.009  0.1295 -0.0372  0.2286
23167W        W39351   2.700  13.565   5.935  0.0554  0.3506  0.0726
23168W        W39352   4.042  15.650  10.519  0.1899  0.0846 -0.2803
23169W        W39353   9.091  16.316  13.267  0.2338  0.3299 -0.1207
23170W        W39354  10.247   5.104  11.159  0.0998 -0.0547 -0.0049
23171W        W39355  16.842  16.185   0.996  0.0346 -0.1954  0.3085
23172W        W39356   2.617  19.364   3.550  0.0670 -0.3331  0.3672
23173W        W39357   6.501   4.789  11.712  0.2156  0.2486 -0.1084
23174W        W39358   8.135   6.977  10.936  0.0205  0.0880  0.1268
23175W        W39359   2.003   0.021   3.508  0.0803  0.0181  0.1258
23176W        W39360  17.014  16.011   3.197 -0.0952  0.1810  0.2755
23177W        W39361  14.929  17.193   2.467  0.2322 -0.0585 -0.3467
23178W        W39362   1.943  10.225  12.971  0.2896 -0.3717  0.0529
23179W        W39363   3.914   6.485  12.232  0.1571 -0.2244 -0.1629
23180W        W39364   1.586   2.068   3.805  0.0793  0.0437  0.0982
23181W        W39365   3.924  11.628   3.038  0.2078  0.1075  0.4390
23182W        W39366  10.598  12.649   1.992  0.1991  0.2504 -0.2496
23183W        W39367  18.127   1.805   1.574  0.3632 -0.3272 -0.3077
23184W        W39368   1.805   0.158  13.967  0.2997  0.0907 -0.1438
23185W        W39369   3.350   9.840   4.987  0.1023 -0.1353  0.1628
23186W        W39370  16.719  11.113   3.456  0.0498  0.2597 -0.1427
23187W        W39371  12.386   0.601  10.821 -0.1682 -0.6129  0.3025
23188W        W39372  14.892   0.919  10.863 -0.0661 -0.0962  0.1010
23189W        W39373  14.052   5.300  12.578  0.3324 -0.3134 -0.2320
23190W        W39374  14.780   7.741  14.147  0.1935  0.0627 -0.1533
23191W        W39375   7.806  13.140   5.575  0.1045 -0.1175  0.1986
23192W        W39376  12.732   6.558   1.943 -0.1598 -0.3048 -0.0958
23193W        W39377  10.834   9.336  13.354 -0.3033 -0.0795 -0.3143
23194W        W39378  18.649  14.038   2.290 -0.2386  0.0483  0.3739
23195W        W39379   0.776   1.710  12.959  0.2722 -0.0246 -0.0172
23196W        W39380  16.419   3.337   2.437 -0.0143 -0.1456  0.2625
23197W        W39381   2.874  18.497  13.618  0.1404 -0.1387 -0.1827
23198W        W39382   0.920   6.378   4.970  0.0184 -0.0470 -0.3109
23199W        W39383   4.871  17.214  12.707 -0.0393 -0.1842 -0.1655
23200W        W39384   1.209   3.605  12.844 -0.0557  0.1630  0.2291
23201W        W39385   0.228  16.859  12.528  0.1139 -0.2204 -0.0907
23202W        W39386  10.609  18.636   4.152 -0.0520  0.3898 -0.4998
23203W        W39387  19.232   1.839   3.485  0.1628  0.2216 -0.1587
23204W        W39388  15.340  14.147   9.534 -0.2287  0.1043  0.1154
23205W        W39389  14.333   7.039  14.390  0.1745 -0.2079  0.1580
23206W        W39390  15.909   2.153  13.012  0.0503  0.0848  0.1210
23207W        W39391   7.350   9.261  12.871 -0.1841 -0.1345  0.3726
23208W        W39392  18.467  19.244   4.395 -0.2398  0.2301 -0.4269
23209W        W39393  18.330   7.513   3.617 -0.2023  0.1178 -0.0622
23210W        W39394  15.802  19.089   2.558  0.0374 -0.0629 -0.1265
23211W        W39395   1.151   7.699   5.551  0.1038  0.2675  0.1207
23212W        W39396  16.706  15.271   1.015  0.0133 -0.0913  0.1447
23213W        W39397   0.859   1.326   2.414  0.1522  0.0202  0.0720
23214W        W39398   7.087  18.663  11.588 -0.0594  0.0874 -0.1184
23215W        W39399   7.154  10.026   0.790 -0.1172  0.6016  0.2065
23216W        W39400  13.895  13.989  13.063 -0.1155  0.1383  0.2043
23217W        W39401  12.578  16.423  12.175  0.1361  0.0177  0.1657
23218W        W39402   9.300   3.540   1.425  0.2002  0.2270 -0.1512
23219W        W39403   4.950  17.801  14.806 -0.2597  0.4056 -0.0383
23220W        W39404  17.039  12.922   3.420 -0.0226 -0.0096  0.0858
23221W        W39405   0.328  11.657   5.429  0.3872  0.0937 -0.1543
23222W        W39406   0.682  18.710   3.821 -0.4492  0.1389  0.4373
23223W        W39407   4.747  15.086  11.949 -0.0331  0.3714  0.3795
23224W        W39408  16.118  16.586  11.082 -0.0838  0.2115  0.1419
23225W        W39409   6.649   6.566   0.756 -0.0195  0.1770 -0.4092
23226W        W39410   8.835  11.025   0.758  0.1727  0.0231 -0.2272
23227W        W39411  10.092   0.525   1.425  0.1832  0.0611 -0.4565
23228W        W39412   2.337  14.246   5.845  0.0066 -0.1485  0.2591
23229W        W39413   3.643   7.892  11.749  0.0082 -0.1365  0.2209
23230W        W39414  18.400   4.842   2.716  0.2892 -0.0390  0.0244
23231W        W39415   6.251  11.506   4.680 -0.3231  0.1034 -0.0154
23232W        W39416   8.696   4.345  11.098  0.1407  0.2649  0.2620
23233W        W39417   6.621   8.265   5.411 -0.1161 -0.3448  0.1130
23234W        W39418   7.344  19.066   4.482 -0.1428  0.1490  0.0526
23235W        W39419   2.167   9.921   3.316 -0.4012 -0.0317 -0.2298
23236W        W39420   6.933  15.181   4.633 -0.1224 -0.2270  0.1223
23237W        W39421  12.844   3.800  11.783 -0.1867  0.0070 -0.2034
23238W        W39422  11.031  11.578   0.323 -0.1226  0.3324  0.0832
23239W        W39423  10.139   5.121   3.027 -0.4321 -0.2179 -0.0082
23240W        W39424  10.665  14.165  12.939 -0.0361  0.1250 -0.1889
23241W        W39425  13.275   9.182   4.732 -0.3201  0.2291 -0.0520
23242W        W39426  12.125  11.089  10.735 -0.2794  0.0026 -0.2146
23243W        W39427   2.535   2.167   2.574 -0.0551 -0.2930 -0.1577
23244W        W39428   8.629  12.744  11.537 -0.2701 -0.2696  0.3890
23245W        W39429  14.218  14.407   0.127  0.2826  0.1715 -0.2464
23246W        W39430  16.090   5.523  10.877 -0.0163  0.0541 -0.0114
23247W        W39431   6.803  11.469   0.958  0.0710  0.0851  0.1221
23248W        W39432   2.898  16.523   0.285 -0.0187 -0.1144  0.2527
23249W        W39433  13.957   1.813  13.562  0.0144 -0.0056  0.5167
23250W        W39434  17.068  10.241   2.369 -0.2344 -0.0742 -0.1033
23251W        W39435  18.939   7.846   5.828  0.0802 -0.0299 -0.0290
23252W        W39436   1.524  17.838   1.789 -0.0296 -0.0442 -0.0416
23253W        W39437   1.098   1.816  13.446 -0.1348 -0.4511  0.0154
23254W        W39438  12.445  16.198  13.586  0.1835  0.0801  0.0342
23255W        W39439  11.892   7.509   2.837 -0.1497 -0.0488  0.2167
23256W        W39440   2.493  14.186   3.087 -0.2007 -0.1303  0.4151
23257W        W39441  15.412  18.714  10.888  0.3409  0.1878 -0.6115
23258W        W39442  18.199  15.635  13.852  0.2474  0.0373  0.0954
23259W        W39443   4.979   7.204  12.875  0.4784  0.0407  0.1886
23260W        W39444  16.409   7.728   0.925  0.2748 -0.0659 -0.0995
23261W        W39445  14.334  19.195  14.423 -0.1320  0.1338 -0.2087
23262W        W39446   9.349   3.898   2.635 -0.3371  0.1292  0.2540
23263W        W39447   8.920   0.502   9.381  0.1595  0.1445 -0.1246
23264W        W39448   2.768   6.869   3.573 -0.0589 -0.1011  0.0571
23265W        W39449  18.409  15.872   2.230  0.0600  0.0156 -0.0707
23266W        W39450   0.107   7.946   1.143  0.0799 -0.2535  0.0884
23267W        W39451  12.449   7.037   3.635 -0.0659  0.0979  0.0536
23268W        W39452   7.341   5.912   1.326 -0.0849 -0.3229  0.2758
23269W        W39453  13.885   2.400  12.242 -0.2054  0.4491 -0.0899
23270W        W39454  17.833   0.922   2.586  0.0884  0.2571  0.1126
23271W        W39455   9.072   1.675  10.957  0.2022 -0.0138 -0.2721
23272W        W39456  12.383  15.818   4.014  0.1112 -0.1288  0.0375
23273W        W39457   8.690  13.782   4.643 -0.0828  0.1238 -0.0391
23274W        W39458   5.713   9.894   3.528 -0.2439 -0.0209  0.1808
23275W        W39459  12.542  18.409   4.527 -0.0171  0.3848  0.0554
23276W        W39460   3.647  15.483  13.213  0.0910  0.1364  0.1936
23277W        W39461   1.766  11.346   1.385  0.2195 -0.0017 -0.0047
23278W        W39462   1.190   0.053   3.766 -0.3659  0.2579  0.3314
23279W        W39463  13.051   2.677  11.772  0.3711 -0.0331 -0.5269
23280W        W39464  17.663  15.517   0.177  0.2310 -0.3533  0.2838
23281W        W39465   2.910   5.692   3.043  0.2127 -0.0681  0.2774
23282W        W39466   6.020  18.433  14.292  0.1690 -0.2947 -0.0265
23283W        W39467  17.878   8.646   3.960  0.1968  0.1278  0.0313
23284W        W39468   6.049  13.104   0.801 -0.0620 -0.1323  0.1956
23285W        W39469  13.057  10.510  10.325  0.3187 -0.2861  0.1974
23286W        W39470  10.714   6.422   1.638 -0.1196 -0.0118 -0.1607
23287W        W39471   6.522   9.488   1.407 -0.1060 -0.1250 -0.1625
23288W        W39472   9.272   6.839   3.447  0.2499  0.2321 -0.0216
23289W        W39473   5.004  13.801   1.762  0.1713 -0.2684  0.2554
23290W        W39474  10.681   2.046  13.362  0.0357  0.1255 -0.0644
23291W        W39475  15.352   5.305  10.196  0.2481  0.2064 -0.1681
23292W        W39476  17.726   8.252   4.821 -0.1799  0.0937 -0.2107
23293W        W39477  18.728  15.824  10.263 -0.5792 -0.1132 -0.2258
23294W        W39478  16.405   0.605  14.315 -0.4038 -0.3089  0.1674
23295W        W39479  14.326   3.810   0.147  0.1446  0.2891  0.1102
23296W        W39480   1.806   2.119  14.731 -0.4484 -0.2760 -0.0295
23297W        W39481   8.382  13.955   1.763  0.0110 -0.1707 -0.2658
23298W        W39482  17.576   8.505   4.409  0.0082 -0.0795  0.1617
23299W        W39483  14.151  14.935  11.059  0.4934  0.1421 -0.2320
23300W        W39484   3.717  19.018   4.262  0.3267  0.1719 -0.4649
23301W        W39485   6.549   8.383   2.182  0.1048 -0.2309  0.2068
23302W        W39486   2.233  17.923   9.983  0.6473  0.2639  0.1669
23303W        W39487   8.162  11.295  13.467  0.2063 -0.2624  0.1408
23304W        W39488  14.193   5.705  11.687 -0.0476  0.0087 -0.2417
23305W        W39489   9.906   8.844   4.758  0.0068 -0.0231  0.0302
23306W        W39490  11.851  17.475   2.458  0.3709  0.2777 -0.2020
23307W        W39491  18.681   6.593  12.701  0.2572  0.1703 -0.1722
23308W        W39492  10.384   6.494  13.022  0.0969 -0.0755  0.1394
23309W        W39493   4.560   1.003  10.892 -0.0554 -0.0911 -0.0496
23310W        W39494   2.414  12.992   1.923  0.0533  0.2721 -0.1581
23311W        W39495  11.514   2.446   3.214 -0.3696 -0.2200 -0.1556
23312W        W39496  15.853  17.397   3.506  0.0218  0.4164 -0.0966
23313W        W39497  11.213   9.239   2.657 -0.4657 -0.0329  0.2137
23314W        W39498   5.064  18.932   9.522  0.0146  0.1912 -0.2592
23315W        W39499   7.144   7.333   0.433 -0.2130  0.1289  0.0718
23316W        W39500   1.436   6.594  10.141 -0.1190 -0.2705 -0.1024
23317W        W39501  17.101   8.844  13.176  0.1363 -0.0336 -0.0006
23318W        W39502  10.150  18.637   4.043  0.3296  0.1724  0.0394
23319W        W39503  19.291  14.978   0.667 -0.0052 -0.2938 -0.0916
23320W        W39504  17.137  11.021   4.452  0.1270  0.0069  0.3880
23321W        W39505   3.753   7.541  12.484  0.1603  0.4817  0.1663
23322W        W39506   8.681  17.766  12.080  0.0449  0.1839  0.0460
23323W        W39507   4.428  11.600   2.201 -0.0174  0.2944 -0.2852
23324W        W39508  15.994  10.005   3.593 -0.0702 -0.0312 -0.1924
23325W        W39509   4.925   8.523  13.925 -0.1109  0.1752 -0.2717
23326W        W39510  11.828   6.855  12.560 -0.0560  0.1416 -0.0081
23327W        W39511   3.674   7.437  12.976 -0.2317 -0.0076 -0.0629
23328W        W39512   2.621  13.446   3.859 -0.0717 -0.1486 -0.1099
23329W        W39513   0.632   0.060   1.440 -0.1907  0.0243  0.0653
23330W        W39514  16.182   4.093  12.890  0.3777  0.0556  0.0337
23331W        W39515   5.032   4.232   3.012 -0.0022 -0.2359  0.1643
23332W        W39516   8.348  11.784   5.666 -0.0923  0.2827 -0.0928
23333W        W39517   6.976  18.763   1.638  0.2852  0.0786  0.1463
23334W        W39518  14.744   5.647   2.378  0.1692  0.1136 -0.0048
23335W        W39519   4.682  10.800  13.089 -0.1049 -0.1232  0.2317
23336W        W39520   5.750   9.473   0.652 -0.4444 -0.0548 -0.2922
23337W        W39521   2.597   1.453  13.108  0.1858 -0.1344 -0.2686
23338W        W39522  17.014   2.420  11.307 -0.0526 -0.0053  0.1674
23339W        W39523  16.611   7.455  11.956  0.1422 -0.2602  0.1950
23340W        W39524  11.626   1.439   1.469 -0.2148 -0.3309 -0.0437
23341W        W39525   9.898   5.777  13.579 -0.0923 -0.3778  0.0050
23342W        W39526   2.799   8.452  11.713  0.0460 -0.0631  0.0515
23343W        W39527  16.740   7.602   4.435 -0.1445 -0.3108  0.0103
23344W        W39528   4.950   4.836   5.711  0.2237 -0.0544 -0.1640
23345W        W39529   7.993  19.087  14.134 -0.0887  0.0420 -0.3354
23346W        W39530  14.673  10.547  11.180  0.2264  0.0439 -0.0825
23347W        W39531   6.572  18.118   3.789 -0.1538  0.4007 -0.2371
23348W        W39532  18.122   1.582   2.943  0.0865 -0.1180 -0.0018
23349W        W39533  16.229   4.216  11.082  0.0063 -0.3014  0.0979
23350W        W39534  13.189  18.821  10.111  0.1676  0.0783  0.0119
23351W        W39535  17.289  16.333   0.897  0.0436 -0.0458 -0.1735
23352W        W39536   2.290   1.161   0.790  0.3266 -0.1023  0.0193
23353W        W39537   9.346  14.900  12.604 -0.2013  0.3073 -0.0475
23354W        W39538   4.240   0.734   1.753  0.3247  0.0764  0.2687
23355W        W39539   3.112   0.262   1.262 -0.1874 -0.1793 -0.1933
23356W        W39540   8.952  10.915  13.315 -0.0364 -0.3970 -0.0729
23357W        W39541   0.544   6.991  14.680  0.1724  0.2838  0.1997
23358W        W39542   3.332  12.585  11.366  0.2500  0.2902  0.1846
23359W        W39543  16.490  14.052   0.344 -0.1107 -0.0904  0.2410
23360W        W39544  13.798   0.168  10.749  0.2786 -0.0645  0.2178
23361W        W39545  18.288  17.207  12.572 -0.3416 -0.4132 -0.2161
23362W        W39546   5.747  12.030   5.707  0.1265 -0.1933  0.0491
23363W        W39547  14.762   3.995  10.259  0.4223  0.0743  0.0129
23364W        W39548   8.383   3.038  14.238 -0.0120 -0.2221 -0.0791
23365W        W39549   1.667  15.504   2.485 -0.0196  0.1032 -0.0425
23366W        W39550  18.263   1.904   2.162  0.2914  0.0195  0.0674
23367W        W39551  13.397  16.150  11.351 -0.1109  0.0383 -0.2305
23368W        W39552   3.232  19.227  11.600 -0.0542 -0.3696 -0.0594
23369W        W39553  15.102   4.987   3.008 -0.3216  0.0447  0.0985
23370W        W39554  17.619   6.466   4.062 -0.2084 -0.2658 -0.0724
23371W        W39555   8.863   1.820  12.065  0.4635  0.1427  0.4029
23372W        W39556   5.693   9.123   4.214 -0.0413  0.2794  0.1818
23373W        W39557  17.918   0.981  10.063  0.2330 -0.0741  0.1677
23374W        W39558   8.064  12.841  12.067 -0.3392 -0.0012  0.1937
23375W        W39559   4.313   9.430  14.082  0.1853 -0.0420 -0.1390
23376W        W39560   8.029  17.904  14.862 -0.1322  0.2127 -0.0556
23377W        W39561   2.288   9.359   5.359  0.3797  0.1414  0.0634
23378W        W39562  14.602  16.932   9.837  0.0360 -0.3042 -0.1169
23379W        W39563   0.107   7.781   4.088  0.1608 -0.0381  0.2024
23380W        W39564   9.330  14.321   3.300 -0.5998  0.1112  0.0248
23381W        W39565   6.368   1.623   2.095  0.1479 -0.0920  0.0540
23382W        W39566  11.443   3.312  14.949 -0.1852 -0.0993  0.1386
23383W        W39567   7.611   8.669   4.481 -0.3189  0.0018  0.1206
23384W        W39568  15.544  14.612  13.919 -0.0397 -0.0147  0.0104
23385W        W39569   5.799   3.003   2.069  0.2514  0.0496 -0.0718
23386W        W39570  16.151  13.897  14.838  0.0512 -0.1552 -0.0357
23387W        W39571  11.200   4.271  14.542 -0.0030 -0.1801  0.0835
23388W        W39572  10.268  12.184   2.395 -0.1690  0.0930  0.2201
23389W        W39573   9.109  12.594  11.489  0.0680 -0.2142 -0.3857
23390W        W39574  19.373  15.599   4.757 -0.1468  0.4658  0.1136
23391W        W39575  16.820  10.174   0.344  0.3246 -0.1363  0.0333
23392W        W39576  11.083   2.386   2.910  0.0444  0.0772  0.0424
23393W        W39577  14.186  11.106   2.811  0.2559  0.2675 -0.1148
23394W        W39578   8.282   6.808  14.387 -0.1534 -0.1501  0.2162
23395W        W39579  14.073  13.709  10.073  0.0534  0.0705 -0.0042
23396W        W39580   6.564   0.910  14.895 -0.1330  0.1078 -0.1526
23397W        W39581   0.487   0.695  12.877 -0.1371  0.4646  0.1368
23398W        W39582  14.463  14.310   0.957  0.4590  0.3397  0.0553
23399W        W39583   6.317   1.658   2.723 -0.1351  0.1237  0.2292
23400W        W39584   7.678  17.054   1.172  0.1414  0.0483 -0.0572
23401W        W39585  16.209  11.384   4.249  0.0034 -0.2360  0.0238
23402W        W39586  14.693   1.838  10.556  0.1438  0.1540  0.3190
23403W        W39587   0.389  12.368  14.502  0.1260 -0.0708 -0.1264
23404W        W39588   4.951  12.360   0.354  0.1680  0.1584  0.0880
23405W        W39589   3.720   0.438   1.358  0.0915 -0.0296 -0.5187
23406W        W39590   4.701   6.649  12.141 -0.0802  0.0382  0.1999
23407W        W39591   6.655  18.595   0.497 -0.1506 -0.1231 -0.2688
23408W        W39592  17.943  15.777   4.183 -0.0822 -0.1841  0.0805
23409W        W39593   8.617   2.586  14.405 -0.0627 -0.0247 -0.0408
23410W        W39594   1.064  15.896  12.519 -0.1355 -0.1277 -0.2195
23411W        W39595   6.588   3.598  13.197  0.0090  0.0260 -0.0622
23412W        W39596  16.984  17.149  12.211  0.0157  0.2424 -0.0189
23413W        W39597   5.385  11.469  14.137 -0.0830 -0.1335 -0.4346
23414W        W39598   1.008   5.249  12.791  0.0294 -0.1919  0.1754
23415W        W39599   1.617  15.574  13.689 -0.0529 -0.0057 -0.0312
23416W        W39600   7.455   4.164   3.981  0.2242 -0.0333 -0.1798
23417W        W39601  17.791   0.170  10.721 -0.3007 -0.1774 -0.3115
23418W        W39602  16.517   5.160   3.033 -0.3439  0.4415 -0.1156
23419W        W39603  12.733  10.743   0.710  0.1027  0.2101 -0.1993
23420W        W39604   3.909  19.070  13.219  0.0361  0.0571  0.2296
23421W        W39605  19.039  16.066  14.492  0.0975  0.1765  0.4226
23422W        W39606   4.649  10.466   2.529 -0.1406  0.0138 -0.3343
23423W        W39607  15.194   5.152   0.115  0.2858 -0.3653  0.0839
23424W        W39608  17.994   0.433  14.934  0.2685  0.2227 -0.1534
23425W        W39609   3.750   8.697  11.274  0.0378 -0.0967  0.1729
23426W        W39610  11.354   3.927   0.062 -0.0993  0.1610 -0.1641
23427W        W39611  10.040   5.197   3.885  0.1341 -0.0578  0.1424
23428W        W39612  16.276   7.734  10.644  0.0879  0.2526  0.1198
23429W        W39613   7.808  11.349   2.489  0.1986  0.0494 -0.2706
23430W        W39614  17.472  18.519   1.252  0.1874 -0.0061  0.0437
23431W        W39615   5.439   8.926  11.170  0.2765 -0.0056 -0.2334
23432W        W39616  16.911  14.114   4.411  0.1104  0.1116 -0.2634
23433W        W39617   1.590  17.790   4.052  0.2209  0.0408  0.0585
23434W        W39618  18.531  17.466  14.271  0.2894 -0.0814 -0.3509
23435W        W39619   0.074  10.961  11.806 -0.0184 -0.1097  0.2070
23436W        W39620  10.388  16.677  14.933  0.1748  0.0021 -0.0058
23437W        W39621   6.447  15.098  13.090 -0.1177  0.0587 -0.0103
23438W        W39622  12.636   6.278   2.368  0.0383  0.4316 -0.0219
23439W        W39623   3.665   1.100   1.491  0.0993 -0.0678  0.2024
23440W        W39624  13.701  10.895   1.120  0.0017 -0.0555 -0.0255
23441W        W39625   7.527  14.980   9.507 -0.1231 -0.1982  0.2531
23442W        W39626  14.214   3.812   1.298 -0.0120  0.0679  0.0067
23443W        W39627  10.454   0.822  11.203 -0.0156  0.3180 -0.2660
23444W        W39628  12.366  11.090   5.161 -0.1073  0.0691 -0.0580
23445W        W39629  18.857   5.685   1.592  0.0940 -0.0061 -0.3767
23446W        W39630  16.032   4.256  10.396  0.0180  0.1009  0.0242
23447W        W39631  12.568   1.968   3.768  0.2305  0.0033  0.3346
23448W        W39632   7.965   4.806   1.581 -0.0051  0.3505  0.0989
23449W        W39633  17.308   8.918   9.494  0.2918 -0.0307 -0.2013
23450W        W39634  19.120   2.658  12.135  0.1838  0.1550  0.6453
23451W        W39635   9.881   4.726  11.196 -0.4286  0.2094 -0.2614
23452W        W39636  10.617  17.458   0.556  0.0160  0.1229 -0.1643
23453W        W39637   6.809   8.584   1.162 -0.0657 -0.2101 -0.1229
23454W        W39638  11.161   4.980   3.318 -0.2652  0.2055  0.4375
23455W        W39639  16.839  16.728  13.055 -0.1489  0.0566 -0.1045
23456W        W39640  15.354   7.212   0.962  0.1821  0.5654 -0.1146
23457W        W39641   3.589  14.999  13.379 -0.0124  0.0660 -0.1785
23458W        W39642   3.847  11.832  13.567  0.2604 -0.1973 -0.2635
23459W        W39643   8.065   2.144   3.503 -0.1083  0.1315 -0.4461
23460W        W39644  17.928  13.013  13.845  0.1899  0.0141  0.0580
23461W        W39645  18.431   2.609   0.520 -0.1327  0.1594  0.0692
23462W        W39646   2.584   0.292   0.472 -0.0539 -0.3017  0.2770
23463W        W39647   2.924   8.386   5.057 -0.0515  0.2249 -0.1218
23464W        W39648  16.344   6.199  10.754 -0.3524  0.0961 -0.1161
23465W        W39649  14.129   3.581   0.585 -0.2053 -0.0026  0.0458
23466W        W39650  17.743  10.395  14.209 -0.0076  0.1936  0.1298
23467W        W39651  11.095   0.872   2.033  0.1263 -0.1542  0.1846
23468W        W39652  10.787   0.569  11.558 -0.0173  0.2007  0.0680
23469W        W39653  11.916  14.554  10.535  0.2375 -0.3031  0.1062
23470W        W39654  10.649   4.035   4.202  0.3105  0.0774 -0.0848
23471W        W39655   0.595   1.944  13.519 -0.1170 -0.1576 -0.1649
23472W        W39656   9.973   9.324  12.249  0.2191  0.1414  0.0630
23473W        W39657   7.769   8.436  13.297  0.0758  0.6397 -0.0463
23474W        W39658   4.938   5.978   3.167  0.1140  0.0281 -0.0784
23475W        W39659  10.731   9.529  12.901 -0.1377  0.0699 -0.1334
23476W        W39660  11.626  11.856   2.281  0.0440 -0.2592  0.0380
23477W        W39661   9.981  15.493  12.484 -0.0438  0.2227 -0.0154
23478W        W39662   8.462   1.915   1.982 -0.0229 -0.1415  0.1390
23479W        W39663   8.385  13.574  13.312 -0.1677  0.1750  0.0628
23480W        W39664  18.628   4.268  11.053 -0.0302  0.1829 -0.0840
23481W        W39665   3.700   2.836  14.800 -0.1090 -0.0131 -0.3684
23482W        W39666   7.310   2.378  11.465  0.1831  0.1807 -0.0968
23483W        W39667   9.382   7.570  13.512  0.0529  0.2270 -0.0269
23484W        W39668  19.077   7.896  12.484 -0.0456  0.2294 -0.2949
23485W        W39669  12.408  10.284  12.736  0.2846 -0.0393  0.1311
23486W        W39670  16.832   6.303  14.163 -0.2089 -0.0941 -0.0174
23487W        W39671  19.101   6.562   3.918 -0.0334  0.1576 -0.1625
23488W        W39672   5.812   1.812   1.892 -0.1281  0.0338  0.0751
23489W        W39673  17.433  15.894   1.214 -0.2729  0.0628 -0.0092
23490W        W39674   4.597  18.109  10.391  0.3093 -0.2117 -0.1223
23491W        W39675   2.989  13.682  14.624  0.2262  0.0826  0.1576
23492W        W39676   2.502   8.697  13.284  0.0706 -0.2268 -0.1323
23493W        W39677   0.422   5.645   1.626 -0.2751  0.1933 -0.0326
23494W        W39678  15.220   9.902   3.903 -0.0724  0.1052 -0.1159
23495W        W39679   5.309   6.923  14.376  0.1089 -0.2725  0.0801
23496W        W39680   2.411  17.344  12.762  0.1064  0.0227  0.1198
23497W        W39681  11.205   9.519  11.248 -0.2372 -0.1531 -0.1117
23498W        W39682  12.151   3.659   1.395 -0.0541 -0.4899 -0.3519
23499W        W39683   9.879   7.883  13.660  0.4242 -0.0132  0.3186
23500W        W39684  18.845  18.282   9.835 -0.2351  0.1529 -0.1077
23501W        W39685  18.350   3.006  14.444  0.0347  0.1134  0.1095
23502W        W39686  16.737  14.011  11.390 -0.5234 -0.0548 -0.0364
23503W        W39687   6.998   5.078   1.078  0.0640 -0.0945  0.2658
23504W        W39688   4.692  14.328   3.432 -0.2195  0.1215  0.2059
23505W        W39689  16.839  13.626  12.632 -0.0229  0.3214 -0.2408
23506W        W39690   9.824  13.624  10.622  0.1534  0.0220  0.1675
23507W        W39691   7.847   7.971   0.907  0.1195 -0.0975 -0.2231
23508W        W39692  16.658   0.149   1.518  0.1486 -0.1002 -0.1604
23509W        W39693  11.487   0.519  11.034 -0.0307 -0.3500  0.0071
23510W        W39694   5.552  17.272  11.169 -0.3911  0.1821 -0.0838
23511W        W39695   4.757  10.540   0.569  0.0537 -0.3415 -0.0479
23512W        W39696  11.852  14.477  12.197 -0.1747 -0.2434 -0.2085
23513W        W39697   2.638   8.231   3.715  0.0764 -0.0105 -0.1068
23514W        W39698   4.408   0.242  13.757  0.0664 -0.2024  0.1222
23515W        W39699   7.797  12.075  14.256 -0.0710 -0.1192  0.2913
23516W        W39700   9.459  15.524  11.846  0.2341  0.2132  0.2122
23517W        W39701   8.284   0.854  11.495 -0.1882 -0.0281  0.0676
23518W        W39702   8.878  12.864   3.217 -0.0845  0.2108  0.2133
23519W        W39703   7.683   4.864   2.259 -0.0373  0.1527 -0.0485
23520W        W39704  13.559   1.897  11.407  0.1781 -0.1656  0.1352
23521W        W39705   7.768  11.037   4.520 -0.0589 -0.3171  0.0582
23522W        W39706  15.845   7.698   2.688 -0.2067  0.0965 -0.0162
23523W        W39707   0.953   8.417  13.216 -0.0953  0.0624  0.1565
23524W        W39708  10.058   0.962   3.704  0.0945  0.1176  0.2768
23525W        W39709  16.739  17.483  10.877 -0.2914 -0.3831  0.2877
23526W        W39710   0.878  11.132  14.632  0.1934 -0.3834  0.2072
23527W        W39711  10.757  10.273   9.929 -0.1026  0.1610 -0.0686
23528W        W39712   4.526  10.298   4.069  0.0747 -0.2376  0.0378
23529W        W39713   8.703  13.414  14.666 -0.0944 -0.1552  0.1130
23530W        W39714  16.746   8.257  13.179  0.0845 -0.3121 -0.1317
23531W        W39715   9.092   8.827   4.812  0.2607  0.1270  0.2262
23532W        W39716  16.905   8.657   4.257 -0.2888  0.1193  0.3784
23533W        W39717  11.277   5.731  10.163 -0.0494  0.2223 -0.2200
23534W        W39718  17.664  11.758   0.202  0.3639 -0.2143 -0.0341
23535W        W39719   4.470  14.568  12.879 -0.0298 -0.0661  0.0804
23536W        W39720  14.718   6.909  13.589 -0.1766  0.0214 -0.0184
23537W        W39721   8.617  18.536   2.624  0.0778 -0.0900  0.0596
23538W        W39722  11.406  13.968  11.626 -0.1447  0.2517 -0.0969
23539W        W39723   3.931  11.516   4.263 -0.0358 -0.1842  0.2592
23540W        W39724   3.316   9.067  13.729 -0.1293  0.1595  0.1606
23541W        W39725  17.740  10.409   4.664 -0.0193 -0.2541  0.1125
23542W        W39726   4.202  14.939  12.034  0.1500 -0.2292  0.1372
23543W        W39727  16.311  14.381  13.047  0.0163  0.2952 -0.3338
23544W        W39728  11.549  17.034   4.643  0.3267 -0.3419  0.3525
23545W        W39729  12.103   6.440   8.742  0.1392 -0.0371  0.1590
23546W        W39730   4.856  16.696   0.166 -0.0280  0.2596  0.1769
23547W        W39731   2.720  13.380  11.352 -0.0673  0.1991  0.1910
23548W        W39732   8.131   9.953   5.265  0.2136  0.2350 -0.1792
23549W        W39733  14.012   1.436   3.192  0.1551  0.0248 -0.0409
23550W        W39734  18.075  18.956   9.671 -0.2439 -0.0498 -0.0185
23551W        W39735  10.162  13.694  12.287 -0.2676 -0.0413 -0.0720
23552W        W39736   8.190   7.527   3.733 -0.1909 -0.0863 -0.2261
23553W        W39737   2.894   2.256  13.364  0.0865 -0.3881 -0.0478
23554W        W39738  18.953  15.989   4.391  0.0381  0.1450  0.0880
23555W        W39739   2.729   0.036   2.200 -0.1633  0.0050 -0.1500
23556W        W39740   0.940  12.134  10.418  0.0883  0.1537 -0.0970
23557W        W39741  11.477  11.787  10.909  0.1617 -0.0310  0.0655
23558W        W39742   6.272   8.468   2.972  0.2364  0.1475 -0.2326
23559W        W39743   1.379  15.418   3.252 -0.1550  0.4828  0.1852
23560W        W39744  11.943  12.981   4.609 -0.1556  0.0390  0.1664
23561W        W39745  14.276   7.415   2.303 -0.0633  0.2981 -0.0309
23562W        W39746  13.922  19.162   3.037 -0.0671 -0.3167  0.1164
23563W        W39747  10.289   3.259   1.644 -0.0220 -0.0599 -0.2080
23564W        W39748  12.640  18.188  14.450  0.0830  0.2838  0.0410
23565W        W39749  18.781  17.789   1.849 -0.0128  0.0814  0.3938
23566W        W39750   8.672  17.029   2.283  0.1594 -0.0720  0.0082
23567W        W39751   0.841   3.682  12.123  0.2274 -0.0208  0.2099
23568W        W39752  13.962   0.112   3.716 -0.0317  0.1930 -0.1445
23569W        W39753  18.964  15.031   4.078  0.2850 -0.0342  0.3733
23570W        W39754   6.904   7.942   3.109 -0.0340  0.0372  0.0025
23571W        W39755   1.546   6.047   4.625  0.1036  0.1645 -0.0789
23572W        W39756   5.237   0.631  13.872  0.0012  0.0319  0.2061
23573W        W39757  13.605   8.706   4.073 -0.1231 -0.1488  0.2814
23574W        W39758   4.518   0.513  10.053 -0.1161 -0.1065  0.3510
23575W        W39759  15.316   0.454   0.140 -0.0040  0.0399 -0.0322
23576W        W39760  14.127   1.622   1.946  0.2068  0.0953  0.0288
23577W        W39761   9.722  18.150   4.858 -0.0857  0.1891 -0.1486
23578W        W39762  13.642   9.688   0.308 -0.4152  0.1987 -0.2057
23579W        W39763   1.243  10.803  10.739  0.1200  0.1764  0.0352
23580W        W39764   4.293  15.152   4.865 -0.2091 -0.1923 -0.1604
23581W        W39765   0.920  16.413  11.362  0.0373  0.1642 -0.0397
23582W        W39766  18.191   3.776   2.913  0.2023  0.2601 -0.1273
23583W        W39767  18.798   9.778  11.837 -0.1277 -0.2092  0.0946
23584W        W39768   7.871  18.671   2.691  0.0739 -0.1989  0.0485
23585W        W39769   7.284   9.388  14.212  0.1734 -0.1846  0.1122
23586W        W39770   5.851   5.680  13.701  0.0130 -0.0269  0.1225
23587W        W39771  18.025  18.690   3.516 -0.2021  0.2151  0.0469
23588W        W39772  13.633  17.166   0.801 -0.0662  0.0784  0.3484
23589W        W39773   0.984   8.161   3.931  0.1160 -0.1837 -0.1312
23590W        W39774   9.904  12.326   1.689  0.0756 -0.0705  0.1182
23591W        W39775   5.743  14.105  13.038 -0.1613 -0.6039 -0.0614
23592W        W39776   4.131  15.098  13.949 -0.1425 -0.0651 -0.0938
23593W        W39777  18.739  14.451  12.740  0.1223 -0.1664  0.4544
23594W        W39778  17.271  10.551   4.115 -0.1328  0.2756  0.1439
23595W        W39779   9.069   5.347   0.006 -0.0834  0.2010 -0.2850
23596W        W39780   1.152   2.232  14.194 -0.1934 -0.1063  0.1335
23597W        W39781  13.375   3.086   1.678  0.3571 -0.0537 -0.0706
23598W        W39782  12.488   3.382  10.917 -0.2153  0.1021 -0.4191
23599W        W39783  14.094  18.109  12.673  0.0286  0.1130 -0.1129
23600W        W39784  14.543   5.506  12.559  0.1190 -0.3115 -0.1498
23601W        W39785   9.768  12.973  11.266  0.1725 -0.3525  0.1714
23602W        W39786   6.476  12.689  11.342 -0.4060  0.1239  0.1509
23603W        W39787  11.733   5.855  12.262  0.0300  0.1943  0.1147
23604W        W39788  13.053   5.212   3.352  0.1339  0.1544 -0.0958
23605W        W39789  15.247   6.787   3.162 -0.3254 -0.0864  0.1043
23606W        W39790  11.746   0.210   1.309 -0.2975 -0.0768  0.1655
23607W        W39791  10.634  10.258   0.942  0.3212 -0.3192 -0.1906
23608W        W39792  10.516  14.441  14.550  0.1095  0.0353  0.2057
23609W        W39793   5.114   3.338   3.143  0.2325  0.3013 -0.2519
23610W        W39794  12.270  10.251   4.463  0.0143 -0.2983  0.0576
23611W        W39795   7.717   0.430   1.522 -0.1722 -0.0450 -0.2163
23612W        W39796  18.422  15.418  11.378  0.0795 -0.3637 -0.0900
23613W        W39797   5.943  16.306   0.704 -0.0297 -0.0212 -0.1204
23614W        W39798   0.674   1.124  13.071  0.4474 -0.2006 -0.0194
23615W        W39799   4.478   1.029  11.379  0.0427 -0.2682 -0.1955
23616W        W39800  10.622   8.853  11.923 -0.3266 -0.2047  0.1241
23617W        W39801   6.124   4.131   4.736 -0.1970 -0.0018  0.0253
23618W        W39802  16.640   0.181  11.380  0.0282 -0.1129 -0.2061
23619W        W39803  16.262  10.493  13.580  0.0945  0.1234  0.0228
23620W        W39804   4.316  17.840   2.479 -0.2389 -0.3070  0.1150
23621W        W39805   6.528   7.346   3.871  0.1241  0.1788  0.0422
23622W        W39806   5.303  12.074   6.003 -0.2027 -0.1923  0.1342
23623W        W39807   0.504  13.788   0.109 -0.1430 -0.0446  0.0267
23624W        W39808   8.134  10.330  12.987 -0.4108 -0.0424  0.1089
23625W        W39809   6.376   1.930   3.992  0.1040  0.1568 -0.1303
23626W        W39810   8.131  11.874  10.526 -0.1693 -0.2571  0.0834
23627W        W39811   2.488  10.987   2.144 -0.1944 -0.0808 -0.2723
23628W        W39812  16.329   9.014   0.221  0.1212 -0.2103  0.0292
23629W        W39813   7.383   3.199   0.320 -0.3677 -0.6551  0.1634
23630W        W39814  18.232  11.833   1.735 -0.2509  0.2566  0.2045
23631W        W39815   9.281   6.965   2.873 -0.4042 -0.0381 -0.1897
23632W        W39816   6.747  17.070   5.319 -0.0404 -0.3669  0.0522
23633W        W39817  19.261   1.716   1.071 -0.1238  0.0339 -0.2449
23634W        W39818  10.033   1.990   0.372  0.2479 -0.2643  0.1486
23635W        W39819   9.676   2.867  10.223 -0.1564  0.2532  0.0629
23636W        W39820  11.393   3.663   3.813  0.2417  0.5109 -0.0547
23637W        W39821   4.531   8.530   3.910 -0.0292 -0.3681 -0.1911
23638W        W39822  13.307   6.039   3.005  0.0041 -0.1060  0.0936
23639W        W39823  11.842   7.635   2.323  0.0933  0.3053 -0.0926
23640W        W39824  17.904  10.689   2.449 -0.2455  0.0104 -0.1214
23641W        W39825  16.338   8.389  11.798  0.0838 -0.0946  0.2071
23642W        W39826  15.666   5.037  12.759 -0.2587  0.0891 -0.0283
23643W        W39827  18.172  19.030   4.062  0.3458 -0.1219  0.1373
23644W        W39828  16.559   6.245  13.727  0.1045  0.0814 -0.0677
23645W        W39829  15.692   4.126  13.888 -0.1941 -0.2893 -0.1687
23646W        W39830   7.747  17.901  10.388 -0.1959  0.1039  0.1550
23647W        W39831  13.811  19.338   2.111 -0.1431  0.4386 -0.1327
23648W        W39832  18.355   8.664   5.207 -0.2919  0.0519 -0.2677
23649W        W39833  18.574   1.838  12.997  0.0445  0.1059  0.0824
23650W        W39834   4.027  16.262   9.725 -0.0691  0.0218 -0.5047
23651W        W39835  13.228  17.241   4.591  0.4531  0.0123  0.2065
23652W        W39836   9.221  16.974   3.855 -0.1104  0.2007 -0.4521
23653W        W39837  17.967  14.353  10.148  0.1061 -0.0460 -0.2891
23654W        W39838   7.721   1.560  14.237  0.2470  0.0438 -0.1654
23655W        W39839  16.982   1.449  12.275 -0.0947  0.0420 -0.1436
23656W        W39840   3.359   7.403  10.922  0.3282 -0.0623 -0.2997
23657W        W39841  11.969  10.986   2.240 -0.2541 -0.0692 -0.3597
23658W        W39842  18.882  14.314   5.757 -0.0539 -0.3012 -0.1148
23659W        W39843  16.373   7.715   2.462  0.2540  0.0516  0.1180
23660W        W39844  12.427  15.116  13.731 -0.1458 -0.0343 -0.1683
23661W        W39845   0.090  10.756  13.934  0.2203  0.1672 -0.2397
23662W        W39846   9.525   6.323   4.228 -0.0920 -0.1697 -0.1642
23663W        W39847   5.084  17.553   0.372 -0.0289  0.2886  0.2626
23664W        W39848  10.799  10.452   3.646  0.2247 -0.0538 -0.2293
23665W        W39849   1.045   4.099   5.143 -0.1665  0.3057 -0.0944
23666W        W39850   8.015   0.223   2.109 -0.0017  0.1890  0.2545
23667W        W39851  16.215  16.854   5.189  0.0028 -0.0245 -0.0610
23668W        W39852   5.441   3.413  13.119 -0.0228  0.0520  0.0921
23669W        W39853   0.202  13.077   1.359 -0.0870 -0.3616 -0.0850
23670W        W39854   2.677   9.351   4.869 -0.2146  0.0107  0.0776
23671W        W39855   0.751  13.252   3.762 -0.0566 -0.2884  0.1277
23672W        W39856   8.954   4.449   0.704  0.1368  0.0854 -0.0068
23673W        W39857  12.645  12.147  10.848  0.0383  0.2822  0.1079
23674W        W39858   9.384   8.904  11.220 -0.0663  0.0612 -0.0378
23675W        W39859  11.689  17.340  10.651 -0.2418 -0.2393  0.1393
23676W        W39860   0.058   6.593  14.933 -0.1774  0.1443 -0.0548
23677W        W39861  19.302  11.766  11.924  0.2493 -0.0420  0.0139
23678W        W39862  14.065  14.418   0.676 -0.2423 -0.3093  0.2143
23679W        W39863   4.263   0.933  13.059  0.2832 -0.2593 -0.2942
23680W        W39864   9.382   6.216   0.154 -0.1720  0.0765  0.0754
23681W        W39865   4.680   5.840   3.726  0.1707 -0.0204  0.0315
23682W        W39866  16.415   9.436   0.560  0.1631  0.2207 -0.0034
23683W        W39867   9.129   0.892  13.060  0.1984  0.1821  0.1299
23684W        W39868   8.125  12.739   2.048  0.2142 -0.2657 -0.0417
23685W        W39869  10.971   1.081  12.836 -0.0733  0.0809 -0.0597
23686W        W39870  16.097  12.041  13.275  0.0905  0.0147  0.2831
23687W        W39871  17.792   4.597   4.239 -0.1327 -0.1455  0.1925
23688W        W39872  14.656  18.660  11.444  0.2133 -0.3734 -0.0611
23689W        W39873   8.809  14.364   0.740 -0.1855 -0.1955  0.2853
23690W        W39874   0.770  15.133   0.945 -0.2792  0.2332 -0.2181
23691W        W39875   4.485   8.962   3.585 -0.3325 -0.1880 -0.2459
23692W        W39876   1.560  19.067  14.107  0.0924  0.1927 -0.1107
23693W        W39877   8.663   1.642  13.724 -0.1511 -0.1653  0.1092
23694W        W39878  14.361  14.341  12.481  0.0108 -0.0252 -0.2567
23695W        W39879  16.718  12.730  13.057  0.2205  0.1865 -0.2736
23696W        W39880   1.100   0.915  10.639  0.0174  0.1569  0.3699
23697W        W39881  10.741   0.696   0.229 -0.1277 -0.1105  0.0143
23698W        W39882   4.603   8.291  13.497  0.3522 -0.0145 -0.3276
23699W        W39883   3.124   5.442  10.983  0.1699  0.0494 -0.2985
23700W        W39884   5.293  15.275  12.735 -0.3605 -0.0065  0.2308
23701W        W39885   0.531   5.085  10.387 -0.2942 -0.1736 -0.0320
23702W        W39886  10.770  16.306   0.931 -0.2488 -0.0425 -0.0700
23703W        W39887  15.168   4.151  14.758 -0.2476  0.2572  0.1109
23704W        W39888  15.970   1.039   3.287 -0.1942  0.3969  0.0348
23705W        W39889  13.671  14.779  14.446  0.0044 -0.0120  0.0285
23706W        W39890  10.356   3.988   0.657 -0.1015 -0.1019 -0.3673
23707W        W39891  13.134  13.015   0.193  0.0225  0.0862  0.1302
23708W        W39892   7.262   9.029   0.194 -0.4025 -0.3050 -0.2631
23709W        W39893   7.068   8.064   5.275 -0.1628 -0.1965 -0.2381
23710W        W39894   2.128  14.886  10.430 -0.0461  0.1263  0.0423
23711W        W39895  18.588   9.586   2.697  0.3178 -0.0514  0.0176
23712W        W39896  18.435  10.374  12.271  0.0601 -0.0104  0.1084
23713W        W39897  15.647   0.157   0.641 -0.0651  0.3240 -0.3663
23714W        W39898   1.384  12.597  12.048 -0.0167  0.0383 -0.0797
23715W        W39899  16.924  17.898   4.247  0.1850 -0.1963  0.1392
23716W        W39900   7.104  14.833  10.814  0.1096 -0.2136 -0.0657
23717W        W39901  12.200  14.068   2.018 -0.0283  0.0239 -0.5091
23718W        W39902   4.682   4.676   4.490  0.1716  0.0989  0.2900
23719W        W39903   1.055   5.448   0.687 -0.2751 -0.0319 -0.1273
23720W        W39904   9.602  12.437  14.549  0.1447 -0.2328 -0.0959
23721W        W39905   4.909   9.578   3.032 -0.0228 -0.0807 -0.0739
23722W        W39906  14.528  12.762  12.476 -0.0193  0.1683  0.2935
23723W        W39907   2.440   4.721  13.633  0.2103  0.0597 -0.1677
23724W        W39908  18.151   7.057  10.319 -0.1732  0.0450 -0.1792
23725W        W39909  15.102   2.226  10.177 -0.0674  0.2275 -0.0936
23726W        W39910   2.067   9.835   4.293  0.3095 -0.0643  0.1777
23727W        W39911   3.458  15.116   1.450  0.0590  0.0863 -0.2079
23728W        W39912   3.656   1.809   3.569 -0.2528 -0.0307  0.0876
23729W        W39913  17.649   0.306  11.613 -0.1444  0.1423  0.2343
23730W        W39914   9.906   1.884   3.401 -0.0368  0.2692  0.4041
23731W        W39915   0.162  13.766  12.812  0.2379  0.1514  0.0227
23732W        W39916  16.061  19.185   2.047 -0.0479 -0.1491 -0.0563
23733W        W39917  17.408  14.821  10.479  0.3523 -0.3729  0.0081
23734W        W39918   9.672   0.589  14.052  0.1957 -0.2705 -0.3954
23735W        W39919   9.865  14.066   4.088 -0.0559  0.0426 -0.0024
23736W        W39920   2.794   9.331   4.218 -0.2322 -0.2218 -0.0179
23737W        W39921  12.732  16.301  14.566  0.0688 -0.0739 -0.1998
23738W        W39922   4.030  12.677   2.470 -0.1021  0.1078  0.0297
23739W        W39923   3.248  15.425  13.510  0.0546  0.1534 -0.0805
23740W        W39924  14.394   8.223   5.291  0.3843 -0.0005 -0.2404
23741W        W39925   1.555   0.709   1.510 -0.0521 -0.2190  0.0805
23742W        W39926  13.426  15.349   0.343 -0.0175  0.4699  0.1126
23743W        W39927  11.958  11.517   4.680  0.4342  0.1268  0.3180
23744W        W39928   8.639  11.350  13.293  0.1510 -0.1158  0.0871
23745W        W39929  16.398  13.655  12.905  0.3652  0.1705  0.0116
23746W        W39930  11.863  14.077   4.256 -0.2369 -0.3271  0.0651
23747W        W39931   8.276   7.484   1.570  0.0300 -0.1695  0.3237
23748W        W39932  16.838  15.908  10.087  0.0983 -0.0020 -0.0914
23749W        W39933  15.617   5.472  12.479 -0.0633  0.0499 -0.1031
23750W        W39934   3.746   6.453   4.514 -0.4183  0.0132 -0.1785
23751W        W39935  12.843   8.709   4.675  0.0445 -0.1060  0.2395
23752W        W39936  19.389   3.660   3.360  0.1081  0.0213 -0.0312
23753W        W39937   1.501   2.302  13.272 -0.2842  0.1203  0.0993
23754W        W39938  18.776   0.744   5.071  0.0273 -0.1584 -0.1322
23755W        W39939   7.236  15.521   3.736  0.1980  0.2502 -0.0237
23756W        W39940  12.957   1.782   0.482 -0.1848  0.1227 -0.1867
23757W        W39941  16.036  10.259  12.584 -0.3821  0.0415 -0.0452
23758W        W39942  11.486   2.250   9.352 -0.1689 -0.1402  0.2670
23759W        W39943   4.959  10.088  11.961  0.2035 -0.1032  0.1667
23760W        W39944   2.308   1.501  10.886 -0.1175  0.2579 -0.3776
23761W        W39945  16.090   7.815  12.869  0.1531 -0.2530  0.3144
23762W        W39946  13.965  16.491   0.260 -0.0875  0.0769  0.0962
23763W        W39947   6.342   3.148  13.162 -0.2411  0.1047 -0.0227
23764W        W39948   1.374  12.728   1.096 -0.2364  0.0372  0.0317
23765W        W39949   8.310   2.352  10.051 -0.2821  0.0494  0.0314
23766W        W39950   5.640  18.759  13.708  0.0637  0.2696 -0.2069
23767W        W39951   2.340   6.417  13.622  0.1426  0.4580  0.0424
23768W        W39952   8.608   5.111   2.854 -0.1807  0.0102  0.1492
23769W        W39953   8.545  14.489   1.635  0.3300  0.0443  0.0061
23770W        W39954   8.033  17.846   2.755 -0.1211  0.0347 -0.0208
23771W        W39955  15.268  10.793   2.513 -0.0162 -0.0795  0.0586
23772W        W39956   8.050   0.871  10.425  0.2279 -0.0931  0.0516
23773W        W39957  15.390  12.507  14.724 -0.0669 -0.0298  0.1106
23774W        W39958  10.968  10.507   4.686 -0.1421  0.0979 -0.1341
23775W        W39959   7.325  10.402  13.996 -0.1751 -0.3141  0.3199
23776W        W39960  18.410   8.267   1.783 -0.0275  0.0448 -0.2348
23777W        W39961   8.175  14.716   4.769 -0.1271  0.1857 -0.0122
23778W        W39962  13.293   4.126  12.536  0.1518 -0.0231 -0.0210
23779W        W39963  16.393   7.919  10.230  0.1730 -0.0688  0.1252
23780W        W39964   1.675  17.437   4.436  0.0834  0.0082 -0.6766
23781W        W39965  17.451   1.739   3.184 -0.2301 -0.2513 -0.1830
23782W        W39966  14.098   2.524   0.549  0.1024  0.1576  0.5575
23783W        W39967  12.315   6.679  13.921 -0.0637  0.1405 -0.0557
23784W        W39968   0.700  17.825   0.255 -0.0919  0.1481  0.0507
23785W        W39969   5.941  15.757  12.155 -0.2198  0.3111 -0.1049
23786W        W39970   5.606   7.536  11.647 -0.1921 -0.0189  0.1590
23787W        W39971  12.832   6.716   0.498 -0.0624  0.0388 -0.0830
23788W        W39972  18.285   4.402   2.262  0.1842 -0.0167  0.2912
23789W        W39973   8.896   6.269   4.072  0.3023 -0.0176 -0.1819
23790W        W39974   7.460  11.226   4.897  0.0877  0.0193 -0.3233
23791W        W39975   8.871   8.861  10.767  0.0548 -0.0142  0.0295
23792W        W39976  10.031   4.444  14.492  0.2766  0.4660 -0.0087
23793W        W39977  19.088   4.398  10.824  0.0492  0.1273 -0.1943
23794W        W39978   5.139   5.873  10.933  0.2683  0.1596  0.1041
23795W        W39979  11.083   7.749  10.589 -0.3774 -0.2647  0.2289
23796W        W39980  16.926  17.232  14.814  0.2422 -0.0939  0.0558
23797W        W39981   0.250  15.473  10.568  0.0831 -0.3107  0.5848
23798W        W39982  14.744  11.179   3.359  0.0787  0.0361  0.0789
23799W        W39983   1.956   1.833   4.170  0.0894  0.0752 -0.0738
23800W        W39984   8.048   2.728  12.904  0.0085  0.3913  0.4314
23801W        W39985   8.452   1.052   1.135  0.0946 -0.0174 -0.0750
23802W        W39986   6.107   7.346  13.368  0.1610  0.1427  0.0551
23803W        W39987  19.170   8.109   2.181  0.1479  0.3739 -0.3601
23804W        W39988   3.960  13.061  13.933 -0.0942 -0.1982  0.1273
23805W        W39989   8.738  17.393   1.918  0.0447  0.4356  0.0858
23806W        W39990   1.894   3.849   0.071 -0.0586  0.0787 -0.0926
23807W        W39991  17.760   0.671  10.507  0.1101 -0.0661 -0.0764
23808W        W39992   3.011   0.542   0.683 -0.1286 -0.1789 -0.1113
23809W        W39993  13.556  18.711   1.790  0.1542  0.2122  0.0847
23810W        W39994   7.347  17.640   2.191 -0.1734  0.2892  0.2872
23811W        W39995   7.557  10.908   0.745 -0.1953  0.0731  0.0175
23812W        W39996   6.648  13.600   0.348  0.0888  0.1252 -0.0104
23813W        W39997  16.531   6.494   0.304 -0.0198 -0.1103 -0.2519
23814W        W39998   4.365  11.414  13.049  0.2243  0.1641 -0.0036
23815W        W39999  13.299  17.776  14.802  0.0067  0.1367 -0.0783
23816W        W40000   0.998   3.213   0.105  0.3102 -0.1451  0.0416
23817W        W40001   0.518  16.635   3.681  0.1565  0.1607  0.2339
23818W        W40002  14.828  13.552   2.492  0.0317 -0.0474 -0.2161
23819W        W40003   9.694   3.545   2.025 -0.3667 -0.2299  0.3136
23820W        W40004  12.845   4.344  10.279  0.0260 -0.2202 -0.3869
23821W        W40005  10.720   7.939  13.514 -0.2836 -0.1349 -0.2363
23822W        W40006  13.646   7.848   4.152 -0.4453 -0.4860  0.0310
23823W        W40007   7.159   9.321  14.707  0.0355 -0.0207 -0.0207
23824W        W40008  17.801  14.705   2.587 -0.0001 -0.0889 -0.0493
23825W        W40009   2.022   4.161  13.766  0.1081  0.1012  0.0593
23826W        W40010   7.212  18.052   1.176 -0.0286 -0.3295 -0.2314
23827W        W40011   6.105  11.508  11.059  0.0170  0.0051 -0.2477
23828W        W40012  19.084   5.964  11.267 -0.0072 -0.1161  0.2088
23829W        W40013   4.558   5.562   0.398 -0.0572 -0.0761 -0.4057
23830W        W40014   0.945  14.032  13.528 -0.2405 -0.1020  0.1058
23831W        W40015   5.681  13.051   3.441  0.3089  0.0196 -0.1583
23832W        W40016   1.268   9.307  12.167  0.2059 -0.1653  0.2642
23833W        W40017   0.700   7.665  11.579  0.1372 -0.1311  0.1649
23834W        W40018  17.670  17.693  11.725  0.1066  0.1413  0.0180
23835W        W40019   8.757  13.399  13.693 -0.1825  0.0123  0.3891
23836W        W40020   8.051   8.665  14.333 -0.1028  0.0994  0.0699
23837W        W40021   8.503  17.420  13.762 -0.2099 -0.2314 -0.2856
23838W        W40022  13.274   6.532  12.138  0.2009  0.1103  0.0272
23839W        W40023  13.356   4.498  12.905  0.0215 -0.1766  0.2433
23840W        W40024   6.077   9.223   1.346  0.1754  0.2443 -0.0144
23841W        W40025   1.026  12.465  14.943 -0.0375  0.3237 -0.3768
23842W        W40026  10.627  10.689   3.265 -0.2869  0.1907 -0.2658
23843W        W40027   8.942   2.584   2.449  0.0930  0.0516 -0.2443
23844W        W40028  17.332  14.122   2.770  0.0005  0.0909  0.0665
23845W        W40029   6.396   3.510   3.521 -0.4032  0.0907 -0.0623
23846W        W40030  11.776   3.895   4.140  0.0533 -0.0613  0.1043
23847W        W40031   2.576  16.823  10.672 -0.0475  0.0564  0.1794
23848W        W40032  14.692   8.672   5.497  0.0787  0.0056  0.0511
23849W        W40033  14.866  10.339   3.758 -0.2248  0.0179  0.2985
23850W        W40034   6.755  13.293   4.632 -0.2157  0.0251 -0.0127
23851W        W40035  19.149  12.057  11.150 -0.1295  0.1726 -0.0038
23852W        W40036   6.596  12.479  14.338  0.2700 -0.3651  0.0403
23853W        W40037  15.967   3.113   3.595 -0.0740 -0.2558 -0.0503
23854W        W40038   7.757  17.220  14.083  0.2288  0.2764 -0.0413
23855W        W40039  11.694   5.172  13.361  0.0818 -0.0259  0.1009
23856W        W40040   4.173  16.701   3.033  0.0029  0.0202 -0.0152
23857W        W40041   0.431   0.964   4.189 -0.0239  0.0726 -0.2612
23858W        W40042   6.469   9.781   3.104  0.0341 -0.2444  0.1292
23859W        W40043   6.401  13.220   2.689 -0.4406  0.2048  0.1685
23860W        W40044   8.707  10.315   0.181  0.1135  0.1030 -0.0506
23861W        W40045  17.215   2.535   4.313 -0.6275  0.1780  0.0477
23862W        W40046  14.533  16.777   2.535  0.1497 -0.0435  0.1116
23863W        W40047  13.623  13.666  13.562  0.2999 -0.2200 -0.0398
23864W        W40048   4.821   6.049   0.517  0.3374 -0.1566  0.1655
23865W        W40049  18.931   9.431   0.892  0.1135 -0.0069 -0.0632
23866W        W40050   7.205   1.654   4.592  0.0682 -0.0832  0.0228
23867W        W40051  17.127   2.914   3.662 -0.0306 -0.0690  0.3053
23868W        W40052  14.391   4.195  11.915 -0.0726 -0.4107 -0.2090
23869W        W40053  10.985  13.800   3.247 -0.1043 -0.0308 -0.1329
23870W        W40054  18.187  17.451   3.516  0.3239  0.0945 -0.1104
23871W        W40055  12.120  12.187   4.266 -0.1344 -0.3466  0.0003
23872W        W40056   1.062   8.176  10.908  0.1778 -0.1689  0.2290
23873W        W40057  15.255   8.060  13.166  0.2316 -0.4463  0.1195
23874W        W40058   0.750   3.191   2.718 -0.1684 -0.0638 -0.0090
23875W        W40059   9.931   6.191  10.595  0.1564 -0.1388  0.4051
23876W        W40060  14.241  15.945  11.663 -0.1487  0.3078  0.0267
23877W        W40061   1.701  18.836  14.547  0.0144 -0.1906  0.0902
23878W        W40062   8.517   6.062  14.946  0.0316 -0.2042  0.1083
23879W        W40063   4.518  12.266  13.445 -0.2128  0.0827  0.1708
23880W        W40064   1.322   6.444  11.901 -0.1664  0.2094  0.4976
23881W        W40065   8.843  11.700  12.839 -0.1128  0.1100 -0.2359
23882W        W40066  12.305  10.998  14.445  0.0385  0.0402 -0.1197
23883W        W40067   5.334   3.471   4.012  0.0613 -0.0979 -0.2997
23884W        W40068   7.962  10.280   4.899 -0.2376 -0.1139 -0.0443
23885W        W40069  13.905   4.633   0.220 -0.0355 -0.0942  0.1933
23886W        W40070  10.851   1.449   3.738  0.0145  0.0115 -0.2971
23887W        W40071   2.511   3.750  12.729 -0.1174 -0.2399 -0.0000
23888W        W40072  19.390  15.709  11.871 -0.0498 -0.0133  0.0754
23889W        W40073  13.139  15.604   9.231  0.1668  0.2887  0.0330
23890W        W40074  13.753  18.060   9.436  0.3664  0.0205  0.0193
23891W        W40075   3.735  10.482  13.209  0.0729  0.0302 -0.2297
23892W        W40076  12.611   4.776   3.340  0.0696 -0.1063  0.0138
23893W        W40077  10.415  10.079   3.901 -0.2627  0.2437 -0.0663
23894W        W40078   5.620  18.136  12.073  0.3014  0.1860  0.0372
23895W        W40079  12.220   4.371   4.260 -0.0992  0.0585  0.2573
23896W        W40080   5.342   2.536  11.690  0.1142 -0.1403 -0.1130
23897W        W40081  15.685   6.394   2.550  0.2274  0.1402 -0.1548
23898W        W40082   7.084   3.228   2.034  0.1596  0.0482  0.1247
23899W        W40083   5.028  13.347  11.741 -0.1356  0.2407  0.0863
23900W        W40084  17.915   6.678  11.684 -0.2674 -0.6292 -0.1439
23901W        W40085  17.452  16.337   3.597  0.3258 -0.1297 -0.0198
23902W        W40086  15.300  16.490   0.954  0.2851 -0.1499 -0.0278
23903W        W40087   7.769   4.552  12.536  0.2440  0.0307 -0.2004
23904W        W40088   6.672   6.683  13.044 -0.1992  0.0421 -0.0568
23905W        W40089   6.530  14.762  10.898 -0.3344  0.1668  0.2543
23906W        W40090  18.863   4.212   1.692 -0.1320  0.0984  0.0327
23907W        W40091  14.096   4.772  12.312 -0.2185  0.2387  0.0090
23908W        W40092   7.008   8.612  11.624 -0.2170 -0.4785  0.0427
23909W        W40093  18.243   8.626  11.304  0.1673  0.1921  0.0008
23910W        W40094   5.497   6.548  12.597  0.2640  0.2951 -0.0600
23911W        W40095  14.978   0.418  11.576  0.0922 -0.1165 -0.1422
23912W        W40096  18.601   8.959   0.657  0.2678  0.1734 -0.1433
23913W        W40097   5.091   1.989   3.402  0.0918 -0.0788  0.1637
23914W        W40098  17.612   5.880  14.087  0.0614 -0.4980 -0.2336
23915W        W40099   7.369  18.889  14.726 -0.1337 -0.1422  0.0287
23916W        W40100  14.361  17.702  12.577  0.3034 -0.4331 -0.1462
23917W        W40101   5.921  10.555  13.133 -0.1077  0.2357  0.1331
23918W        W40102  19.237   2.805  14.805  0.3202 -0.3160  0.0125
23919W        W40103   8.519  11.989  13.077  0.1488  0.0755 -0.0472
23920W        W40104   0.109  11.550   0.527 -0.0935  0.3088  0.2453
23921W        W40105  15.419   4.990   4.351 -0.0417 -0.1716  0.0617
23922W        W40106  16.313  12.936  12.159  0.0409 -0.2559  0.0478
23923W        W40107   4.490   6.878   0.888  0.2815  0.2374  0.1819
23924W        W40108   9.026   7.624   4.083 -0.0774  0.2600  0.2583
23925W        W40109   0.955  17.003   4.626  0.0213 -0.0375  0.0078
23926W        W40110  11.793  19.337   2.821 -0.2033  0.0606  0.0776
23927W        W40111  19.344  16.847  10.546 -0.1984 -0.1847  0.0709
23928W        W40112   1.588  16.850   0.341  0.3930 -0.0203  0.1878
23929W        W40113  11.597  15.395   4.154  0.1791  0.1158  0.0002
23930W        W40114  14.509  13.471   3.883 -0.2332 -0.0677 -0.2755
23931W        W40115  13.822  11.402   1.856  0.2893  0.0849  0.0019
23932W        W40116   1.130  11.972  11.163  0.3426  0.4484 -0.0073
23933W        W40117   1.905  14.450   4.086  0.2245 -0.0234 -0.0289
23934W        W40118   8.580   3.947   1.386 -0.3214  0.1144 -0.0180
23935W        W40119   2.259  13.401   1.057 -0.0943 -0.3758 -0.1709
23936W        W40120  17.533  14.029  12.903 -0.0565  0.0333  0.1311
23937W        W40121  17.491  13.946   5.106  0.0270  0.4233  0.2031
23938W        W40122   2.752   0.644  10.948  0.0522  0.0960 -0.1768
23939W        W40123   1.302   4.308   4.692 -0.1606  0.0248 -0.2544
23940W        W40124  18.322   4.559  14.935 -0.3057  0.0142  0.1261
23941W        W40125   9.869   0.601   2.828  0.3572  0.3358 -0.3541
23942W        W40126  13.618  10.514   3.306 -0.0376 -0.1767 -0.1893
23943W        W40127   4.020  19.088  14.104 -0.1684  0.3648  0.0167
23944W        W40128  16.051   0.740  13.037  0.0804  0.0191  0.2228
23945W        W40129   3.596   4.378   3.095 -0.0894  0.0117 -0.2681
23946W        W40130   2.900  10.096  12.799 -0.2135  0.1209  0.0089
23947W        W40131   2.741  13.592   2.477 -0.1501 -0.2050 -0.3693
23948W        W40132   9.086   1.096   3.237  0.2053  0.1774  0.0948
23949W        W40133   0.702  19.179   4.636 -0.2676 -0.0689  0.0303
23950W        W40134  16.165   3.101   2.820  0.0569  0.1974 -0.1034
23951W        W40135   6.269  12.394   2.887  0.4458  0.3895  0.1864
23952W        W40136  10.754   6.726   2.442 -0.1281 -0.0214 -0.0829
23953W        W40137  16.830   5.694   2.974 -0.0057  0.1588  0.1288
23954W        W40138  19.055  12.881   1.476  0.1955 -0.0239 -0.1206
23955W        W40139   8.710   1.961   0.619 -0.0124 -0.2522 -0.1675
23956W        W40140   7.214   0.355  14.089 -0.1967  0.1871 -0.0424
23957W        W40141  15.728  10.093   0.306 -0.2916 -0.0841 -0.1107
23958W        W40142   3.862  10.793   4.850  0.0140  0.1495  0.1345
23959W        W40143   1.883   6.299  14.602 -0.0243  0.3957  0.0075
23960W        W40144   7.608  13.485  14.619  0.1595  0.0499 -0.2079
23961W        W40145   7.573   5.813   5.456 -0.2319 -0.1548 -0.0535
23962W        W40146  10.807   7.530  14.690  0.1833 -0.2133 -0.0101
23963W        W40147   5.231   7.605  12.825  0.0042 -0.0056 -0.1210
23964W        W40148   8.684   1.726   1.505  0.3125  0.1881  0.0446
23965W        W40149   1.420   0.124  14.491  0.0669  0.1557  0.1924
23966W        W40150   3.922   5.289  13.645 -0.0585  0.3985  0.0727
23967W        W40151   3.221   9.050   2.956  0.3437 -0.1047  0.1673
23968W        W40152  16.449   5.524   3.481  0.3763  0.1095 -0.1366
23969W        W40153   0.189   4.376  14.151  0.1532  0.0029 -0.1871
23970W        W40154  12.874  18.925   1.897 -0.1602  0.0139  0.0552
23971W        W40155  13.042   6.491  12.821  0.2613  0.2902 -0.1079
23972W        W40156   8.159  16.810   3.595  0.1696  0.1197  0.0998
23973W        W40157  14.069  12.660  13.125  0.0458  0.3145 -0.1715
23974W        W40158  13.955   0.019  10.313  0.1139  0.2045  0.1549
23975W        W40159  12.200  12.318  10.902 -0.2951 -0.2567  0.2403
23976W        W40160  14.944  17.870   2.237 -0.0290 -0.2040 -0.0973
23977W        W40161  17.535  13.371   1.206 -0.0542 -0.2515  0.3810
23978W        W40162  17.421  14.733  11.053 -0.0338  0.2319 -0.0063
23979W        W40163   5.694  16.347   2.472  0.1675  0.2191 -0.3394
23980W        W40164   6.266   5.659  11.279  0.2419 -0.3005  0.3025
23981W        W40165  10.773   7.643   2.728  0.1217  0.4325 -0.0198
23982W        W40166   7.644  13.443   1.647  0.0184 -0.1050 -0.0897
23983W        W40167   3.757  12.761   0.419  0.0695 -0.2804  0.0515
23984W        W40168  17.285   3.169   4.009  0.0512  0.1811 -0.0913
23985W        W40169  18.976   2.278  11.836 -0.0065 -0.2875 -0.3072
23986W        W40170  15.425  19.228  10.200  0.0566  0.3387 -0.3964
23987W        W40171  14.158  12.493  12.611 -0.2240  0.2001  0.0067
23988W        W40172   1.691   7.690   1.050 -0.1662  0.0142  0.0504
23989W        W40173  13.202  10.141  11.677 -0.0072 -0.0337 -0.0593
23990W        W40174  11.531   4.863  12.948  0.0345 -0.0156  0.0044
23991W        W40175   3.452  10.144  12.845  0.0836  0.0121 -0.2068
23992W        W40176   5.618   2.357   4.775  0.0142  0.0247 -0.1247
23993W        W40177  18.941   1.679   1.438 -0.0952  0.0021 -0.0140
23994W        W40178   2.437  10.349  12.531 -0.0074  0.3234  0.3194
23995W        W40179   7.579   7.976  14.181 -0.0045  0.0309  0.1931
23996W        W40180  14.300   3.227  11.218 -0.2612  0.2819  0.0261
23997W        W40181   5.179  16.479  13.262 -0.0275 -0.0644 -0.0561
23998W        W40182   3.663   9.665  12.554  0.1490 -0.1997  0.1016
23999W        W40183  10.132   9.348   2.931  0.0719 -0.1436  0.0553
24000W        W40184   3.711  13.472   2.135 -0.2768 -0.0031  0.0504
24001W        W40185   0.055   3.199  11.484  0.0462 -0.1974  0.1965
24002W        W40186  10.335  12.610   0.282  0.0279 -0.1037 -0.3753
24003W        W40187  17.328  12.344   2.300  0.1120 -0.0051 -0.1465
24004W        W40188  10.389  12.103   3.502  0.1690 -0.1700  0.1583
24005W        W40189  18.972   1.959  13.263 -0.4871 -0.0552 -0.0598
24006W        W40190   5.748  13.364  10.904 -0.2248 -0.1599  0.2553
24007W        W40191  14.170  16.270  14.136 -0.0550  0.3481 -0.0429
24008W        W40192   6.998   8.168  12.524 -0.2390  0.2640 -0.1753
24009W        W40193  15.125  10.191   1.258  0.0726  0.0101 -0.1237
24010W        W40194  15.101  13.164   3.372 -0.1165  0.2722  0.0675
24011W        W40195  12.286   4.435  10.266 -0.0138 -0.0652  0.0147
24012W        W40196  15.255   4.595  14.913  0.1037 -0.3400  0.1533
24013W        W40197   5.570   2.751  13.118 -0.1730  0.2787 -0.1998
24014W        W40198   2.371   0.854   3.453  0.1930  0.1752 -0.1978
24015W        W40199   2.099   7.026  11.649  0.0437  0.1724 -0.5048
24016W        W40200   1.390  14.633  13.915  0.0382  0.1687  0.1499
24017W        W40201   6.327  15.725   4.214 -0.0035  0.0065  0.1443
24018W        W40202   6.605   7.639   3.328 -0.0021 -0.1251 -0.1380
24019W        W40203  16.579  16.289   0.534 -0.1730  0.0165  0.0257
24020W        W40204   2.181   7.914   2.582  0.1132  0.1331 -0.1657
24021W        W40205  14.409  10.369  12.670  0.1200  0.1193 -0.0717
24022W        W40206  17.502   3.373  13.785 -0.2914 -0.0402 -0.4042
24023W        W40207   7.137  15.197   3.360  0.0011 -0.3757  0.4076
24024W        W40208   1.362  16.742  11.225  0.1700  0.2397  0.0455
24025W        W40209  18.846   2.681   3.489 -0.0537 -0.0754 -0.1218
24026W        W40210   7.178  17.406  12.526  0.2865  0.1706  0.1698
24027W        W40211   8.762   6.272   3.268 -0.4614 -0.0673 -0.0072
24028W        W40212   5.072   8.048   0.787  0.2082  0.0559 -0.2883
24029W        W40213   9.290   9.547   4.718  0.0828  0.1465  0.2648
24030W        W40214   0.547   0.046   2.610  0.0902 -0.2453 -0.3093
24031W        W40215  18.450  18.412   5.178 -0.0842 -0.0033 -0.0033
24032W        W40216   3.662   2.156   2.939  0.0316  0.0009 -0.0626
24033W        W40217  11.014   7.666  12.596 -0.0787 -0.4028 -0.2756
24034W        W40218  14.755   1.262   0.038  0.2510  0.1241  0.1027
24035W        W40219   1.715  17.877   2.281  0.1550  0.0748  0.2235
24036W        W40220   4.528   3.313   5.516 -0.1186 -0.3937 -0.0434
24037W        W40221  18.799   1.555   4.895 -0.2028 -0.2719 -0.0681
24038W        W40222  10.822   1.793   1.620 -0.0658 -0.0076  0.2403
24039W        W40223   8.192  18.047  10.480 -0.2568 -0.1732  0.1890
24040W        W40224  14.171   1.901   1.423  0.4641  0.2194 -0.0360
24041W        W40225  17.538   2.538   3.401  0.0545  0.2662 -0.3508
24042W        W40226  18.302  10.005  10.865  0.2339  0.2819 -0.1232
24043W        W40227   8.891  16.361  11.581  0.0300 -0.0722 -0.1358
24044W        W40228  10.038   4.201   4.102  0.0175 -0.0833 -0.0444
24045W        W40229   1.817   3.415   3.311  0.1083 -0.4095 -0.0631
24046W        W40230  15.603   9.853   1.969 -0.0843 -0.0056 -0.1389
24047W        W40231   9.602  14.509  12.355  0.0811  0.1242  0.0922
24048W        W40232   3.167   1.685  13.827  0.0647 -0.1149 -0.1252
24049W        W40233   2.278   0.239   2.331  0.1748 -0.0478  0.0762
24050W        W40234  15.125   9.512  12.688 -0.1642 -0.1385  0.1048
24051W        W40235  18.788  14.604   0.793 -0.2766  0.0910 -0.1226
24052W        W40236  11.291  11.764   2.629  0.4140 -0.2078 -0.2873
24053W        W40237  16.183   1.831   0.985  0.1926 -0.2280 -0.2986
24054W        W40238   0.824   8.114   1.193  0.2114 -0.0197 -0.1634
24055W        W40239   6.212  17.770   2.856 -0.1468  0.0152  0.0966
24056W        W40240   6.565  10.669   2.090 -0.2974 -0.0993 -0.0887
24057W        W40241   6.120  10.158   3.273 -0.1644 -0.1285 -0.0019
24058W        W40242   6.156   5.073   4.191  0.2787 -0.1075 -0.2140
24059W        W40243  17.068   0.129   0.229  0.0867  0.1543 -0.0422
24060W        W40244   2.363  18.408  13.379 -0.0106  0.1857 -0.1610
24061W        W40245  12.573   9.564   3.943 -0.0901  0.1149 -0.1293
24062W        W40246  18.329   9.370  13.076  0.0013  0.1332  0.5828
24063W        W40247  15.521  13.346  13.887  0.2132 -0.0126 -0.2060
24064W        W40248   5.198  10.979  14.624  0.1142  0.4893  0.1625
24065W        W40249  14.910   3.576   4.396  0.3500  0.0135  0.2085
24066W        W40250  12.868   3.318   1.937 -0.1535 -0.2106 -0.0563
24067W        W40251  14.170  18.103   1.799  0.0201 -0.0440 -0.2393
24068W        W40252   6.031   4.716  11.270 -0.1816 -0.1878 -0.1540
24069W        W40253  15.411   0.645   0.653 -0.1489 -0.1246 -0.2079
24070W        W40254   1.792  14.830   0.496  0.1284  0.2174 -0.0620
24071W        W40255  10.560   3.210   3.206  0.0120  0.2030 -0.1598
24072W        W40256   9.360   4.928  11.862  0.1886 -0.2419 -0.2863
24073W        W40257  18.393  16.480   9.131  0.2947  0.1498  0.0289
24074W        W40258   1.698   0.359   4.361 -0.0961  0.0716  0.0667
24075W        W40259   6.194   6.868   3.705 -0.0296  0.0009 -0.2118
24076W        W40260  14.772   2.142  13.474 -0.2781 -0.0948 -0.3792
24077W        W40261  11.442  14.496  10.350 -0.2898  0.1913  0.1211
24078W        W40262   7.704   2.576   4.796 -0.0806  0.0643  0.2295
24079W        W40263  13.040  12.904   1.851  0.3659 -0.1840  0.2322
24080W        W40264  15.137   1.280   3.415  0.1803  0.1876  0.2129
24081W        W40265   1.300  10.485   4.622 -0.0366  0.2042  0.0343
24082W        W40266   4.745  13.969   1.123  0.0368  0.1763  0.2494
24083W        W40267  11.147   9.023  13.941  0.1080 -0.4207 -0.2415
24084W        W40268  12.850  10.340  13.623  0.1440  0.1866 -0.0609
24085W        W40269  15.926   3.216  13.882  0.1379  0.1155  0.1519
24086W        W40270   7.892  15.672  14.453 -0.0660 -0.4236 -0.0332
24087W        W40271   7.062  16.198  10.674 -0.3515  0.0440  0.1374
24088W        W40272   9.471  15.734   2.811 -0.0017 -0.1430  0.1263
24089W        W40273   2.492  13.256  13.739 -0.2226  0.0629  0.0387
24090W        W40274  12.884  19.390   3.151 -0.0632  0.1416 -0.0971
24091W        W40275  13.951   1.755   4.094  0.1779  0.0136  0.1205
24092W        W40276   5.590   3.419   2.665  0.0746  0.1120  0.2558
24093W        W40277   9.926   8.025   4.875 -0.3183  0.3793 -0.1248
24094W        W40278  16.314  15.372  14.948 -0.1704  0.2221 -0.2579
24095W        W40279  10.406  12.247   4.581 -0.0146  0.0239  0.2032
24096W        W40280   4.718  13.623  10.788 -0.0328  0.0595 -0.3396
24097W        W40281   7.094   7.543  13.022 -0.5162  0.1791  0.3238
24098W        W40282  14.414  18.776  12.425  0.2076 -0.0573  0.1901
24099W        W40283  18.900   7.200   3.028  0.0919  0.2863  0.2666
24100W        W40284   7.518   2.283   0.355 -0.1484 -0.1246 -0.1141
24101W        W40285  17.907  17.596   5.306 -0.1106  0.0984 -0.0304
24102W        W40286  16.672  19.378  13.150 -0.0828  0.2091 -0.2306
24103W        W40287  15.518  18.528  12.687  0.0979  0.0291  0.3948
24104W        W40288  17.320   1.595   1.421  0.1072 -0.1818  0.1227
24105W        W40289  12.348   7.814  14.725  0.0122  0.1063  0.2421
24106W        W40290   8.762   4.411   1.329 -0.2090  0.0997  0.1080
24107W        W40291  17.210   1.609  13.122  0.0168  0.0198 -0.0955
24108W        W40292  13.664  16.805   3.180 -0.0877  0.0791  0.0858
24109W        W40293   0.608   8.581   0.149  0.1716  0.2166 -0.0467
24110W        W40294   9.710   4.861  13.419 -0.0629  0.2143  0.1374
24111W        W40295   8.654  10.940  14.732  0.0466  0.1022 -0.3148
24112W        W40296   4.736   5.528  14.647 -0.0748  0.1969  0.0621
24113W        W40297  16.890  16.752   2.694  0.2338 -0.0368 -0.0938
24114W        W40298  11.949  10.238   1.806 -0.0684 -0.3434 -0.2213
24115W        W40299  19.058  14.219  12.346  0.0765 -0.1605 -0.1688
24116W        W40300  19.007   7.743   3.011  0.2260 -0.1673  0.4176
24117W        W40301   5.965  16.575   3.848  0.4302  0.3245  0.3705
24118W        W40302  18.419   7.994  12.346  0.1083 -0.1453 -0.1825
24119W        W40303   6.984   3.960  12.317  0.1588 -0.1573  0.0064
24120W        W40304  18.057   3.722  14.495  0.2689  0.1326  0.2463
24121W        W40305   9.733  17.380  12.291  0.1536  0.2517 -0.0010
24122W        W40306   9.906   0.810  11.652 -0.0715 -0.0952  0.2904
24123W        W40307   2.094  16.374  11.249 -0.1738 -0.1782 -0.1131
24124W        W40308   9.945   1.206   2.036 -0.2381  0.1086 -0.2745
24125W        W40309   4.070   1.477   3.478 -0.1322  0.1811  0.2768
24126W        W40310  14.819  17.036   1.402  0.0832 -0.0966 -0.0329
24127W        W40311   3.247   6.330  13.130 -0.2121  0.0864 -0.0238
24128W        W40312  17.086  14.847   0.839 -0.0964 -0.1390  0.3431
24129W        W40313  19.344   1.702   0.462 -0.2183 -0.1231 -0.0734
24130W        W40314  11.197   5.829   4.425  0.1580 -0.4167 -0.1211
24131W        W40315   3.633   6.314   2.928  0.3724  0.1724 -0.2823
24132W        W40316  11.917  13.156   4.059 -0.2077  0.0557 -0.0989
24133W        W40317  18.389   0.482   5.024 -0.1130 -0.2150  0.2301
24134W        W40318   2.004   4.314   0.883  0.3352 -0.0149 -0.1351
24135W        W40319   9.517  15.352  10.739 -0.1778 -0.0434  0.1154
24136W        W40320  15.394  16.056  14.202  0.1269  0.3025  0.1149
24137W        W40321   6.619  19.198   3.695  0.0762  0.1971  0.3949
24138W        W40322   1.253  13.449  10.821  0.1580  0.0183  0.1968
24139W        W40323  11.112  13.281   0.297  0.0778  0.3322 -0.1156
24140W        W40324   3.301   2.132  13.083  0.2546  0.1172 -0.1153
24141W        W40325  13.065  14.281  11.691 -0.0347  0.1564 -0.1262
24142W        W40326   7.193  11.631   4.565  0.0282  0.1171 -0.0961
24143W        W40327  15.661  16.935   4.719 -0.0816  0.1897  0.0547
24144W        W40328  12.087   7.000   4.611  0.1048  0.5626 -0.3389
24145W        W40329   6.567   2.153  12.027  0.1543 -0.0915  0.2485
24146W        W40330  16.774   0.134   8.944 -0.2481 -0.1099 -0.1279
24147W        W40331  18.033   2.570  13.986  0.2378  0.0270 -0.0391
24148W        W40332  15.100   9.851  10.245 -0.0040  0.2093  0.1343
24149W        W40333   2.285   6.201   3.302  0.5705  0.2111  0.0360
24150W        W40334   1.826  16.843  13.120 -0.0533  0.1970 -0.0177
24151W        W40335  14.233   7.369   3.253  0.1285  0.0092 -0.0428
24152W        W40336  16.476   5.227  12.272 -0.0410 -0.2856  0.0247
24153W        W40337  17.515   5.126   0.904 -0.0885  0.1182  0.0049
24154W        W40338  11.816   4.704   2.212 -0.3991  0.2482  0.1786
24155W        W40339   7.758   4.047  14.113 -0.0844  0.2238  0.1889
24156W        W40340  11.594   2.779   4.541  0.0128 -0.2163  0.2560
24157W        W40341   9.022   1.952  13.480  0.1081 -0.0048  0.0651
24158W        W40342   1.613   2.617  11.195  0.1033  0.0474  0.3217
24159W        W40343   0.691  14.259   3.245  0.2562  0.1259  0.1083
24160W        W40344  11.029   8.350   5.843 -0.1492 -0.0802  0.0279
24161W        W40345   4.505  14.377   0.859  0.2423  0.2459  0.1719
24162W        W40346  13.036   3.254   4.118  0.0111 -0.1474  0.0100
24163W        W40347   8.786   9.492   1.491  0.3182  0.1028  0.2134
24164W        W40348   1.696   5.107   2.475  0.1057 -0.1034 -0.2108
24165W        W40349   2.823  17.385   3.030  0.1866 -0.3979 -0.0673
24166W        W40350   8.790   4.794  14.940 -0.2841  0.1520  0.1315
24167W        W40351  18.315  14.580  12.442  0.1223 -0.1672  0.1759
24168W        W40352  15.949  15.120  14.737 -0.1028  0.2353 -0.1292
24169W        W40353   3.530  15.417   2.263 -0.1382  0.0631  0.0363
24170W        W40354  10.284   9.203  12.913 -0.1832 -0.0276  0.2654
24171W        W40355   2.342   6.291   5.585 -0.0664  0.1727 -0.0062
24172W        W40356   6.293  15.008   1.854 -0.0132 -0.3642 -0.1591
24173W        W40357   1.807  10.052  11.876  0.2043  0.1524 -0.0121
24174W        W40358  13.696   5.672  11.781 -0.1730 -0.1427 -0.1379
24175W        W40359   6.888  12.773   3.239 -0.0061 -0.0133  0.5703
24176W        W40360   2.499   8.735   1.524 -0.0536  0.1009  0.2092
24177W        W40361  15.771   8.589  14.547 -0.3600  0.0446 -0.0756
24178W        W40362  11.936  18.099  10.326  0.1591  0.0209  0.0330
24179W        W40363  11.133  18.782  14.093  0.3060 -0.1247  0.5127
24180W        W40364   0.717  18.884  14.766 -0.0581 -0.1070  0.4043
24181W        W40365  15.062   2.239  14.648  0.3458 -0.0773  0.3799
24182W        W40366   7.521   0.912  10.475  0.1844 -0.2374  0.0200
24183W        W40367  18.666  19.041   1.168  0.0139  0.1569  0.3377
24184W        W40368   6.518   4.051  12.501  0.0102 -0.2067 -0.2400
24185W        W40369   5.944  14.179   1.403 -0.1930  0.1332  0.2029
24186W        W40370   1.716   3.898  14.524  0.0414 -0.0793  0.2709
24187W        W40371  13.772  15.741  12.530  0.1521 -0.0477 -0.0116
24188W        W40372   9.653  18.765  14.690 -0.1010  0.5239  0.4060
24189W        W40373  13.177  14.055  12.529  0.3167  0.4297  0.1768
24190W        W40374   6.028  10.515   5.400 -0.5089 -0.0062  0.0430
24191W        W40375  12.950   7.154  10.103 -0.0447  0.0609  0.2693
24192W        W40376   0.587   3.456   2.351 -0.0486  0.2969 -0.0987
24193W        W40377  16.596   0.058   0.933 -0.1446 -0.3141 -0.0867
24194W        W40378   9.000  16.822  10.200  0.2106  0.3698 -0.2516
24195W        W40379  11.713  14.524  12.677  0.2828  0.3064  0.1737
24196W        W40380  10.686   5.037   0.699 -0.0541  0.0968  0.0664
24197W        W40381  17.585   1.074   4.721  0.0841  0.0648  0.2994
24198W        W40382  16.476  12.645  11.745 -0.2491 -0.2434 -0.1359
24199W        W40383   5.765  13.427  11.802  0.0225  0.0419  0.2094
24200W        W40384   3.187  17.609   1.048  0.2430  0.1170  0.1449
24201W        W40385   5.572  13.587   2.654  0.2434 -0.4061  0.1663
24202W        W40386  15.379   3.289  10.995 -0.3270  0.0687  0.0091
24203W        W40387   8.198   1.830   2.462 -0.0004  0.0620 -0.0654
24204W        W40388   9.268  16.226   0.980  0.4752 -0.3902  0.1562
24205W        W40389   5.544   3.929  13.972 -0.0153  0.2104 -0.1731
24206W        W40390  17.818   6.207  12.083  0.1598 -0.2347 -0.0905
24207W        W40391  10.237   9.813   3.190  0.0116  0.3442 -0.0910
24208W        W40392  17.918  18.403   2.121  0.2404  0.1204 -0.1206
24209W        W40393  14.688   7.138  12.389  0.1884  0.1569 -0.0860
24210W        W40394  15.269  17.662  11.787  0.1052 -0.2725  0.0429
24211W        W40395  12.671  15.948  12.071  0.2985  0.0523 -0.0283
24212W        W40396   4.912  16.717  11.270 -0.2235  0.1900  0.2859
24213W        W40397   2.582  11.081  14.074 -0.1904  0.2387  0.4650
24214W        W40398   6.239  17.403   8.977  0.2125  0.1747 -0.2261
24215W        W40399   9.436   0.557  11.501 -0.1112  0.1564 -0.0990
24216W        W40400   8.540   9.316   3.621  0.1606  0.3871 -0.0718
24217W        W40401   7.451  14.288  13.656  0.3410  0.1947  0.0906
24218W        W40402   0.191   4.076   0.456 -0.0720  0.0698  0.0375
24219W        W40403  15.332  15.987  12.864 -0.2163  0.0751  0.1379
24220W        W40404   3.937  12.716   3.496  0.1843  0.2053  0.2362
24221W        W40405   1.377   9.178  13.605  0.0279 -0.1664 -0.2256
24222W        W40406  12.940   1.746   4.040  0.1051 -0.0957  0.1390
24223W        W40407  13.174  11.190  11.639  0.0564  0.0581 -0.2250
24224W        W40408  16.629  11.579   0.223  0.0127  0.2033  0.3667
24225W        W40409  15.724  13.753   2.666 -0.0292  0.2360 -0.1136
24226W        W40410  13.324   6.643  13.685  0.0613 -0.0690  0.2057
24227W        W40411   0.252  15.434   1.633  0.3747  0.0692  0.0258
24228W        W40412   1.899   0.019   2.043 -0.0978 -0.2311 -0.0207
24229W        W40413   3.561   9.845  14.445  0.0377  0.0885 -0.1418
24230W        W40414   0.742   0.487   1.172 -0.3175  0.2036  0.3772
24231W        W40415   4.528   5.830  11.815  0.3350  0.3244  0.3112
24232W        W40416   9.514  13.375  14.069 -0.1064 -0.2411 -0.4447
24233W        W40417   3.069   0.555  10.472 -0.2361 -0.3327 -0.1205
24234W        W40418   8.383   2.363  11.717 -0.1226 -0.3710 -0.1022
24235W        W40419   2.735   0.275  13.733  0.2190 -0.0746 -0.4817
24236W        W40420  10.110   9.294  10.873  0.1193  0.1633  0.3483
24237W        W40421  18.290   5.478  13.351 -0.2060  0.1536 -0.2481
24238W        W40422  18.253  18.192  12.085 -0.0498 -0.0776  0.2066
24239W        W40423  10.101  11.304   2.812 -0.0892  0.2251  0.0321
24240W        W40424  10.162   1.537   3.051  0.0916 -0.0556  0.1655
24241W        W40425   2.939  17.914   2.962 -0.1718  0.0529  0.0695
24242W        W40426   1.172  15.553   2.723 -0.0800  0.0081 -0.3083
24243W        W40427  12.371  16.420   9.895  0.2390 -0.0157  0.3210
24244W        W40428   1.500   6.349   2.689 -0.1090 -0.3619 -0.0721
24245W        W40429   2.775  17.476  10.278 -0.2665  0.2134  0.2027
24246W        W40430  15.103  14.679  13.511  0.1400  0.2956 -0.1273
24247W        W40431   5.771  11.780  13.977  0.1612  0.0457  0.1650
24248W        W40432   4.487  11.321   2.916 -0.1972  0.1162 -0.0325
24249W        W40433   7.884  15.289   9.200 -0.0739 -0.1261  0.1726
24250W        W40434  10.832   2.061  12.048 -0.0113  0.3862 -0.0682
24251W        W40435   1.631   5.786  13.470  0.2812  0.4278 -0.0900
24252W        W40436   1.285   8.248  13.513  0.0131 -0.1426 -0.3328
24253W        W40437   4.255   1.170   1.946  0.1101  0.2143  0.3806
24254W        W40438  17.035  15.011  13.793 -0.0166  0.6003 -0.4807
24255W        W40439   9.292  10.913   3.123 -0.2280 -0.2674  0.0465
24256W        W40440  10.822  10.646   0.414  0.1597  0.1514 -0.0712
24257W        W40441   6.635  12.208  12.552 -0.0907 -0.3396  0.0949
24258W        W40442   5.329   8.051   2.897 -0.0485 -0.4422 -0.1151
24259W        W40443  16.242  19.126  11.056  0.1324 -0.0063  0.1545
24260W        W40444  12.931  15.239  13.698  0.2136  0.0104 -0.0154
24261W        W40445  17.260  13.806  11.380 -0.2806  0.0556 -0.4370
24262W        W40446   3.159   5.644  13.935 -0.0838 -0.0380 -0.1215
24263W        W40447   4.578  15.072  12.967 -0.2334 -0.2232 -0.1206
24264W        W40448  15.228  16.631   3.991 -0.0191 -0.0746  0.1002
24265W        W40449   2.297   1.445   1.706 -0.0459 -0.0037  0.2063
24266W        W40450   2.961  10.983   3.263  0.1023  0.2745  0.2699
24267W        W40451  10.980  16.445  14.341  0.4674  0.0341 -0.0121
24268W        W40452  16.727   4.842   3.906  0.0935  0.1986  0.0405
24269W        W40453  14.391  18.918   1.458  0.2643  0.1924  0.1527
24270W        W40454  10.747   2.760  11.097 -0.0793  0.3029 -0.6227
24271W        W40455  10.962  14.734   1.009 -0.1519  0.2462 -0.2190
24272W        W40456  15.058   6.878  14.084 -0.2541 -0.0748  0.0585
24273W        W40457   9.434   8.699   4.404  0.2047  0.2608 -0.0755
24274W        W40458  14.006   0.047   4.582 -0.0198  0.1390 -0.1895
24275W        W40459   3.830   5.375   2.001  0.3336 -0.3255  0.1267
24276W        W40460  10.485   2.523  10.766 -0.0128 -0.3853  0.0108
24277W        W40461  10.086   1.606  12.871  0.1935  0.4403 -0.0494
24278W        W40462   3.263  10.285  11.970 -0.5152  0.0686 -0.2371
24279W        W40463  14.735  13.819  13.297 -0.1643  0.2253 -0.1943
24280W        W40464  14.337   4.846  13.353  0.3119 -0.3794 -0.2183
24281W        W40465  10.522  18.453   9.796  0.1802 -0.0154 -0.0473
24282W        W40466   9.964   1.167   3.273 -0.0663 -0.0697  0.1219
24283W        W40467  18.100  14.747  10.933 -0.0736  0.1309  0.1466
24284W        W40468  12.126   7.200   2.034  0.0866  0.0057 -0.0810
24285W        W40469   7.990   9.207   2.831 -0.1868 -0.4100 -0.1449
24286W        W40470   4.356  13.295   1.214  0.0238  0.1246 -0.0407
24287W        W40471  10.900   6.200   3.719  0.5992 -0.0176 -0.0500
24288W        W40472  12.849  19.382   0.097  0.0180 -0.0031 -0.1050
24289W        W40473   8.854   6.191   1.908 -0.1348  0.0694 -0.0150
24290W        W40474  17.834  14.121   4.732  0.0094 -0.2245  0.0579
24291W        W40475  10.815  18.936   2.976 -0.4480 -0.1123  0.0078
24292W        W40476  17.437  15.471  11.138 -0.1628  0.1975 -0.0734
24293W        W40477   4.999  13.318   1.727  0.0933  0.0136  0.2317
24294W        W40478   5.879   6.092   2.042  0.1657  0.1872  0.3788
24295W        W40479   3.324   0.302  11.645  0.0716  0.0105  0.0465
24296W        W40480  16.518   6.160   1.033 -0.0116 -0.2013 -0.0619
24297W        W40481   0.167   7.890  13.306  0.0346 -0.0956 -0.1886
24298W        W40482   6.122   1.695  11.941  0.0589  0.0288 -0.1815
24299W        W40483  17.330  16.142   2.207 -0.1380 -0.0620 -0.3143
24300W        W40484   7.170  10.555   1.633  0.1994 -0.0499  0.1351
24301W        W40485  15.009  17.906   2.800  0.0732  0.0177  0.1176
24302W        W40486   9.342   8.573   3.557  0.0353  0.1674  0.2329
24303W        W40487   3.285  13.455   2.420  0.3464  0.1562 -0.3754
24304W        W40488  15.294   9.707   4.721 -0.0727  0.2213 -0.2447
24305W        W40489  17.591  12.106   1.185  0.1600  0.0889  0.0730
24306W        W40490   9.872   4.969   2.608 -0.0183  0.3814  0.1324
24307W        W40491   6.168   4.947   2.663  0.2964 -0.1294 -0.0148
24308W        W40492  12.271   1.571  14.293  0.1803  0.2122  0.2268
24309W        W40493  11.237   2.594   4.781 -0.1634 -0.0742 -0.1471
24310W        W40494  17.738  16.993  14.416  0.1298  0.1967 -0.1851
24311W        W40495   6.574   4.038   1.756 -0.3522 -0.1112 -0.0541
24312W        W40496  14.437   3.603   4.141 -0.1293  0.0641  0.0052
24313W        W40497  17.572  18.799   4.487 -0.1165  0.1860 -0.1440
24314W        W40498  17.584   9.216   0.115  0.0506 -0.1173 -0.3013
24315W        W40499  16.349  13.919   1.448  0.0716  0.0653 -0.0268
24316W        W40500   4.810   5.053   2.630 -0.0486  0.1755 -0.2491
24317W        W40501   5.133  14.028   2.714  0.1005 -0.1909  0.0100
24318W        W40502   5.187  15.922  13.754  0.5469 -0.0463  0.2460
24319W        W40503  10.033  16.588   1.984 -0.1589 -0.2013 -0.0631
24320W        W40504  19.009   5.621   0.204  0.0024  0.2079 -0.2635
24321W        W40505   3.066   6.992   4.484 -0.3885  0.1895  0.1532
24322W        W40506   5.420  17.983  12.593  0.0757 -0.2520 -0.3980
24323W        W40507   2.873   4.247   5.507 -0.0507  0.0437 -0.1033
24324W        W40508   2.533  14.902   5.213  0.0958  0.1848 -0.1337
24325W        W40509  18.831   9.548  11.386 -0.0621 -0.3963 -0.0702
24326W        W40510   9.829  16.327   0.221  0.4236 -0.3603  0.0906
24327W        W40511  12.592   9.382   3.430  0.0505 -0.0887  0.1306
24328W        W40512   2.892  14.117   0.632 -0.0944  0.1112 -0.4191
24329W        W40513   1.310   0.174   2.013 -0.0254 -0.2752 -0.1398
24330W        W40514  11.672   4.445  11.273  0.3906  0.0199  0.1644
24331W        W40515   2.846   5.994  13.005  0.0506  0.0573 -0.1641
24332W        W40516   7.886   9.480  14.087 -0.0118  0.1962  0.3074
24333W        W40517  12.815  11.468   2.388  0.2228  0.0772  0.4043
24334W        W40518   2.403   9.743  13.266 -0.0193  0.0239 -0.0243
24335W        W40519  13.327  15.829  12.286  0.0838 -0.4223 -0.5254
24336W        W40520  11.487  17.435   0.903 -0.0968 -0.0544 -0.0001
24337W        W40521   4.456   2.439   0.419  0.1407 -0.2642 -0.0241
24338W        W40522  13.129  11.599  14.749 -0.0953 -0.2309 -0.1211
24339W        W40523   7.064   4.597   0.828 -0.3429  0.2574 -0.0289
24340W        W40524  14.455  15.704  14.454  0.3037  0.1733 -0.1392
24341W        W40525  18.182   0.038  14.621 -0.0147 -0.3116 -0.0957
24342W        W40526   6.246   7.634   1.983  0.2372  0.0524  0.0974
24343W        W40527  12.628  12.387   1.072  0.0013  0.0604 -0.1515
24344W        W40528   8.707   0.302  13.941 -0.3875  0.3381 -0.1558
24345W        W40529   9.599   1.013   2.968 -0.0996  0.0624 -0.1580
24346W        W40530  16.346  16.241   0.967  0.0558  0.0195 -0.0051
24347W        W40531  15.020  12.402  13.524 -0.0386  0.1460 -0.3551
24348W        W40532  18.020  17.187  13.471  0.2639  0.1995 -0.0258
24349W        W40533   2.641  19.358   4.342  0.0181 -0.0410  0.2034
24350W        W40534   1.797  17.351  11.947  0.1830  0.2313 -0.1674
24351W        W40535  13.080  15.915  11.834 -0.1912 -0.3016 -0.3105
24352W        W40536   4.238  17.761  10.649  0.0297 -0.2035  0.0553
24353W        W40537   1.350  11.785   2.873 -0.0692 -0.0345 -0.0292
24354W        W40538  17.080  11.353  11.643 -0.1615 -0.3262  0.0712
24355W        W40539  15.708   8.538   2.039  0.0571 -0.1311  0.1599
24356W        W40540  13.598  11.934   2.993 -0.0570  0.0116  0.0441
24357W        W40541  16.419   8.346   2.505 -0.1711 -0.0474  0.0345
24358W        W40542  14.741   9.178  13.618  0.0909 -0.1006  0.0814
24359W        W40543  12.664   5.397  14.572  0.3130 -0.0575 -0.0106
24360W        W40544   2.166   2.788   0.794 -0.2042 -0.1516 -0.1302
24361W        W40545   4.430   3.823  12.656 -0.4096  0.0961  0.1881
24362W        W40546   9.262  13.069  11.412 -0.2477 -0.3049  0.0094
24363W        W40547   1.013  13.958  12.811 -0.1216 -0.1770 -0.3928
24364W        W40548   2.916  18.402   2.333  0.0262  0.1512 -0.3181
24365W        W40549   3.155   5.346   2.208 -0.2859  0.2254  0.0556
24366W        W40550  16.789   5.029  11.929 -0.0147 -0.1366 -0.2180
24367W        W40551  19.018   0.666   4.636  0.0117  0.0118  0.1631
24368W        W40552   0.054  11.654   3.062  0.0236 -0.0419 -0.0218
24369W        W40553  14.162   7.907  11.268 -0.0585 -0.3156  0.2798
24370W        W40554   5.341   8.798  14.092  0.1982 -0.0548  0.0289
24371W        W40555   0.297   5.966  12.031 -0.1356  0.0895 -0.1165
24372W        W40556   1.895  12.717  14.346 -0.2501  0.2003 -0.0400
24373W        W40557  19.063  18.651   2.464 -0.0446  0.0503  0.0845
24374W        W40558   8.215   8.443   3.101 -0.0885  0.3122  0.0578
24375W        W40559   4.846  13.451   0.901 -0.0628 -0.2918  0.2899
24376W        W40560   6.279   4.271  13.549  0.2142 -0.3078  0.3191
24377W        W40561   3.737   8.159  14.007  0.1573 -0.1065 -0.1187
24378W        W40562  17.867  15.256  13.039 -0.1276 -0.0642 -0.0409
24379W        W40563   0.586  13.797  11.414  0.1168  0.0389  0.0282
24380W        W40564   1.249   0.712   0.578  0.2175 -0.0742 -0.1611
24381W        W40565   8.321   6.524   0.952  0.1239 -0.3878  0.0353
24382W        W40566  15.068   9.111  13.232  0.1056 -0.0637 -0.0404
24383W        W40567   9.671   2.649  12.198 -0.1241  0.0644 -0.3360
24384W        W40568  18.983   0.340  11.907  0.1311 -0.0348 -0.2218
24385W        W40569  19.315   6.024   4.805 -0.0709  0.4021 -0.0230
24386W        W40570  13.958   2.848  10.887  0.1994  0.1781  0.0081
24387W        W40571  14.873   2.422  10.752  0.0372 -0.0138 -0.1663
24388W        W40572  18.946   8.817  13.423 -0.0794  0.1942  0.0474
24389W        W40573  14.505  11.620   1.111 -0.1518  0.0586 -0.4075
24390W        W40574  12.511  18.865   4.374 -0.2192  0.0547  0.0765
24391W        W40575  14.591  13.111   2.441  0.2151 -0.0854 -0.1073
24392W        W40576   1.497   1.654   2.357 -0.1833 -0.0709 -0.0534
24393W        W40577  13.702   3.265   4.535 -0.1494  0.3064 -0.1449
24394W        W40578   6.937   2.427   2.155  0.1326 -0.3069 -0.0459
24395W        W40579  18.978   0.963  12.611 -0.0141 -0.1671  0.1276
24396W        W40580  15.191   5.239   4.002  0.0808  0.1121  0.2055
24397W        W40581  11.323  11.558  13.550 -0.0598 -0.2992  0.1402
24398W        W40582   7.198   6.071   4.632  0.2095  0.2320  0.3281
24399W        W40583  14.938   1.342   1.236 -0.2108 -0.1827  0.0250
24400W        W40584  13.938   1.279  10.281 -0.1371  0.2517  0.2523
24401W        W40585  18.471   2.345   0.912 -0.0251 -0.0310 -0.1337
24402W        W40586  14.956  19.265  13.037  0.0496 -0.0393 -0.0786
24403W        W40587  14.970   4.486   4.164  0.0749 -0.2710  0.0295
24404W        W40588   4.253  13.450  11.272 -0.0990 -0.3272 -0.1455
24405W        W40589  18.652   1.859   0.082  0.0542  0.2315  0.2465
24406W        W40590   1.519   5.814  12.511 -0.2391 -0.4037 -0.0746
24407W        W40591   2.473   6.918  12.205  0.2071  0.5889 -0.0228
24408W        W40592  13.824   7.404   4.448  0.1504  0.1688  0.0832
24409W        W40593  17.275  10.316   9.816 -0.3373  0.1703  0.2528
24410W        W40594  15.281  15.528   3.694 -0.0842 -0.4100 -0.2466
24411W        W40595   0.253   4.433   3.144  0.1693 -0.0036 -0.2532
24412W        W40596  12.390  10.760   2.322 -0.2594  0.0946 -0.0934
24413W        W40597   8.769   1.872   2.936  0.0146  0.1003  0.0186
24414W        W40598   2.751  11.089   5.800  0.0197  0.0401  0.3383
24415W        W40599   7.708  16.610  10.006  0.0729 -0.2568 -0.1375
24416W        W40600  10.312  18.064   1.504 -0.0823 -0.0860 -0.0824
24417W        W40601  11.453  14.841   1.272 -0.1262  0.2647 -0.4061
24418W        W40602   1.870  11.898   2.766 -0.2086 -0.0342 -0.2713
24419W        W40603  11.983  18.391  13.549 -0.0265  0.3800 -0.1324
24420W        W40604   5.769   5.332   1.908 -0.2098 -0.4212 -0.1255
24421W        W40605   1.080  17.969   4.142 -0.0780 -0.0314 -0.0555
24422W        W40606  14.904   4.551  13.098 -0.1409  0.1723 -0.3294
24423W        W40607  13.536  10.391   0.074  0.0355  0.2291 -0.1234
24424W        W40608  18.151  13.841  11.666  0.1386 -0.0302 -0.0468
24425W        W40609  16.150   7.073   2.048 -0.0674 -0.2754 -0.4257
24426W        W40610   1.342   9.041   2.786  0.1068 -0.3975  0.0608
24427W        W40611   2.728   5.377  14.196 -0.0776 -0.0688 -0.2658
24428W        W40612   7.608   8.441  14.356  0.2831  0.2032  0.1721
24429W        W40613  19.045  13.438  14.196  0.2165  0.3684 -0.2665
24430W        W40614  17.033   2.049   4.302  0.0423 -0.0721 -0.0431
24431W        W40615   9.882   1.393   2.625  0.3537 -0.2363  0.1575
24432W        W40616   5.271  12.262   3.579 -0.2595 -0.1508  0.0757
24433W        W40617  12.334  13.274   3.293  0.0156  0.1921  0.1069
24434W        W40618   6.636  18.125  12.093 -0.2149 -0.0265  0.0003
24435W        W40619   2.326  11.278   1.711  0.0328 -0.1057  0.2399
24436W        W40620  11.641   9.041  14.067 -0.1115 -0.1653  0.2594
24437W        W40621  18.495  15.368   5.196 -0.1848  0.0286  0.2767
24438W        W40622   8.041  12.129   0.498 -0.1515 -0.1044  0.0147
24439W        W40623  19.027   1.175   9.897 -0.0577 -0.1090  0.1580
24440W        W40624   6.181  13.406  14.386  0.1563 -0.0416 -0.0717
24441W        W40625  15.145   5.358  12.740 -0.4582 -0.1768 -0.4991
24442W        W40626  19.252  19.158   0.285  0.0110  0.1811 -0.2315
24443W        W40627  17.560   5.902  12.963  0.2071 -0.0643 -0.1540
24444W        W40628   1.868  10.869   5.414 -0.0304  0.1704  0.0530
24445W        W40629   9.140   0.844   0.605  0.3075  0.4781  0.2844
24446W        W40630   7.364   8.588   1.915  0.1118  0.0092 -0.0057
24447W        W40631   2.325  11.410  12.589 -0.0336  0.0812  0.0304
24448W        W40632   0.489   9.105   2.871 -0.0134  0.3765  0.0475
24449W        W40633   6.168  18.715   0.696  0.0488 -0.1420  0.0026
24450W        W40634  14.826  16.677   0.427 -0.0361  0.4069  0.1966
24451W        W40635  14.956  10.535   4.196 -0.2819 -0.0937  0.0835
24452W        W40636  10.093   9.661   4.589 -0.1434  0.0252 -0.0640
24453W        W40637   1.083  14.806   3.949  0.0024  0.1256 -0.0648
24454W        W40638  16.484  13.511  11.414 -0.0144  0.2204  0.3018
24455W        W40639  11.048  12.732  11.685  0.0548  0.1326 -0.1689
24456W        W40640  13.017  10.287   9.867  0.2111 -0.2323  0.0604
24457W        W40641   5.576   0.523   2.969  0.3110 -0.0869  0.0615
24458W        W40642   6.815   8.100   2.490  0.3320  0.3019 -0.2556
24459W        W40643   7.612  17.586  13.662 -0.0778 -0.4019 -0.2646
24460W        W40644  15.048  15.525  10.052  0.2316 -0.1464  0.2816
24461W        W40645  11.503  18.466   0.121  0.4640 -0.0643 -0.0171
24462W        W40646   8.875  13.952   9.396 -0.2506 -0.1070  0.1246
24463W        W40647  15.247  16.206  14.642  0.1274 -0.3225 -0.0775
24464W        W40648   7.143   5.050   5.393 -0.2197 -0.1052 -0.2717
24465W        W40649   4.475  12.418  11.275 -0.1115  0.0429  0.1214
24466W        W40650  13.871   6.666   1.055  0.1597 -0.3031 -0.2846
24467W        W40651   1.876  16.594   1.269 -0.1031  0.0139  0.1286
24468W        W40652   7.278   1.666   9.903 -0.2865 -0.1530  0.2484
24469W        W40653   7.983   6.361   1.374  0.0512 -0.2784  0.0071
24470W        W40654  16.384  14.681   2.110  0.1655 -0.0330 -0.1548
24471W        W40655   8.840   3.120  10.850 -0.0552  0.0397  0.1516
24472W        W40656  16.841  15.434  13.507 -0.0105 -0.0599  0.1506
24473W        W40657   4.801   6.502  11.252  0.1673 -0.0879  0.1066
24474W        W40658   1.448  11.204   4.733  0.0260  0.0627 -0.5579
24475W        W40659   4.913  14.064   4.920  0.0677  0.0958 -0.2736
24476W        W40660  18.022  13.407   1.589  0.1004  0.1183  0.3017
24477W        W40661  11.424   6.802  13.562 -0.1859 -0.1988  0.3219
24478W        W40662  12.820  14.115  13.749  0.1588 -0.0329 -0.1949
24479W        W40663  15.310  14.034   0.119  0.1125 -0.2546 -0.0104
24480W        W40664  18.411  16.106  13.839  0.2428  0.1473  0.0142
24481W        W40665  19.331  16.787   2.972 -0.1382 -0.0707  0.3865
24482W        W40666  15.772   4.087   2.662 -0.2304 -0.3342  0.1024
24483W        W40667   1.446   3.000   5.038 -0.1394 -0.3764  0.4363
24484W        W40668  18.034   7.069  10.893 -0.1041 -0.0581 -0.1096
24485W        W40669  16.290   0.004  13.433  0.1065  0.0246  0.2842
24486W        W40670   8.956   6.418  14.823  0.0122  0.0793 -0.0321
24487W        W40671   0.853   4.262   1.759 -0.0885  0.0048  0.0677
24488W        W40672  14.353   2.229  10.626  0.1231  0.1097  0.0724
24489W        W40673  11.387  16.326   1.179  0.0160 -0.0569 -0.3085
24490W        W40674  10.292   4.198   3.064 -0.1675 -0.0752 -0.0078
24491W        W40675   8.225   4.763   2.939  0.1593  0.1615  0.0795
24492W        W40676  17.369  18.310   4.337  0.2243 -0.1958 -0.3175
24493W        W40677   9.513   8.943   2.460 -0.2587  0.0359  0.0129
24494W        W40678   3.494  14.720  10.429  0.0872  0.0541  0.0508
24495W        W40679  18.167   8.449   9.486 -0.3767 -0.1618  0.0844
24496W        W40680  16.354   5.670  12.920  0.2959 -0.0515  0.2611
24497W        W40681   7.437   9.239   1.778  0.0803  0.0181 -0.2560
24498W        W40682   1.641  17.513  13.868  0.2345  0.3176  0.0899
24499W        W40683   8.998   9.766   0.912 -0.0038 -0.1469  0.0237
24500W        W40684  17.737  15.746  13.041 -0.0711  0.1439 -0.1820
24501W        W40685  13.441   9.694  11.771 -0.0460 -0.0787  0.0278
24502W        W40686   2.680  15.134   1.953  0.3742 -0.3431 -0.3249
24503W        W40687   6.573   9.476  12.426  0.1007 -0.1030 -0.2782
24504W        W40688   8.039   9.149   3.617 -0.3617  0.2029 -0.2145
24505W        W40689   1.324   5.863   0.398  0.1918  0.1280 -0.0669
24506W        W40690  12.625  11.991   1.464 -0.1820 -0.2143  0.3192
24507W        W40691   6.342  10.549   3.028  0.1582  0.0255 -0.1430
24508W        W40692   1.223   4.585   2.972 -0.0673 -0.0461 -0.2557
24509W        W40693   6.840   7.139   1.484  0.0808  0.0027  0.3160
24510W        W40694  18.592   8.830   0.012  0.0151  0.4166  0.1754
24511W        W40695  14.592  12.247   1.918  0.0537  0.2231 -0.0678
24512W        W40696   1.011   6.902   4.607 -0.0227  0.1693  0.2295
24513W        W40697   6.190   8.089  14.510 -0.1002 -0.0570  0.5501
24514W        W40698   5.063  17.051   3.097  0.0478 -0.1501 -0.2274
24515W        W40699   7.184  13.264  10.979  0.3544 -0.0344  0.0582
24516W        W40700   4.043   4.544   2.887  0.1539 -0.0765  0.0996
24517W        W40701  15.023   0.837  10.173  0.0705  0.1327 -0.2381
24518W        W40702  12.288  15.188   0.605  0.1619  0.0634  0.0718
24519W        W40703  16.163   8.037   1.814 -0.0070 -0.2967  0.0779
24520W        W40704  18.415   9.387   1.450  0.0951 -0.1066  0.0242
24521W        W40705  14.984   5.006   0.715  0.0974  0.0284 -0.0929
24522W        W40706   4.186   6.458   0.146  0.1556  0.2777 -0.1936
24523W        W40707  11.616  17.984   4.766 -0.2485 -0.2464  0.2801
24524W        W40708   8.155  16.117  14.325  0.2166 -0.0771  0.0226
24525W        W40709  19.129  11.271   4.585 -0.1775  0.4160 -0.3632
24526W        W40710   8.384  13.906  14.403  0.0464  0.0218  0.1255
24527W        W40711   8.559  17.584   0.527 -0.3401 -0.1604  0.3527
24528W        W40712   4.606  14.539  14.152  0.2478 -0.2200 -0.0710
24529W        W40713   9.613   6.326   4.735  0.3127  0.1789 -0.1430
24530W        W40714   9.082  14.409  14.862 -0.1377 -0.0584 -0.1797
24531W        W40715  12.893   5.944   4.904 -0.0973 -0.1318 -0.1587
24532W        W40716  15.567   8.135   4.653  0.0669  0.1559 -0.3385
24533W        W40717   6.010   2.634   4.929 -0.2183  0.1137  0.0155
24534W        W40718   8.235   8.006  12.826  0.0516  0.1657  0.2210
24535W        W40719   8.769  12.910  14.806 -0.4464 -0.1825 -0.0030
24536W        W40720  15.983   3.235  10.348 -0.0415 -0.1994  0.0608
24537W        W40721  14.076  11.425  11.657  0.3325  0.2361 -0.2622
24538W        W40722   9.414  16.348  11.611  0.0009 -0.0039 -0.1411
24539W        W40723  12.117  12.434   2.753 -0.0555 -0.4432 -0.2192
24540W        W40724   7.528  11.390   5.381  0.1227  0.1021  0.1220
24541W        W40725  17.810   4.874   1.371  0.1090  0.2589 -0.4689
24542W        W40726  19.110   8.191   3.319 -0.2414  0.2371 -0.2467
24543W        W40727   4.248  10.543   2.151  0.3272  0.0896  0.0585
24544W        W40728  12.405   2.550   3.795  0.3135  0.0592  0.1994
24545W        W40729   3.406  12.844   3.821  0.2944  0.0079  0.3211
24546W        W40730   0.269   4.030   3.626 -0.5905 -0.0565 -0.0689
24547W        W40731   1.812   2.980  14.190 -0.0471 -0.1971 -0.3587
24548W        W40732  11.384  16.549   2.270 -0.1540 -0.0745 -0.2180
24549W        W40733   3.178   6.123   5.599  0.0341  0.1854  0.2257
24550W        W40734   2.419   2.461  13.482 -0.0427  0.1316 -0.1981
24551W        W40735  10.992   5.661   0.872  0.0974 -0.0359  0.3158
24552W        W40736  18.655  16.198   1.551  0.1278 -0.0264 -0.1533
24553W        W40737   3.665  12.257  13.216  0.0407  0.2620 -0.0285
24554W        W40738  11.390  12.637   2.709  0.0043 -0.2729 -0.2542
24555W        W40739   8.239   0.814   0.311 -0.1689  0.1914 -0.2181
24556W        W40740   5.395   5.426   1.331  0.3291 -0.1857 -0.0361
24557W        W40741  18.709  14.889  11.201  0.1765 -0.2965  0.0444
24558W        W40742   5.929  10.981  11.082 -0.0889 -0.2417  0.1390
24559W        W40743   9.159  15.262  13.044  0.1046 -0.0344 -0.0015
24560W        W40744   3.508  15.705   1.726 -0.1806  0.3153  0.6127
24561W        W40745   5.303   8.065   4.237  0.0222 -0.1366 -0.0181
24562W        W40746   3.968   8.193   3.126  0.2626 -0.3228 -0.0329
24563W        W40747  16.758   4.154   0.332 -0.1552  0.0896  0.0188
24564W        W40748  13.955  16.827  13.476  0.1775  0.1996  0.0623
24565W        W40749   8.063  11.780  13.364 -0.0634 -0.0861  0.1041
24566W        W40750   7.316  17.288  12.031  0.2072 -0.2072 -0.0430
24567W        W40751  19.196  19.366  12.228 -0.2962  0.1019 -0.1315
24568W        W40752  14.232   2.409  13.617 -0.3100  0.0083 -0.0306
24569W        W40753   4.001   6.131  14.299  0.1013  0.2450 -0.1402
24570W        W40754   7.617   9.728   1.590  0.2099  0.0025 -0.1022
24571W        W40755  13.850  10.334  13.416  0.2854 -0.1492 -0.3735
24572W        W40756  16.591  17.684  11.337  0.0634 -0.2460  0.3632
24573W        W40757  10.597  18.703  11.967  0.0509  0.3557 -0.3673
24574W        W40758   8.695   6.288  13.277  0.1733 -0.0570 -0.3561
24575W        W40759  12.052   0.819   5.311 -0.2995  0.2198  0.0494
24576W        W40760   6.084  12.556   1.128 -0.1514  0.2103  0.1629
24577W        W40761   8.100   2.433   1.283  0.3805  0.2424 -0.3113
24578W        W40762   9.471  15.715  12.317  0.2460 -0.1735 -0.1412
24579W        W40763  12.269   3.672   0.419 -0.1757 -0.1449  0.1620
24580W        W40764  18.339   9.085   3.364  0.1135  0.0387 -0.2419
24581W        W40765  18.643  13.384   4.575 -0.1204  0.0082 -0.1914
24582W        W40766   7.246   2.679  13.360  0.3917 -0.1239 -0.1096
24583W        W40767   7.135   6.051   0.863  0.1270  0.0178 -0.1283
24584W        W40768  17.457   6.116  11.699  0.0451  0.2140  0.1319
24585W        W40769  12.523   6.533  11.049  0.3355 -0.1359 -0.1685
24586W        W40770  15.355  16.822   1.434  0.0065  0.3166  0.0182
24587W        W40771   0.051  18.198  14.415  0.0622 -0.1347 -0.0873
24588W        W40772   4.613   4.499   3.505 -0.1320 -0.0191 -0.1617
24589W        W40773   6.753   6.250  13.889  0.1462 -0.1466  0.1719
24590W        W40774  12.513   7.311  14.699 -0.0476 -0.1604 -0.1753
24591W        W40775  10.775  17.997   2.808 -0.2640 -0.0597  0.0978
24592W        W40776   0.319  10.347   0.764 -0.1053  0.0185  0.1301
24593W        W40777   4.435  10.374  11.168 -0.0157 -0.2444  0.2212
24594W        W40778   0.458  16.711  10.505 -0.3032  0.1168 -0.1396
24595W        W40779   2.050   0.588   1.344  0.0245 -0.2098 -0.1137
24596W        W40780   2.088  11.424   9.667 -0.1285 -0.0615 -0.1188
24597W        W40781   7.802  12.584   3.510 -0.1102  0.4459  0.2810
24598W        W40782  14.444  19.167   2.972  0.2424 -0.0837 -0.1029
24599W        W40783   4.953   1.293  11.387  0.3821  0.1002 -0.3891
24600W        W40784   3.022  14.343  12.056 -0.0579 -0.0738  0.1444
24601W        W40785   7.798  14.992  11.210  0.4231 -0.1044 -0.2869
24602W        W40786   9.850   4.164  10.325 -0.0655  0.1227 -0.0588
24603W        W40787  19.181  17.672   4.439  0.0795 -0.1048  0.2071
24604W        W40788   4.959   0.356  13.095  0.1143 -0.0550 -0.1924
24605W        W40789   4.390  13.501   2.891 -0.1876 -0.0194  0.3308
24606W        W40790   8.472  17.001   1.782  0.3824  0.2954 -0.1830
24607W        W40791  13.144  13.990   1.816 -0.3928  0.0195  0.3159
24608W        W40792   5.116   2.504  12.814  0.0771  0.3495 -0.1475
24609W        W40793   7.418   1.139  11.469  0.0483  0.1781 -0.0464
24610W        W40794  17.298  10.375   6.019 -0.1832 -0.1773 -0.1637
24611W        W40795   7.082   7.673   4.349  0.1751  0.1322  0.0403
24612W        W40796  15.198   1.828  13.575 -0.1302 -0.1769  0.1549
24613W        W40797  16.174  18.006  14.642  0.2654 -0.2760 -0.3758
24614W        W40798  11.657   0.627  10.522 -0.2892  0.1425  0.0417
24615W        W40799   9.557  16.865  12.856 -0.2679 -0.0195  0.2538
24616W        W40800  12.100   8.976  14.391 -0.0980  0.1005 -0.0026
24617W        W40801  15.575   5.732   4.268 -0.0236  0.0013 -0.0527
24618W        W40802  16.210  11.524  13.307  0.1597  0.0348  0.0427
24619W        W40803   4.578  18.294   2.422  0.1766  0.3566 -0.1111
24620W        W40804   0.838  19.183   4.172 -0.0007 -0.0540 -0.1918
24621W        W40805  13.540  11.025  12.618  0.1668 -0.1113  0.2912
24622W        W40806   5.042  16.632   1.194 -0.0460  0.2808 -0.0115
24623W        W40807  13.854  16.897   5.164  0.0814 -0.1272 -0.0087
24624W        W40808   4.702   7.086   1.665  0.0446 -0.0917 -0.0030
24625W        W40809   3.542  16.659   4.413 -0.2825 -0.3734  0.1422
24626W        W40810  15.012   1.565  14.515 -0.1533 -0.1199  0.1428
24627W        W40811  17.713  18.396  13.844  0.3534 -0.2083  0.2522
24628W        W40812   6.718  12.511   0.815  0.2246 -0.0415 -0.1503
24629W        W40813  17.673  13.412  12.112 -0.1755  0.2383 -0.0609
24630W        W40814   9.549   7.174  11.475  0.2040  0.1930  0.0686
24631W        W40815   9.300  12.236  12.022 -0.1934 -0.1075 -0.3122
24632W        W40816   2.639   9.049  14.406  0.0691 -0.2634 -0.2206
24633W        W40817  13.778  16.108  11.724 -0.3306  0.2489  0.4004
24634W        W40818  18.135  11.926  12.447 -0.2224 -0.1233  0.3552
24635W        W40819   9.429   6.573  13.495 -0.0023  0.0580 -0.1594
24636W        W40820   7.890   2.984  10.059 -0.2462 -0.0269  0.1588
24637W        W40821  18.271   8.646   2.548 -0.0932 -0.3974 -0.0448
24638W        W40822   9.988  11.117  14.536  0.1654 -0.0065  0.0231
24639W        W40823   5.909  14.262  10.770  0.1118 -0.0814 -0.0904
24640W        W40824  11.263   7.554   1.916 -0.2150 -0.0294 -0.0232
24641W        W40825  11.715   8.128  12.358  0.0927 -0.2101  0.0736
24642W        W40826   0.216  17.338   2.881 -0.1638  0.0011  0.0237
24643W        W40827   3.113   4.909  11.448 -0.2069  0.0048 -0.2566
24644W        W40828  10.168   2.077  11.617 -0.0096 -0.0071  0.0020
24645W        W40829   3.119   0.957  10.748 -0.1992 -0.2474  0.0152
24646W        W40830  15.136   1.958   4.933  0.1872 -0.0422  0.0477
24647W        W40831  10.370   3.771  12.754 -0.6156 -0.1596  0.0892
24648W        W40832   9.899  16.964   4.331 -0.0101 -0.1069  0.0800
24649W        W40833   7.619  14.535   4.065  0.1960  0.0291  0.0397
24650W        W40834   2.682  13.553   5.115  0.0920 -0.0603  0.0146
24651W        W40835  13.780  17.297  13.412 -0.1251  0.1080 -0.0701
24652W        W40836  12.716   8.809  13.655 -0.0917 -0.1302  0.0584
24653W        W40837  12.254  11.539   0.265 -0.2217  0.1456  0.2796
24654W        W40838  10.240   0.265   4.098  0.1607  0.0832  0.1665
24655W        W40839  13.064  15.887   1.263  0.1899 -0.1097 -0.2203
24656W        W40840  16.259   8.226  14.475  0.1051  0.0624  0.0718
24657W        W40841  11.695   3.309  10.588  0.2973  0.2248 -0.0006
24658W        W40842   7.776  10.034   0.772  0.1670 -0.0204  0.0700
24659W        W40843  14.109  15.354  14.594 -0.0006  0.1043  0.0345
24660W        W40844   5.378   4.495  13.210 -0.3300 -0.1189  0.0088
24661W        W40845   2.512   4.866   4.393 -0.2694 -0.1134 -0.1643
24662W        W40846   5.424  14.537  14.697 -0.0745 -0.0384 -0.1812
24663W        W40847   0.996  16.998   1.435 -0.2429  0.1262 -0.2813
24664W        W40848  15.469  19.106   3.464  0.1507 -0.1586  0.0799
24665W        W40849  15.313  18.285  11.870 -0.0220  0.0265 -0.1769
24666W        W40850  16.323   5.409  13.379  0.2465  0.0923  0.0868
24667W        W40851   2.054   9.518  12.418 -0.2099 -0.1182  0.1732
24668W        W40852   3.033  10.930   2.246 -0.0286  0.0281  0.0947
24669W        W40853   8.651   8.692   5.022 -0.0123 -0.0875 -0.0689
24670W        W40854  18.293   3.202   1.773 -0.4013  0.1850 -0.0255
24671W        W40855  11.022  15.315  14.902 -0.1372  0.0011 -0.0130
24672W        W40856  18.178   8.541  14.813 -0.1881 -0.2113 -0.0174
24673W        W40857   4.640  16.133  13.095  0.1472  0.2831 -0.0093
24674W        W40858   9.209   6.010  11.926 -0.1070  0.0623 -0.2704
24675W        W40859  18.652  11.842  12.588  0.2454  0.2787 -0.1827
24676W        W40860   8.955  11.261   3.938  0.3174  0.1442 -0.1485
24677W        W40861  15.099   8.816   4.675 -0.5139 -0.1001 -0.3899
24678W        W40862  16.820   1.661   4.592 -0.1331  0.3194  0.2205
24679W        W40863   6.290  13.475   4.481 -0.2383 -0.0587  0.1945
24680W        W40864   7.685  11.754  11.383  0.6097  0.0876  0.2398
24681W        W40865   4.600  17.853   9.163  0.1029  0.0776 -0.3136
24682W        W40866   7.437  14.176  12.421 -0.1353 -0.3914  0.1700
24683W        W40867  14.450   4.200   4.097  0.3069 -0.2789 -0.3081
24684W        W40868   9.751   9.592  11.306 -0.0302  0.1013 -0.0156
24685W        W40869   8.165  13.673   0.835 -0.2720 -0.0691 -0.1703
24686W        W40870  12.290  16.703  10.313 -0.1677  0.0526 -0.0348
24687W        W40871   1.822   9.470   4.557  0.0337 -0.4623  0.1641
24688W        W40872   4.541  11.995   1.963 -0.2007  0.0319  0.0470
24689W        W40873  12.053   2.958   4.769 -0.2545  0.0923  0.0619
24690W        W40874  15.416   2.812   4.414  0.2931  0.0647  0.3212
24691W        W40875   5.493  10.335  11.777 -0.2917  0.1304  0.2451
24692W        W40876  10.663   6.497  14.203 -0.1152 -0.3051 -0.1665
24693W        W40877  10.658   9.972  13.818  0.2013 -0.0391 -0.2703
24694W        W40878   1.583   7.334  12.506 -0.0191  0.0633 -0.1194
24695W        W40879  15.290  17.004  14.288 -0.4305  0.1950  0.1575
24696W        W40880   7.776   8.399   3.986  0.1826  0.1859 -0.0530
24697W        W40881  13.021  16.538   3.715  0.2290 -0.1000  0.4121
24698W        W40882   2.017   6.299  12.805  0.0175 -0.0828  0.2390
24699W        W40883   8.627  12.430   3.853  0.2074 -0.2769  0.1030
24700W        W40884  10.017   1.994   1.919  0.1819 -0.1245  0.4300
24701W        W40885  13.478  11.859   3.471 -0.0614 -0.3651 -0.1598
24702W        W40886  15.212   6.654  11.192  0.0588 -0.1133 -0.0485
24703W        W40887  10.177  16.467  12.301 -0.4062  0.2093  0.0625
24704W        W40888  13.736  16.653  12.454 -0.1297  0.3189 -0.3565
24705W        W40889   7.232  12.852   4.113 -0.3324 -0.2231  0.1332
24706W        W40890  14.536  13.126  10.872 -0.1087 -0.0569 -0.0963
24707W        W40891   9.393   0.175  11.864 -0.1133 -0.1861  0.0711
24708W        W40892  15.693   1.393   9.061  0.1127  0.0408 -0.1694
24709W        W40893   4.044   0.262   0.262  0.0337 -0.0280  0.2937
24710W        W40894  14.700   4.401  14.824 -0.1553  0.3126  0.1478
24711W        W40895  13.127  18.312  10.664  0.0495 -0.2572  0.0035
24712W        W40896  19.093  12.673   1.957 -0.0157 -0.2482 -0.1154
24713W        W40897  16.872  11.784  12.090  0.3678  0.2463 -0.3630
24714W        W40898  11.111  17.278  13.305  0.0225  0.0520 -0.2146
24715W        W40899   2.661  10.625   3.414  0.4504 -0.3986  0.1115
24716W        W40900   4.075  13.570   1.794  0.2394 -0.3490 -0.0690
24717W        W40901   4.566   5.442   2.518  0.0386  0.1202  0.0375
24718W        W40902   0.200  11.496   3.620  0.4939  0.0912  0.2547
24719W        W40903  17.421  19.223   0.456  0.1109  0.0756  0.0692
24720W        W40904   2.162   5.325   2.201  0.2848  0.0055 -0.1229
24721W        W40905  11.129  15.888  10.833 -0.1282 -0.0467 -0.2150
24722W        W40906   2.364   8.003  11.632 -0.1726  0.2202  0.3326
24723W        W40907  10.543   3.884  10.260 -0.1278 -0.0140  0.0065
24724W        W40908   7.611  17.625  14.929  0.4216  0.2348 -0.1689
24725W        W40909  14.629   9.299  14.077  0.0522 -0.0669 -0.2861
24726W        W40910   7.431  18.403  13.849 -0.0416  0.0710 -0.0639
24727W        W40911   8.166  11.983  10.006 -0.0597  0.0841  0.0837
24728W        W40912  15.899  16.042  12.775 -0.0426  0.0153  0.0144
24729W        W40913  16.341   8.485  13.872  0.0627 -0.1523 -0.0155
24730W        W40914   7.074   7.725   3.531  0.1781 -0.0958  0.2718
24731W        W40915   1.030  12.987   3.363 -0.1188  0.0328 -0.2445
24732W        W40916   3.480   3.030  14.403  0.0402 -0.0627  0.1978
24733W        W40917   8.766   7.888   4.546 -0.2132  0.2464  0.3949
24734W        W40918  15.218   2.038  10.634  0.1976 -0.5224  0.0370
24735W        W40919  19.017  13.289   0.741 -0.1571  0.1121  0.1914
24736W        W40920   6.979   2.216  10.480  0.3336  0.1249  0.0771
24737W        W40921   4.626   4.584  12.866  0.1362  0.0001 -0.1635
24738W        W40922   6.102   3.198   4.390 -0.0567 -0.2535 -0.3128
24739W        W40923  11.053   4.799  14.417  0.0945 -0.0755 -0.0256
24740W        W40924  12.722   6.155   1.260 -0.1809  0.0166  0.1949
24741W        W40925   7.421   8.420  11.832  0.0889  0.0727 -0.0037
24742W        W40926  16.024   1.436  14.588  0.1804 -0.0538 -0.1258
24743W        W40927   1.761   4.103   2.662 -0.2216  0.2343  0.1021
24744W        W40928   7.268  18.548   4.750  0.0470  0.0812  0.0074
24745W        W40929  11.163  16.832  12.105  0.2502 -0.0157  0.1363
24746W        W40930   1.814   6.658   5.321  0.1223  0.1429 -0.2739
24747W        W40931   4.852  11.211  11.584  0.2669  0.1206  0.0501
24748W        W40932   0.737   9.240  12.923  0.0901 -0.2489  0.1708
24749W        W40933  14.499   6.391   4.077  0.0253 -0.2514 -0.3393
24750W        W40934   4.082  18.408   2.257  0.1162 -0.0345  0.1090
24751W        W40935   2.501   8.085   4.276  0.0637  0.0297  0.2148
24752W        W40936   7.102  10.901  11.811  0.1515 -0.1620 -0.0111
24753W        W40937  16.283  13.325  12.562  0.2672 -0.0347  0.1975
24754W        W40938  14.300   2.510   4.279 -0.0852  0.0697 -0.1024
24755W        W40939   0.660  15.356   2.391 -0.0271  0.4193 -0.0694
24756W        W40940   5.425   8.067  12.414 -0.3904  0.1934  0.0318
24757W        W40941   8.772  13.880  13.945  0.1565 -0.1678 -0.1821
24758W        W40942  12.951   4.976  14.385 -0.1828 -0.1189 -0.2821
24759W        W40943   1.323  12.030  13.492  0.0884  0.0938  0.0251
24760W        W40944  12.292   1.105   4.275  0.0396  0.0182 -0.2936
24761W        W40945  10.423  13.948  14.683 -0.2531 -0.0795  0.1441
24762W        W40946   0.897  13.613   0.856  0.0005  0.0060 -0.0677
24763W        W40947   5.414  12.490  11.813 -0.2453 -0.0674  0.1501
24764W        W40948   0.959  19.117   0.809  0.1033  0.1933  0.1876
24765W        W40949  13.556  13.512  12.929  0.1920  0.0653  0.1854
24766W        W40950  12.973  13.668   3.124  0.0205 -0.0607  0.0819
24767W        W40951  13.593  11.108   1.569 -0.1313 -0.1897  0.0402
24768W        W40952   8.752   6.798   1.099 -0.1264 -0.1439  0.1597
24769W        W40953  18.925   1.577  14.780 -0.2158  0.2471  0.1021
24770W        W40954   4.702   8.731   2.136  0.0871  0.0078  0.1979
24771W        W40955   3.954   5.013  14.772  0.3092  0.0675 -0.0436
24772W        W40956   2.623  16.525  13.034  0.2315  0.0870  0.0637
24773W        W40957  11.249  10.353   4.157  0.0873  0.1761  0.1447
24774W        W40958   3.915   6.940  12.996  0.1034 -0.1383  0.0282
24775W        W40959  13.363   4.384   3.800 -0.2343 -0.0002  0.0451
24776W        W40960   0.749   6.504   2.940 -0.2787  0.1449 -0.1586
24777W        W40961   4.531   4.261   5.865 -0.1110  0.0856 -0.0087
24778W        W40962   2.753  10.373   2.955  0.2917 -0.0526  0.1633
24779W        W40963   6.981  10.494   0.613 -0.0885  0.0088 -0.2666
24780W        W40964  14.324  17.071  14.624 -0.2099 -0.0006  0.0171
24781W        W40965  11.558   2.528  10.353  0.0902  0.2109 -0.1074
24782W        W40966  13.407  14.027  11.423  0.1937  0.1539  0.0910
24783W        W40967   4.924   6.417   0.875  0.0220  0.2348 -0.1179
24784W        W40968   3.335  13.922  10.871  0.1216  0.1905 -0.1613
24785W        W40969   7.554   0.943   3.510  0.3058  0.0394 -0.1839
24786W        W40970  15.187   3.181  11.439  0.1876 -0.4188 -0.1747
24787W        W40971   9.118  13.579   4.354  0.2954 -0.0362 -0.0050
24788W        W40972   2.801  12.784   9.931 -0.1868 -0.0211  0.1641
24789W        W40973  15.915   7.519   3.984  0.0786  0.0654  0.1026
24790W        W40974  11.601  17.546  12.544 -0.4198  0.1770  0.0792
24791W        W40975  12.689   3.644   1.559 -0.3420  0.0356 -0.2210
24792W        W40976   5.177  12.788   2.222  0.0610 -0.2775  0.2331
24793W        W40977  18.227  14.395   5.061  0.1224  0.1377 -0.0158
24794W        W40978   5.600  12.638   2.459 -0.0182  0.1928 -0.0025
24795W        W40979   8.840   7.592   4.956  0.0118 -0.0986 -0.0204
24796W        W40980  14.175   1.315  11.328 -0.0074 -0.0788  0.0976
24797W        W40981  14.425  12.702   2.112 -0.2183 -0.2191 -0.0451
24798W        W40982   9.132   2.590   1.109  0.1161  0.0747  0.2264
24799W        W40983  19.363  15.586  12.357 -0.3077  0.0482  0.0224
24800W        W40984  15.811  17.251   3.028 -0.1267 -0.0696 -0.1084
24801W        W40985   0.655  12.408   2.648 -0.0804  0.4777  0.0560
24802W        W40986  14.475  15.068  12.524 -0.2626 -0.0005 -0.1534
24803W        W40987   9.287   9.422   2.751  0.1246 -0.1540  0.0626
24804W        W40988   1.442   2.765  13.021 -0.0664 -0.2518 -0.0642
24805W        W40989   3.341   3.496   4.051 -0.1881  0.0704  0.0120
24806W        W40990   9.667   9.184   1.958 -0.0560 -0.0402 -0.2034
24807W        W40991   9.537   3.227  12.210  0.2209 -0.0444 -0.0520
24808W        W40992   8.710  10.131  11.949  0.0683  0.0088  0.2292
24809W        W40993   8.946   8.505  11.158 -0.1648 -0.1343  0.0284
24810W        W40994  15.309   7.448   4.093 -0.0490 -0.0447 -0.1625
24811W        W40995   4.871   9.884   1.618 -0.0761 -0.1171  0.1809
24812W        W40996   0.712  14.467  10.759 -0.0456 -0.1240 -0.1868
24813W        W40997  14.107  10.338   4.481  0.0471  0.1535  0.1535
24814W        W40998  17.713   5.570  14.517  0.0863  0.0207 -0.2326
24815W        W40999   9.749  14.463  10.723 -0.2891  0.0081  0.3476
24816W        W41000  18.741   8.977   1.149 -0.1557 -0.0797 -0.2340
24817W        W41001  11.282  13.271  12.230  0.4843  0.1446 -0.0414
24818W        W41002   5.599   5.034   0.525  0.2466  0.1010  0.0669
24819W        W41003  18.009  14.819   3.310 -0.1924 -0.4172  0.0552
24820W        W41004   6.233   5.121   0.956 -0.0250 -0.0350 -0.2078
24821W        W41005   1.197  17.125   3.493 -0.5516  0.1772 -0.3504
24822W        W41006  14.788   9.116  10.943  0.0848 -0.0528  0.2637
24823W        W41007  18.942  16.497  11.295  0.0777  0.1661 -0.3788
24824W        W41008   4.688  15.133   2.051  0.1731 -0.5046  0.1757
24825W        W41009  14.039  14.471   4.627 -0.0321  0.0669 -0.1840
24826W        W41010   0.625   8.431   2.801 -0.0017  0.0558 -0.4463
24827W        W41011   7.573   5.495   0.710 -0.0856 -0.0220  0.6749
24828W        W41012   6.165  16.682   0.435  0.2010 -0.4125  0.0095
24829W        W41013   0.299   1.014   2.120 -0.0530 -0.2298 -0.0200
24830W        W41014   9.804   4.402  13.146 -0.2503  0.3206 -0.1327
24831W        W41015  17.586   4.230   0.226  0.0516  0.2263 -0.1203
24832W        W41016   1.693  14.319   1.188 -0.0927 -0.2545 -0.1672
24833W        W41017   2.821   2.244   3.581 -0.4142  0.0076 -0.1762
24834W        W41018  19.090   0.810  11.690  0.4491 -0.2067 -0.0725
24835W        W41019   6.379  12.349  10.965  0.1295  0.3042 -0.3100
24836W        W41020  16.025  15.165   1.492 -0.4706 -0.3056  0.1607
24837W        W41021   3.482   0.727  14.790  0.1217 -0.3037  0.0679
24838W        W41022   7.504   9.469   0.124 -0.1000 -0.1758 -0.2276
24839W        W41023   5.828  12.856  14.308 -0.0558  0.3088 -0.3925
24840W        W41024   4.925   8.579   1.319  0.3184 -0.0595  0.2070
24841W        W41025   5.778  16.484   0.189 -0.0212  0.0180 -0.1079
24842W        W41026   3.207  12.616  11.868 -0.1449 -0.0415 -0.0484
24843W        W41027   3.735   5.888  10.779  0.1722 -0.5159  0.0907
24844W        W41028  12.922   3.089   2.429 -0.3734 -0.0732  0.0947
24845W        W41029   2.610   4.689  11.639  0.0566 -0.2973  0.1541
24846W        W41030  13.001   8.570  14.481 -0.2522  0.2149  0.2665
24847W        W41031   2.478  11.047   0.695 -0.0181 -0.0447  0.1957
24848W        W41032  13.919  17.721  10.817  0.0327  0.2920  0.0918
24849W        W41033  15.159   9.743  14.010 -0.1246 -0.0269  0.1803
24850W        W41034  11.746   0.250   2.426  0.0027 -0.0225 -0.4697
24851W        W41035   6.393   8.689  13.293  0.2734  0.3535 -0.1160
24852W        W41036   6.041   0.019  14.854 -0.2844 -0.2166 -0.1151
24853W        W41037  13.791   6.314   0.469 -0.0469  0.4541 -0.0566
24854W        W41038  11.429   4.355   1.208  0.1842 -0.1699  0.0123
24855W        W41039  10.205   4.263  11.513 -0.0138  0.2097 -0.0730
24856W        W41040  17.082   9.134  13.606  0.1827 -0.1634  0.1237
24857W        W41041   4.545  16.151   4.332 -0.0744  0.0628  0.0766
24858W        W41042  15.070   2.011  12.607  0.0162  0.0153  0.0044
24859W        W41043  13.316  18.268  13.252  0.0960  0.0238  0.1026
24860W        W41044   0.871   3.197   4.514  0.3099 -0.0783 -0.1536
24861W        W41045   7.010  10.198  14.600 -0.1981 -0.1629  0.0247
24862W        W41046   7.714   7.970  13.593 -0.0311 -0.1228  0.3812
24863W        W41047   6.418  11.040   2.937 -0.0707 -0.1968  0.2322
24864W        W41048   8.988  12.977  11.795  0.1108  0.1630 -0.0290
24865W        W41049   6.148  17.783   1.052 -0.1238  0.2011  0.0771
24866W        W41050  13.566  15.283   9.557  0.1598  0.0448 -0.0043
24867W        W41051  13.332  17.314   3.308  0.0469 -0.3003  0.0298
24868W        W41052  18.088  10.080   4.555 -0.3460  0.0689 -0.1075
24869W        W41053  12.734  18.117   3.161 -0.1077  0.0263  0.3301
24870W        W41054   9.491  17.245   2.578  0.0005  0.0673  0.1551
24871W        W41055   2.807  12.354  14.203 -0.1694 -0.0453 -0.1134
24872W        W41056  11.512  13.452  11.842  0.1676  0.1919  0.0114
24873W        W41057  10.320  12.058  12.632 -0.1224 -0.1699 -0.1005
24874W        W41058  13.354  10.826   0.397  0.0183  0.0066  0.1553
24875W        W41059  17.186   7.571  11.647 -0.0786 -0.1546  0.3375
24876W        W41060   8.755   9.255  12.317 -0.1078  0.4036 -0.0736
24877W        W41061  12.766  18.989   0.950  0.0648 -0.3542  0.4552
24878W        W41062   5.845  18.822  10.116  0.1075  0.1381  0.0174
24879W        W41063   1.707  16.976   9.213 -0.2210  0.1343 -0.2211
24880W        W41064  14.637  12.122   0.795  0.0751 -0.2264  0.2158
24881W        W41065  18.482  18.123   8.951  0.0450 -0.0968 -0.0495
24882W        W41066   7.987  19.371  10.259 -0.0186 -0.0392  0.0609
24883W        W41067   8.383  16.607  13.535 -0.0591 -0.0311  0.2406
24884W        W41068  10.280   6.268   5.771  0.3325  0.2469  0.1594
24885W        W41069  13.994   9.270   2.279  0.0317  0.3035 -0.3961
24886W        W41070   3.089   8.792  14.642 -0.0514 -0.2390  0.0117
24887W        W41071   3.717  18.699  11.277 -0.3678  0.1177  0.2847
24888W        W41072   5.086  10.154  11.493  0.1319  0.0270 -0.1774
24889W        W41073  10.421   9.581  14.320 -0.3505  0.0934 -0.2000
24890W        W41074  12.001  15.950   0.550 -0.1640 -0.2359  0.0027
24891W        W41075  13.907   1.266  14.318 -0.4367 -0.0955 -0.1135
24892W        W41076   7.195  12.449   5.195 -0.1025  0.1335  0.2633
24893W        W41077  11.663  14.524  14.912  0.1125  0.1724  0.0994
24894W        W41078   2.600   9.462  12.005 -0.1450 -0.1011 -0.0868
24895W        W41079   8.146   0.747  14.604 -0.1795  0.0822  0.1539
24896W        W41080  14.621   1.194  11.180  0.1298  0.0370  0.0407
24897W        W41081  19.181  14.186  10.771  0.1506  0.1643  0.0962
24898W        W41082  14.493   5.729  13.754 -0.2097  0.0860 -0.1064
24899W        W41083   7.654   2.989   2.481 -0.1713 -0.1046 -0.2499
24900W        W41084   6.263   9.835   0.440  0.0146 -0.2207  0.0445
24901W        W41085  11.143   7.741   3.085  0.1214  0.0489  0.0081
24902W        W41086   0.154  13.466  11.128 -0.2810  0.0770  0.0071
24903W        W41087   5.963   3.783   3.519 -0.1598  0.0920  0.1846
24904W        W41088   0.226   5.429   3.425  0.0150 -0.0333  0.0586
24905W        W41089   6.665  19.255  14.539  0.2323 -0.0309 -0.0256
24906W        W41090   9.701  19.312  14.773  0.1476 -0.5319 -0.0195
24907W        W41091  12.078  14.938  10.831 -0.3127 -0.0678  0.1846
24908W        W41092   3.266   7.788  11.389  0.0516 -0.0642  0.0606
24909W        W41093  17.102   2.591  14.313  0.0693 -0.0033 -0.3387
24910W        W41094   1.422  10.436   0.807  0.0994  0.0309 -0.2073
24911W        W41095   5.594  10.248  13.471 -0.4203 -0.1535 -0.1312
24912W        W41096  10.070  18.457   0.157  0.1251  0.3614  0.3707
24913W        W41097   3.534  19.153   1.923  0.0017  0.1720 -0.0795
24914W        W41098   7.063  10.537  10.347  0.0869  0.0054  0.0332
24915W        W41099   8.280  12.077  14.405 -0.2898  0.2250  0.2120
24916W        W41100   6.782  16.595   4.056 -0.3325  0.0179 -0.0086
24917W        W41101  16.453  10.686   3.672 -0.1729  0.0332  0.0306
24918W        W41102   2.236  14.461  13.155 -0.0123 -0.1050 -0.0021
24919W        W41103  16.412   3.451  12.919 -0.0771 -0.2392  0.0322
24920W        W41104   6.342  17.975   4.205  0.4116  0.0345  0.1041
24921W        W41105  10.557   3.263   0.326  0.1397  0.0033 -0.4833
24922W        W41106  16.781  14.401   0.689  0.0225 -0.2636 -0.5719
24923W        W41107  10.370  18.030  11.656  0.1832  0.1699 -0.0382
24924W        W41108  17.263  15.592  13.941  0.1070 -0.1556 -0.1325
24925W        W41109  11.211   6.978  14.741  0.1593 -0.2900  0.0156
24926W        W41110   7.057   2.951   0.587 -0.1232  0.1198 -0.0034
24927W        W41111  13.371  10.160  13.605  0.0256  0.0626  0.0516
24928W        W41112   9.932  10.363   1.508  0.1617 -0.1968  0.1454
24929W        W41113   0.458  14.291   4.993  0.0443 -0.2172 -0.0384
24930W        W41114  11.715   8.021   4.847 -0.1244  0.1807 -0.2050
24931W        W41115  17.601   7.636   0.646  0.0679  0.1753 -0.0680
24932W        W41116   2.537  10.007   4.097  0.2100  0.0283  0.1384
24933W        W41117  14.747  15.925   4.402  0.1299  0.0693  0.0703
24934W        W41118   9.165   1.416  11.966 -0.1899 -0.0239 -0.0415
24935W        W41119  12.698  13.272  13.457 -0.0372 -0.4769  0.3088
24936W        W41120  15.877   4.821   1.024  0.1331 -0.0339  0.3464
24937W        W41121   3.034  13.154   3.676  0.1529 -0.1685 -0.0632
24938W        W41122  12.731   3.648  14.069 -0.1253  0.0098 -0.2725
24939W        W41123   6.471  18.791  10.942  0.1648  0.0411 -0.3549
24940W        W41124   1.584   4.685   2.070  0.0082 -0.0737 -0.1777
24941W        W41125  18.841   8.901  14.061  0.2347  0.0543  0.2144
24942W        W41126  11.336   7.297  12.793  0.0666 -0.0066 -0.3620
24943W        W41127  12.881  11.017   2.147 -0.0565 -0.0538  0.0801
24944W        W41128   7.641  15.614   2.829 -0.2364  0.3160  0.1373
24945W        W41129   2.142  10.977  12.209 -0.1617  0.1330  0.4036
24946W        W41130   1.185   3.045  12.609  0.1292  0.0441  0.3665
24947W        W41131  14.564  17.601   4.308 -0.0071  0.0758  0.0605
24948W        W41132   7.369  17.180   2.395  0.1616  0.1222  0.0550
24949W        W41133   7.866  11.705   3.984  0.1237 -0.1113 -0.3239
24950W        W41134   1.569  15.497   4.174 -0.1450 -0.2474 -0.1673
24951W        W41135  16.773  11.456  13.224  0.2531 -0.3215  0.2128
24952W        W41136   7.516   9.820  13.734  0.0948  0.3789  0.1222
24953W        W41137   2.933   9.992   2.617  0.0724  0.2797 -0.2277
24954W        W41138   9.387   8.135  10.419  0.1329  0.4122  0.2817
24955W        W41139  16.292  13.418   1.413  0.0837 -0.1314 -0.2823
24956W        W41140  12.666  14.559   4.573 -0.1274 -0.4354 -0.5012
24957W        W41141  10.495   6.325   4.083  0.1165  0.1161 -0.0130
24958W        W41142   7.704   6.299   9.713 -0.1246  0.1358 -0.0216
24959W        W41143  19.113  11.506   0.186 -0.2242  0.3016  0.3743
24960W        W41144  18.591  18.461   2.778  0.4884  0.0731  0.2690
24961W        W41145  12.659   4.037  13.836 -0.2243 -0.0614 -0.3715
24962W        W41146   5.456  15.131   3.495 -0.2108 -0.0465 -0.4999
24963W        W41147   8.700  10.974   2.717  0.0557 -0.0170 -0.2325
24964W        W41148   0.997   3.297  14.012  0.0928  0.2349  0.0774
24965W        W41149  13.688  11.833  10.526  0.0820  0.1627  0.2681
24966W        W41150  11.383  14.951   3.155  0.0125 -0.0522  0.0851
24967W        W41151   9.844   0.773   1.783  0.2236 -0.2858  0.1945
24968W        W41152   3.791   2.749  13.421  0.2021 -0.2047 -0.0445
24969W        W41153  13.876  13.842  11.285 -0.2048  0.1876 -0.0628
24970W        W41154  14.078  15.968   1.417  0.0762 -0.1012 -0.0034
24971W        W41155  12.492   3.145   0.665 -0.0940 -0.2442 -0.1588
24972W        W41156  11.796   5.592   5.016 -0.0956  0.0580 -0.0309
24973W        W41157   4.821   6.812  12.588 -0.0080  0.1356 -0.2126
24974W        W41158  15.193   0.556   3.493  0.4292  0.2218 -0.1058
24975W        W41159   0.451  11.345   4.082  0.0971 -0.1097  0.3784
24976W        W41160   5.289   5.793   3.499  0.0960 -0.1071 -0.1511
24977W        W41161  18.446   5.709  13.767  0.0747 -0.0062  0.3920
24978W        W41162   7.897  16.684  11.643  0.2847  0.2327  0.2583
24979W        W41163   8.283  14.379  12.188 -0.0331 -0.1607  0.0377
24980W        W41164  14.666   3.450  14.893  0.1160 -0.2829 -0.1608
24981W        W41165  10.940   6.958   0.734  0.2016 -0.1938 -0.0840
24982W        W41166   5.639   3.981   1.463  0.2047 -0.2704  0.0590
24983W        W41167   8.979  18.519  11.045  0.2466 -0.1267  0.0698
24984W        W41168  15.168   4.800   2.057  0.0155  0.1699 -0.1958
24985W        W41169  17.812   0.303  12.823 -0.1879 -0.3463  0.1508
24986W        W41170   6.604   5.027   5.410 -0.1055  0.0949  0.0413
24987W        W41171   6.848   6.935   5.017  0.0325 -0.1032  0.0800
24988W        W41172  10.412   4.185  14.310 -0.0948 -0.0457 -0.1160
24989W        W41173   3.124   6.584   3.255 -0.1553 -0.4797  0.3126
24990W        W41174  10.558   2.059   5.237 -0.0644  0.1403 -0.1608
24991W        W41175   3.214   1.999  10.873 -0.2010 -0.1005 -0.0707
24992W        W41176   1.752  14.643   2.886 -0.0061  0.1626  0.3570
24993W        W41177  14.487  17.325  11.122 -0.2339  0.3430 -0.1916
24994W        W41178  15.672   9.024  11.578 -0.0833 -0.0082  0.1297
24995W        W41179   1.100  15.078  13.567 -0.3443  0.0622  0.0866
24996W        W41180   1.555  12.196   5.516 -0.2026 -0.1206 -0.3458
24997W        W41181  17.454  10.989  14.364  0.1837  0.2799  0.1598
24998W        W41182  12.033   5.036  11.051 -0.1428 -0.1567 -0.1200
24999W        W41183   1.798  18.548   1.581  0.1842  0.4104  0.0573
25000W        W41184   9.642   3.065   4.652 -0.3420  0.0411  0.2252
25001W        W41185  16.156   8.702  10.883 -0.0394 -0.1973  0.2703
25002W        W41186  14.111  14.943   2.454 -0.0263  0.0606 -0.1567
25003W        W41187  14.880   5.753  11.411  0.0791  0.0164  0.0332
25004W        W41188   6.890   4.371   0.312 -0.0898 -0.0008  0.0741
25005W        W41189  12.210  19.327   2.555 -0.0880  0.0927  0.2604
25006W        W41190   3.984   3.185  11.335  0.2893  0.0338  0.2085
25007W        W41191  15.390  16.222   9.870  0.3621 -0.0003  0.0118
25008W        W41192   0.614  14.918  13.608  0.1019 -0.2595  0.2913
25009W        W41193   8.216  11.894   0.862  0.0169  0.1208 -0.1093
25010W        W41194   5.751  16.310  14.653  0.1730 -0.0004  0.0546
25011W        W41195  15.661   6.825  11.291  0.3053  0.1431 -0.0740
25012W        W41196   9.889   8.052  10.352  0.3262 -0.0285  0.3172
25013W        W41197   7.511   2.735   0.234  0.2877  0.0978 -0.0732
25014W        W41198  14.880   2.733   1.363 -0.0516  0.0305 -0.0285
25015W        W41199   0.366  16.845  11.112  0.1262  0.0470 -0.2253
25016W        W41200   5.286  15.340   2.717  0.2180  0.0614 -0.1226
25017W        W41201  10.171   9.122   4.436  0.3961 -0.0440 -0.1763
25018W        W41202   9.577  15.419  12.757  0.1599  0.1579  0.0605
25019W        W41203   4.328   3.877   4.155  0.0587  0.1686  0.1538
25020W        W41204   7.208   4.528   3.669  0.0481  0.0815  0.1380
25021W        W41205   4.019  11.509  13.932  0.2497 -0.4230 -0.0998
25022W        W41206  16.276  19.135  11.561 -0.2621  0.1035  0.2176
25023W        W41207   3.273  17.808  11.985 -0.0748 -0.1992  0.1099
25024W        W41208  10.895   4.340  13.160  0.2299  0.1566 -0.2761
25025W        W41209  10.775   2.500   2.127  0.1802 -0.0162 -0.1168
25026W        W41210  14.552  13.051   4.696  0.0794  0.2857 -0.0047
25027W        W41211  17.921  10.031   3.562  0.0379 -0.0607 -0.1464
25028W        W41212   4.872  11.117   4.653  0.2555 -0.4907  0.0765
25029W        W41213   7.789   1.825   3.211 -0.0646 -0.2245 -0.0581
25030W        W41214   4.121  11.992   2.239 -0.0626  0.3751 -0.0128
25031W        W41215  14.507  11.766   2.055 -0.0078  0.0604  0.1072
25032W        W41216  17.696   8.155  13.632  0.0392  0.2447  0.1376
25033W        W41217   8.434  14.246  14.028 -0.1957  0.0141  0.0374
25034W        W41218  17.844  14.623  13.634 -0.2798  0.1346 -0.1118
25035W        W41219   8.324  18.368  11.401 -0.1301 -0.3399  0.0095
25036W        W41220   0.459   1.511   2.263 -0.1208 -0.2553  0.1172
25037W        W41221  14.165   6.048   3.329  0.3042 -0.0542  0.0407
25038W        W41222   4.546   0.264   1.040  0.2817 -0.2126  0.1993
25039W        W41223   4.762  10.641   1.191 -0.2849  0.3720  0.0922
25040W        W41224  16.017   8.822  11.961 -0.2349  0.1168 -0.0219
25041W        W41225  18.800   1.938   4.494 -0.2942  0.1803  0.4460
25042W        W41226  13.383   7.321   9.896  0.2925 -0.0113 -0.0138
25043W        W41227   9.714   7.268  10.978 -0.1582  0.3190  0.0753
25044W        W41228   0.861  18.995  12.176  0.2069 -0.4210  0.0926
25045W        W41229   9.294   5.598   3.153  0.0964  0.1679  0.0400
25046W        W41230   1.336  14.067   3.423  0.0658 -0.0485 -0.0042
25047W        W41231  18.754  10.921   2.597 -0.2121  0.1867  0.2372
25048W        W41232  10.699  10.832   4.885  0.2911  0.1478  0.1161
25049W        W41233   8.872  19.090  12.824  0.0868 -0.3185 -0.2201
25050W        W41234  17.286   4.108  10.537 -0.2502  0.0582 -0.3129
25051W        W41235  18.620  12.798   1.736  0.1721 -0.2082 -0.0967
25052W        W41236  14.132   1.236   1.644  0.2457  0.0328  0.0874
25053W        W41237  11.980   4.968  12.033 -0.1159 -0.0130  0.0197
25054W        W41238  12.264   0.849   0.960 -0.3699 -0.0074  0.0481
25055W        W41239  16.703   5.951  13.154  0.2324 -0.1023  0.1392
25056W        W41240   0.990  17.366  12.195  0.0078 -0.2827  0.0704
25057W        W41241   7.674  18.191   2.739  0.0622  0.0726 -0.1418
25058W        W41242   8.574   0.127  13.056 -0.0767 -0.0477 -0.0862
25059W        W41243   9.282  12.841   1.343 -0.0697 -0.1969 -0.1605
25060W        W41244   1.463   4.876  13.930 -0.1917 -0.0679  0.0563
25061W        W41245   4.254  14.232   0.445  0.3576  0.0756  0.1150
25062W        W41246   7.752  13.366   2.552 -0.1925 -0.1989 -0.1388
25063W        W41247  15.309   4.246   3.860  0.1017  0.2699  0.1726
25064W        W41248  17.347   3.326   4.893 -0.1275 -0.0144  0.1913
25065W        W41249   5.410  11.198   0.005  0.2474  0.0745  0.0514
25066W        W41250  17.467  19.007  10.751  0.1048  0.1250 -0.0613
25067W        W41251  14.894   7.855   1.321 -0.2891  0.0480  0.0840
25068W        W41252   5.773   6.979  13.440  0.2008 -0.0895  0.1492
25069W        W41253   4.524  10.948  13.596  0.2161  0.0271 -0.0969
25070W        W41254   8.935  16.126   4.652 -0.3126  0.0011  0.1322
25071W        W41255   6.773  17.533  14.364  0.2061  0.0317 -0.2527
25072W        W41256   7.188   0.128   0.492 -0.0586  0.0859  0.1622
25073W        W41257  17.695  13.586  11.536 -0.0273  0.2258 -0.1301
25074W        W41258  13.739   1.123   1.953 -0.3024  0.1737 -0.1971
25075W        W41259   7.893  13.895   1.746 -0.1812 -0.0374  0.0789
25076W        W41260  15.484   8.252  12.304  0.0663  0.1610 -0.1412
25077W        W41261  16.339  19.107   3.821  0.1667 -0.0989 -0.0230
25078W        W41262   9.706   5.308  12.070  0.0450  0.0561 -0.0507
25079W        W41263   4.172  14.686   0.705  0.2762 -0.1870 -0.1468
25080W        W41264   5.942  12.931  12.176 -0.0972 -0.2069  0.0798
25081W        W41265  10.703   9.677   3.222 -0.0964 -0.0431 -0.4615
25082W        W41266   5.553  17.048   3.446 -0.2755 -0.0595 -0.3439
25083W        W41267   5.543   6.900   5.744  0.2928  0.1979 -0.1784
25084W        W41268  13.128   1.807   2.427  0.0334 -0.0244 -0.4434
25085W        W41269  17.871   9.196  13.802  0.0079  0.1024  0.2394
25086W        W41270  18.049   8.228  14.409 -0.1376 -0.1614  0.2960
25087W        W41271  16.721   3.944   3.897 -0.2801 -0.0776 -0.2740
25088W        W41272  13.660   5.825   1.575 -0.1453  0.0843  0.2183
25089W        W41273   4.675  15.302  14.719 -0.2196  0.0817  0.0206
25090W        W41274  18.725   0.511  11.422  0.0094 -0.1921  0.3004
25091W        W41275   8.026  14.806   3.815  0.3986  0.3857  0.0780
25092W        W41276  11.553   6.761   3.807 -0.1593 -0.2369 -0.1842
25093W        W41277   3.001  16.651   5.376 -0.0286 -0.1762 -0.5574
25094W        W41278   9.048  13.157  12.227  0.0728  0.0491  0.1528
25095W        W41279   3.353   4.669   4.748 -0.0969 -0.3094 -0.2330
25096W        W41280   0.927  14.985  12.585 -0.0203  0.0053 -0.1726
25097W        W41281   5.872  15.452  13.137 -0.0414  0.4888  0.0876
25098W        W41282   7.854   3.223  13.085 -0.1246  0.1570 -0.0222
25099W        W41283   7.139  17.394   9.186 -0.2995  0.4504 -0.1965
25100W        W41284  15.769   1.579   0.069 -0.0266 -0.1320  0.0440
25101W        W41285  16.226   8.543   4.747  0.4305  0.1762  0.1647
25102W        W41286   8.642  12.412  14.657 -0.0746 -0.2112  0.3532
25103W        W41287  18.957  10.979   0.121 -0.0365  0.2277  0.0137
25104W        W41288   1.715  15.198  13.031 -0.0397 -0.1005  0.1543
25105W        W41289   9.924   0.286  13.120 -0.3411  0.0323 -0.3646
25106W        W41290  14.728  11.859   2.871  0.0313  0.2263 -0.0902
25107W        W41291  12.599   5.518   1.650 -0.2356  0.0959 -0.3143
25108W        W41292  13.871   3.397  12.141 -0.1559  0.0880  0.3725
25109W        W41293  13.516  19.259  14.678  0.0101  0.3164  0.0355
25110W        W41294   8.409   5.209   0.061 -0.0680  0.2305  0.2114
25111W        W41295   5.388  12.760  14.485  0.1737  0.0308 -0.1888
25112W        W41296  14.076   8.512   0.433  0.3010  0.0229  0.0383
25113W        W41297   1.553   3.795   2.315  0.2561 -0.2407  0.3558
25114W        W41298  12.209  17.819   2.371  0.0588  0.4169  0.0303
25115W        W41299   2.509   9.674   2.459 -0.0837  0.0394 -0.0579
25116W        W41300   8.880   3.872  12.767  0.3556  0.2887  0.2867
25117W        W41301  13.253  16.859   2.837 -0.0929  0.1602  0.0035
25118W        W41302  13.558   4.583  11.338 -0.2030 -0.3503  0.0571
25119W        W41303   1.988  14.126   3.206  0.1177  0.0153 -0.0109
25120W        W41304  10.729   5.280   4.886  0.1796  0.0037 -0.5020
25121W        W41305  14.471   4.282  12.980  0.1584 -0.0201 -0.1826
25122W        W41306   6.409   8.956  12.403  0.2094 -0.1487  0.2832
25123W        W41307   5.279   0.410  11.439  0.2156  0.2220 -0.2289
25124W        W41308  17.332  13.474   4.730  0.2510 -0.0435  0.2359
25125W        W41309   5.337   0.892   4.701  0.1127 -0.1037 -0.1044
25126W        W41310   0.503  10.300  13.184 -0.0519  0.0581  0.4135
25127W        W41311   5.006   5.319  13.156  0.0533 -0.4734  0.2588
25128W        W41312  18.332  13.255  13.644  0.3608 -0.0108  0.0656
25129W        W41313  17.980   6.425   0.413 -0.3445 -0.0866  0.0589
25130W        W41314  14.398  12.886   1.172  0.1532 -0.0079  0.2632
25131W        W41315  10.122   0.773   0.814  0.1482  0.1825  0.3500
25132W        W41316   5.673   5.907   5.713  0.0665 -0.1605 -0.2115
25133W        W41317   3.171  17.372   2.378  0.5029  0.1378 -0.1211
25134W        W41318  17.616  13.120  10.957 -0.0237 -0.0131 -0.2495
25135W        W41319   9.657   4.215  14.821  0.2372 -0.0540  0.0259
25136W        W41320  13.670  18.245  12.406  0.0141 -0.1870 -0.1656
25137W        W41321  18.207   5.760   4.045 -0.2436 -0.0029 -0.3002
25138W        W41322   4.058  10.243   3.226  0.1438 -0.1176  0.2619
25139W        W41323  18.603  14.052  13.054 -0.2567  0.1237 -0.2670
25140W        W41324   4.540  12.607   0.038 -0.1622  0.3401 -0.0131
25141W        W41325  18.200  10.877   1.952 -0.0800  0.0989 -0.2910
25142W        W41326   9.763   1.368   1.155 -0.2483  0.1150 -0.2352
25143W        W41327  13.393   0.209   0.642  0.0006  0.1712 -0.0174
25144W        W41328   2.180   8.118  12.411  0.0554  0.2977 -0.3112
25145W        W41329  16.309   1.802  11.014 -0.2726  0.1162 -0.1905
25146W        W41330   8.538   8.404   3.659  0.5365  0.2347  0.3757
25147W        W41331  15.646   7.619  13.161 -0.1287 -0.0803 -0.1469
25148W        W41332   0.438  19.105  13.337  0.2044 -0.1011  0.1567
25149W        W41333  15.890   1.210  12.985  0.3597 -0.1794  0.2558
25150W        W41334  15.290  15.840   9.104  0.1655  0.0569 -0.2061
25151W        W41335  16.071  12.536  10.716 -0.1287  0.0294  0.1221
25152W        W41336  18.725   4.946  12.535 -0.3429  0.0331  0.2735
25153W        W41337   3.334  10.372   3.849  0.3397 -0.0700 -0.0119
25154W        W41338  12.617  17.423  13.171  0.0141 -0.2002  0.4179
25155W        W41339   6.202   5.117   3.143 -0.3194 -0.0162  0.0836
25156W        W41340   5.958  18.291  10.204  0.0002 -0.0196  0.3431
25157W        W41341  16.037   6.329   1.141 -0.1206 -0.2970 -0.2767
25158W        W41342  14.312  17.798  11.175 -0.0439 -0.0059  0.0126
25159W        W41343  14.820  10.371  13.053  0.0142 -0.1932 -0.0647
25160W        W41344   6.835  11.780  12.390  0.0423  0.1404  0.2955
25161W        W41345   3.490  11.726  11.850  0.1518 -0.1337 -0.1410
25162W        W41346  15.005   4.595   4.705 -0.0138  0.0228 -0.2087
25163W        W41347  16.052   6.343   3.567  0.1232 -0.1850 -0.0007
25164W        W41348  10.982  12.538  10.669  0.1687  0.0368 -0.0079
25165W        W41349   5.329  16.437  11.812 -0.0122  0.1140  0.3213
25166W        W41350   1.451  18.448   0.391 -0.1414 -0.0262 -0.0880
25167W        W41351  13.978   0.630   4.741 -0.0637 -0.1347 -0.0894
25168W        W41352   5.806   1.135   0.592  0.1003 -0.2340  0.4705
25169W        W41353  19.137   4.192  13.119  0.0336 -0.0835  0.0174
25170W        W41354   3.476   6.782  13.785 -0.1301 -0.2088 -0.0334
25171W        W41355  18.658  19.366  14.329 -0.0072 -0.0853 -0.3705
25172W        W41356  17.383   2.166  14.926  0.6242 -0.2888  0.0415
25173W        W41357  15.823   5.109  10.372  0.1784 -0.5052 -0.1190
25174W        W41358  13.314   4.241  10.140  0.1221 -0.1905  0.2084
25175W        W41359  10.745   2.203   1.146 -0.0802 -0.1800  0.2691
25176W        W41360  11.453   1.856   9.960 -0.5704  0.2097  0.1970
25177W        W41361  17.879  10.956  14.599  0.2787  0.1908 -0.0783
25178W        W41362   5.658   3.532  12.664  0.1326 -0.0697 -0.1998
25179W        W41363   5.469   0.513  12.937  0.0784 -0.0129 -0.2336
25180W        W41364   9.654   3.553  14.514  0.0226  0.1069  0.0047
25181W        W41365   5.173   7.786   1.807  0.2547 -0.2187 -0.0030
25182W        W41366   5.889   8.775   5.632 -0.0242  0.0575 -0.0926
25183W        W41367   3.857   6.272  13.080  0.2235  0.1783  0.1452
25184W        W41368  11.973  15.886  13.015 -0.0491 -0.4189  0.0906
25185W        W41369  12.016   7.819   0.763 -0.4148  0.3908  0.3255
25186W        W41370   7.675  13.514  10.979  0.0987 -0.4373  0.1694
25187W        W41371   7.267  17.580   3.276  0.1810 -0.0041  0.3566
25188W        W41372  18.748  13.595  11.002 -0.1411 -0.0731  0.0717
25189W        W41373   6.933  18.871  14.436  0.5065  0.0175 -0.0951
25190W        W41374  19.228   1.897  12.607 -0.0486  0.1450  0.1558
25191W        W41375  12.489  19.103  12.997  0.0487  0.2042 -0.2031
25192W        W41376   4.252   8.031   3.652 -0.3758  0.3049  0.1329
25193W        W41377  15.839   7.248   2.462 -0.1421 -0.1813  0.0236
25194W        W41378   0.822   4.399  12.331 -0.1596  0.4840  0.4172
25195W        W41379   9.892   6.426  11.097 -0.0406 -0.0703 -0.3017
25196W        W41380   3.117   7.047   0.785  0.3352  0.2455 -0.2333
25197W        W41381   3.621   4.981  11.796 -0.1405 -0.0075 -0.0366
25198W        W41382   0.102   5.100   0.786 -0.0117  0.0919  0.0736
25199W        W41383  19.277   8.554  11.678 -0.1293  0.1112 -0.1128
25200W        W41384   6.402  15.488  12.096  0.0098 -0.1990 -0.0126
25201W        W41385  17.074   8.197   1.552 -0.1255  0.3229 -0.1260
25202W        W41386   4.130   0.306   2.974 -0.0812  0.2901  0.1139
25203W        W41387   3.466  15.921   0.881  0.0436  0.2081 -0.2180
25204W        W41388   3.688   9.491  13.612 -0.1001 -0.0234 -0.0077
25205W        W41389   9.942   9.967   4.044  0.0367 -0.1021 -0.3883
25206W        W41390   8.733  18.713   9.894 -0.0469  0.2291 -0.0797
25207W        W41391   5.543   6.928   1.291  0.0553 -0.3098  0.0920
25208W        W41392   1.165  17.641   5.500  0.0135 -0.2176  0.1310
25209W        W41393  12.225   7.166   2.664 -0.3400  0.1529  0.0264
25210W        W41394   1.815   7.803  10.218  0.2339 -0.1448  0.0368
25211W        W41395   5.131   1.363  11.853 -0.1543 -0.3810 -0.0015
25212W        W41396   9.095  11.679   4.773  0.0991 -0.1054 -0.0453
25213W        W41397   5.545  11.474  13.114  0.3089 -0.0984  0.1392
25214W        W41398   3.957   2.424  11.277 -0.1997  0.1786  0.3478
25215W        W41399   0.676   5.502  14.704 -0.1428  0.0812  0.1004
25216W        W41400  17.477  10.754  10.710  0.3787  0.2928 -0.1786
25217W        W41401  11.499   9.432   4.078 -0.1172  0.0337 -0.3029
25218W        W41402   5.646  16.174   3.076  0.3486  0.0393  0.1400
25219W        W41403   5.525   6.622   2.047  0.2987 -0.0152 -0.2405
25220W        W41404  18.904   7.231   5.235  0.1996  0.0682  0.1691
25221W        W41405  16.673   7.584  12.480  0.0774  0.3084  0.0569
25222W        W41406  18.263   7.346   2.011 -0.5544 -0.0928  0.5420
25223W        W41407   6.922   9.833   2.174 -0.0395  0.3550  0.0593
25224W        W41408   2.446   4.507   5.321 -0.0169 -0.2018 -0.0398
25225W        W41409   5.826  16.347  11.404 -0.0410  0.2370 -0.0580
25226W        W41410   5.934   1.406  13.676 -0.3068  0.1035  0.1964
25227W        W41411  18.238   0.183  13.819  0.3270 -0.0185  0.1681
25228W        W41412   9.566   0.897  11.184  0.0520  0.1837 -0.1663
25229W        W41413  12.409  10.000   1.765  0.1003  0.1113  0.1604
25230W        W41414  16.460  11.558   2.012  0.1438 -0.0692  0.0848
25231W        W41415  13.563   4.364   1.200 -0.0059 -0.3426 -0.3984
25232W        W41416  18.950   1.682  14.283  0.0887  0.1941 -0.1999
25233W        W41417   6.377   2.071  12.949  0.0230  0.1294  0.3639
25234W        W41418  18.253  19.339  10.728 -0.0717 -0.0768  0.1290
25235W        W41419  18.408  12.301   1.547  0.2255  0.0893  0.0342
25236W        W41420  13.439   0.246   2.345 -0.2252 -0.1936 -0.1052
25237W        W41421   7.546  11.707  14.000  0.3599  0.0029 -0.1904
25238W        W41422   9.432  18.437   1.080 -0.2976 -0.1208 -0.0228
25239W        W41423  19.339   4.924  12.798 -0.0195 -0.1642 -0.3351
25240W        W41424   0.949   7.643   1.145  0.1244  0.2223 -0.0816
25241W        W41425   9.200   8.659  13.780  0.0765  0.1298 -0.1519
25242W        W41426   6.176  16.132   2.550 -0.1927  0.3635 -0.1928
25243W        W41427   5.118   7.784  12.182 -0.0664  0.2782 -0.1514
25244W        W41428   8.265  11.405  14.295  0.1796  0.1467  0.3290
25245W        W41429   4.975  15.779   2.539 -0.1599  0.0733  0.3224
25246W        W41430   8.577  17.330   4.454 -0.8487  0.2528  0.0916
25247W        W41431   6.143  11.179   0.437  0.0028 -0.0657  0.4508
25248W        W41432   8.100   1.098  11.049 -0.1213  0.2152 -0.2239
25249W        W41433   4.902   1.887  14.469 -0.2957 -0.2492 -0.1291
25250W        W41434   0.773   4.047   3.244  0.1322 -0.0754  0.2453
25251W        W41435   7.132   5.578   0.970 -0.0245  0.4116  0.1218
25252W        W41436   6.280  10.129   2.703  0.0414 -0.0259 -0.1516
25253W        W41437   0.293   5.401  13.684  0.1429 -0.5192 -0.2747
25254W        W41438   8.954  15.194   4.931  0.2819 -0.1420  0.2484
25255W        W41439   3.354   1.204  14.481 -0.0600 -0.3216 -0.1307
25256W        W41440   7.088   9.300  10.782 -0.2081 -0.0515 -0.1919
25257W        W41441  17.114  16.279   9.862 -0.3496  0.1675  0.0974
25258W        W41442  12.977   1.845  12.220  0.4114  0.0745  0.0937
25259W        W41443  16.495   6.964   4.939 -0.0990 -0.0192 -0.1675
25260W        W41444   2.081   5.605  11.724  0.0154 -0.0250 -0.1325
25261W        W41445   2.287   3.183   4.403  0.5823 -0.1156 -0.1629
25262W        W41446   5.624  18.034  14.345  0.0665 -0.0732 -0.0606
25263W        W41447  15.627  12.399  12.844  0.1431  0.0246  0.0857
25264W        W41448   8.864  16.404   0.607  0.0769  0.3596  0.0133
25265W        W41449  14.433  15.969   4.029  0.0704 -0.0175 -0.0557
25266W        W41450   3.806  18.756  12.595 -0.3007  0.0326  0.2741
25267W        W41451  13.376  12.165  13.872  0.3568 -0.3078 -0.3074
25268W        W41452  17.109   5.039  13.650  0.1701  0.2721 -0.1962
25269W        W41453   6.086  17.673  10.632 -0.0120 -0.1133  0.2163
25270W        W41454  13.677  12.949  11.389  0.1693 -0.0652  0.0956
25271W        W41455   3.539  11.014  13.094  0.1725 -0.1248  0.3946
25272W        W41456   9.690  14.074   0.588  0.1140  0.1909 -0.0661
25273W        W41457   4.607  14.754   3.651  0.1456  0.3270  0.0777
25274W        W41458  17.847  17.665  10.525  0.3650 -0.2655 -0.0815
25275W        W41459  16.413   7.033   3.060 -0.2115  0.0598 -0.1761
25276W        W41460   5.074  12.900  12.270 -0.0775  0.0231 -0.0983
25277W        W41461  18.862   1.992   2.797 -0.0498 -0.2176  0.0846
25278W        W41462   0.440   9.567   2.878  0.0780 -0.0241  0.0611
25279W        W41463  14.268   5.124  10.925 -0.2767  0.0903 -0.3562
25280W        W41464  10.426  15.030   4.651  0.0495 -0.2424 -0.0929
25281W        W41465  17.163  16.311  14.827  0.2476  0.2397 -0.3187
25282W        W41466  12.667  11.698   2.012 -0.0367  0.0084 -0.0723
25283W        W41467  13.386   4.955   0.402 -0.1243  0.0471 -0.1870
25284W        W41468   2.252  15.718   3.733  0.0193  0.0067 -0.0603
25285W        W41469  13.207   0.501  14.312  0.1083 -0.0698  0.0294
25286W        W41470   4.567   1.598   1.755  0.1592 -0.3390  0.1885
25287W        W41471  11.632   5.979   4.201 -0.3002 -0.3449 -0.2918
25288W        W41472   6.983   6.982   1.957  0.3038 -0.1415  0.1314
25289W        W41473  13.629  16.045   4.106  0.0251  0.0110 -0.4016
25290W        W41474   6.064   4.356   0.203 -0.1019 -0.0516 -0.0577
25291W        W41475  14.227   4.083  11.054 -0.3841  0.4385  0.2362
25292W        W41476  18.757   9.314  11.904  0.1406  0.1035  0.0484
25293W        W41477  13.005   2.234  10.668  0.1258 -0.1141 -0.1201
25294W        W41478   6.964   3.655  13.680  0.0235 -0.2173 -0.0962
25295W        W41479  14.807  15.277  13.298 -0.1103 -0.1189 -0.3281
25296W        W41480  10.952  12.077   3.945  0.1814  0.2155  0.2657
25297W        W41481   1.157  17.414   4.309 -0.3689 -0.1853 -0.1549
25298W        W41482  11.499   6.706  10.619 -0.0788  0.0079  0.1398
25299W        W41483   5.424  16.010   3.484  0.0327  0.1051  0.3584
25300W        W41484   4.985   1.315  12.904 -0.1934 -0.1879 -0.3144
25301W        W41485   9.138   4.657   1.597 -0.2168  0.0460  0.0257
25302W        W41486  15.825  14.287  11.250  0.0041  0.1792 -0.1770
25303W        W41487   0.998   1.204   0.435 -0.0508 -0.0107 -0.0301
25304W        W41488   5.085  19.213   3.786 -0.1246 -0.1864  0.0373
25305W        W41489   1.757  10.840  13.584  0.0752 -0.2827 -0.2256
25306W        W41490   1.090  16.886  13.653  0.3149 -0.0538  0.1822
25307W        W41491  16.678   7.883  12.911 -0.0145  0.2104  0.0890
25308W        W41492  16.023  14.642  12.209  0.3213  0.3691 -0.0361
25309W        W41493   0.774   1.745  12.085  0.2729 -0.0887  0.1185
25310W        W41494  10.751   4.405   2.312  0.3347 -0.2536 -0.0446
25311W        W41495  14.962  16.878   0.898 -0.1394 -0.0429  0.1949
25312W        W41496  17.953   1.852  12.540 -0.2367  0.0656 -0.1025
25313W        W41497  11.313   7.124   9.700 -0.3161 -0.2487 -0.1609
25314W        W41498   6.984   4.099   5.851 -0.3187  0.1770  0.1231
25315W        W41499   0.014   3.704   6.110  0.1530  0.3055  0.1251
25316W        W41500  18.231  16.044   4.493 -0.0473  0.0336 -0.2316
25317W        W41501  16.494  18.240   0.129  0.2395  0.0019  0.0461
25318W        W41502   0.913  16.652   3.221 -0.0953 -0.3276 -0.4349
25319W        W41503  17.823  14.003  10.608 -0.0297  0.1564  0.2838
25320W        W41504   0.330  15.153   4.761  0.1620 -0.1223  0.3293
25321W        W41505   7.745  17.689   1.843 -0.0779 -0.3864  0.1489
25322W        W41506  11.914  12.902   1.036  0.3370  0.2719  0.2389
25323W        W41507   0.599  15.207  14.838 -0.1288  0.1404 -0.0929
25324W        W41508  17.314   7.121   2.163  0.1914 -0.1430  0.2174
25325W        W41509  10.100   4.606   2.372  0.0370 -0.1302  0.4371
25326W        W41510   5.232   5.462   4.873 -0.1323 -0.0633  0.1529
25327W        W41511  13.220   7.989   0.243 -0.0381  0.3069 -0.0002
25328W        W41512  13.851  15.254  10.291  0.2220  0.5212 -0.1001
25329W        W41513   3.853   8.478   5.002 -0.1053 -0.0829 -0.0661
25330W        W41514   8.769   3.080  14.612  0.0162 -0.2999 -0.0923
25331W        W41515   1.942   2.428  11.813  0.0609  0.2317  0.0309
25332W        W41516  18.015   7.572  10.413 -0.1077  0.2628  0.2851
25333W        W41517   5.129   8.522   4.432  0.1100 -0.3578  0.1469
25334W        W41518  11.856   8.683   4.197 -0.0071 -0.3376 -0.0403
25335W        W41519  17.577   4.709  11.859 -0.1790 -0.3601  0.1094
25336W        W41520   4.006   4.564  13.029 -0.1215 -0.2763  0.0208
25337W        W41521  11.719  18.140  14.107 -0.2585 -0.0730 -0.1867
25338W        W41522   5.528  14.574  14.053 -0.1903  0.0178  0.0957
25339W        W41523  16.537   7.986  11.972  0.1299 -0.1007 -0.0731
25340W        W41524  12.767   4.005  12.661 -0.2787  0.3810  0.1792
25341W        W41525  19.071   0.398  12.392  0.4251 -0.0061 -0.0306
25342W        W41526  10.100   2.352   3.358 -0.1120 -0.1810  0.0357
25343W        W41527   9.456   1.834   3.542 -0.0782 -0.0235  0.1694
25344W        W41528   3.402  15.759   9.429 -0.2757 -0.2316 -0.1528
25345W        W41529   2.707  16.616  11.968 -0.2981 -0.2144 -0.4052
25346W        W41530  14.834  12.780  13.280  0.0014  0.0479  0.1270
25347W        W41531  12.227   5.280   4.194 -0.1075  0.0385  0.0360
25348W        W41532  10.147   8.576  11.637  0.0644  0.1148  0.0160
25349W        W41533  15.428  18.776   3.956 -0.0457 -0.1115  0.5535
25350W        W41534   1.131   2.970  13.413 -0.1049 -0.0907  0.0506
25351W        W41535  15.022   8.136   4.685 -0.1520 -0.0185 -0.0734
25352W        W41536   5.191  18.590  13.531  0.4032  0.1516 -0.0382
25353W        W41537  18.442   7.002   3.708  0.1612 -0.0857 -0.0368
25354W        W41538   4.217   6.151   9.835  0.1423  0.2909 -0.1192
25355W        W41539   9.354   4.212   9.940 -0.0589 -0.1742  0.3851
25356W        W41540   7.630  14.383  14.901 -0.1940 -0.0899 -0.0096
25357W        W41541  14.038  17.389   1.271  0.0264 -0.0265 -0.1310
25358W        W41542   0.633   5.949   4.612  0.0704  0.0976 -0.1206
25359W        W41543  13.613  12.759   4.707  0.1724  0.0918  0.2488
25360W        W41544   8.026   6.055  10.936 -0.0892 -0.0970  0.0072
25361W        W41545  15.146   7.058  10.809  0.2105 -0.0778 -0.0288
25362W        W41546   4.921  16.916  13.142  0.0848 -0.1933  0.1750
25363W        W41547  10.302  18.785   0.713 -0.0767  0.1531 -0.0975
25364W        W41548  11.834  10.494  11.443 -0.5333  0.1753  0.0353
25365W        W41549   9.112   2.648  14.615  0.1190  0.2441  0.1288
25366W        W41550  16.034   3.015   1.399 -0.3957 -0.3254  0.2644
25367W        W41551  15.549  10.068   1.522  0.0761  0.3042 -0.1079
25368W        W41552   9.686  10.784   3.971 -0.1007 -0.0742 -0.0235
25369W        W41553  12.483   7.754   3.170  0.2606 -0.0773 -0.3177
25370W        W41554   9.585  19.024  12.199  0.0689  0.1291  0.1437
25371W        W41555  15.693  11.331  14.424  0.1802 -0.0843 -0.1598
25372W        W41556   0.941  14.461   3.635 -0.1119 -0.0308 -0.0026
25373W        W41557   3.278   0.136  12.881 -0.0412  0.1872 -0.4271
25374W        W41558   3.843   2.893   5.103  0.0587  0.0391  0.1133
25375W        W41559   9.334  17.500   0.104  0.1497 -0.1395 -0.3135
25376W        W41560  18.020   3.488   0.554  0.1241 -0.1810 -0.0284
25377W        W41561   5.519  12.979  12.542  0.0408  0.3103 -0.2206
25378W        W41562   0.497   4.935  14.006 -0.1923  0.0085 -0.1440
25379W        W41563   6.323   7.948   4.264  0.3963  0.1710  0.2029
25380W        W41564   6.434   5.416   3.514  0.1225 -0.2384 -0.0029
25381W        W41565   3.798  11.503   2.203 -0.0305 -0.1607 -0.0168
25382W        W41566  13.901  18.752  12.690  0.1099 -0.0691  0.0630
25383W        W41567  14.552   9.935   3.428 -0.2411  0.0979  0.1506
25384W        W41568  10.548   8.811   4.152  0.2225 -0.0411 -0.4665
25385W        W41569   4.837  15.882   0.475  0.4037  0.1567  0.0092
25386W        W41570   3.877   4.017   0.947 -0.2250  0.3179  0.1156
25387W        W41571   4.195   9.356  13.289 -0.1074  0.0614  0.2038
25388W        W41572   2.784  14.468   0.288 -0.2736 -0.1105 -0.0919
25389W        W41573  18.673  18.421   0.328 -0.1757  0.1320  0.0534
25390W        W41574   3.119  11.483   3.241  0.0694 -0.0538  0.0695
25391W        W41575  15.634  13.769   5.000 -0.2680 -0.0936  0.1296
25392W        W41576   0.533  11.060  13.978  0.3263 -0.0106  0.1246
25393W        W41577  16.452  13.795   3.500 -0.0707  0.1797  0.2800
25394W        W41578   3.587   3.409   1.118  0.0601 -0.2492 -0.0417
25395W        W41579   2.837   0.847  11.400 -0.3910 -0.0897 -0.3423
25396W        W41580  16.964  15.487  14.304 -0.1503  0.1970  0.2265
25397W        W41581   3.721  15.388  14.708 -0.2613 -0.5199  0.0750
25398W        W41582  11.996   3.186   1.466 -0.2947 -0.0229  0.0235
25399W        W41583   0.624  16.775   0.526  0.1444 -0.1474 -0.0188
25400W        W41584  16.338  16.711  10.536 -0.3350  0.2834 -0.1227
25401W        W41585  10.597  18.805  14.023  0.3465  0.1103 -0.1691
25402W        W41586  16.063   7.397  12.550  0.0062 -0.3047  0.2038
25403W        W41587   9.526   4.056   4.447 -0.1351  0.0247 -0.3044
25404W        W41588  16.480   2.898   1.028 -0.0394  0.2571  0.0209
25405W        W41589   4.033  17.542   0.562 -0.0095 -0.0238  0.1347
25406W        W41590   2.705   3.464   0.436 -0.3399 -0.0856 -0.0889
25407W        W41591  10.970  10.976   3.701 -0.0746 -0.1264  0.1884
25408W        W41592   7.508   2.068   4.669 -0.4658 -0.0017  0.1068
25409W        W41593  10.123   3.683   3.995  0.0912 -0.1459  0.4978
25410W        W41594  12.631   7.972  10.350 -0.3265  0.3545 -0.1342
25411W        W41595  13.866   4.761  11.773 -0.0792 -0.1173 -0.2347
25412W        W41596  15.490  10.020   4.357  0.0823 -0.1930 -0.1553
25413W        W41597   1.864   1.947   1.664  0.0465 -0.0078 -0.0755
25414W        W41598  18.614   2.398  13.881  0.2078 -0.2044  0.2167
25415W        W41599  17.541   2.060   3.572 -0.2981 -0.0204  0.0060
25416W        W41600   7.293   5.190   4.944  0.0810  0.0871 -0.0964
25417W        W41601  12.954  18.632   4.354  0.2853 -0.1007  0.0065
25418W        W41602   4.965  13.231   2.193 -0.3972 -0.0262 -0.0510
25419W        W41603  17.071   9.023   4.610  0.1390  0.1480  0.0747
25420W        W41604  11.738   6.074  10.805 -0.0096 -0.2756  0.0731
25421W        W41605   8.423   9.514  14.066 -0.3596 -0.0435  0.0002
25422W        W41606   0.195  11.592   1.427  0.0528 -0.3127  0.1276
25423W        W41607   0.280   4.341   1.485  0.2699  0.0604  0.1409
25424W        W41608  18.355  12.316   4.567 -0.1273 -0.1077 -0.0548
25425W        W41609   1.602  12.972  13.395  0.2469 -0.1190  0.2824
25426W        W41610   2.075  11.158   3.551 -0.1061  0.1853  0.1844
25427W        W41611   8.649  18.828  10.705 -0.2265 -0.0864  0.0161
25428W        W41612   8.666  16.595   1.390 -0.0682  0.1321  0.0566
25429W        W41613  12.552  17.302  12.246  0.1179 -0.0231  0.2165
25430W        W41614   9.949  16.061   1.376 -0.2308  0.2276 -0.3531
25431W        W41615  11.521   1.576  13.617 -0.3129  0.2241 -0.4437
25432W        W41616   0.510  18.007  14.710  0.1121 -0.4704 -0.0128
25433W        W41617   7.051   3.122  13.433 -0.3025 -0.1731  0.0176
25434W        W41618   5.158  18.058   0.275 -0.0593  0.0149 -0.0695
25435W        W41619  10.458  14.629  11.634  0.0186  0.0029  0.3791
25436W        W41620   1.452  13.020   5.297  0.0137 -0.0450  0.0781
25437W        W41621  16.745   5.888  14.533  0.3252  0.4746 -0.3098
25438W        W41622   3.411  10.784   3.478 -0.0671  0.1966  0.4071
25439W        W41623   5.073   2.091   4.010 -0.2500 -0.2631 -0.3602
25440W        W41624  18.300   0.656  14.663  0.1933 -0.0560 -0.1278
25441W        W41625  19.321   6.476   3.502 -0.1193  0.2790  0.0722
25442W        W41626  15.536   7.019  14.314 -0.1014  0.2953 -0.2320
25443W        W41627  19.168  10.130   0.751  0.0022  0.4413 -0.0335
25444W        W41628   7.274   5.319  12.531  0.0764 -0.3366  0.0838
25445W        W41629   7.056  18.779  13.895 -0.0054 -0.1574  0.0343
25446W        W41630   1.894  11.202   0.868 -0.1277  0.2598 -0.0465
25447W        W41631  15.210   0.040  12.385 -0.4020 -0.1916  0.0260
25448W        W41632  11.004  14.529   9.791  0.1237 -0.0955  0.0488
25449W        W41633   7.911  14.129  12.396 -0.3031  0.1886  0.0900
25450W        W41634   5.147   0.236  13.534  0.1751  0.1160 -0.1811
25451W        W41635  16.732  19.107  11.075  0.0542  0.0997 -0.0047
25452W        W41636  11.821   7.014   3.018  0.1841  0.0692 -0.2108
25453W        W41637  17.376  16.729  10.766 -0.2174 -0.2914  0.0322
25454W        W41638  10.577   7.304   3.608 -0.1227  0.2065  0.0499
25455W        W41639  14.869   7.692  14.710  0.0069  0.1475  0.0244
25456W        W41640   9.881  18.814   2.977  0.5739 -0.4319 -0.0756
25457W        W41641   6.530   5.960  10.878  0.1175 -0.3436  0.1395
25458W        W41642  12.915  10.420  12.753 -0.0269 -0.1506 -0.1019
25459W        W41643   4.234  11.737   0.365  0.3856  0.1480 -0.2510
25460W        W41644   2.772   6.046  14.394  0.0423  0.2939 -0.3964
25461W        W41645   3.040  12.734  13.279 -0.1082 -0.1479  0.0871
25462W        W41646   5.266  14.223   1.940  0.3300 -0.4994  0.0009
25463W        W41647  11.603   1.419   2.003  0.1092 -0.1173  0.0924
25464W        W41648   5.211   5.446   1.807 -0.4201 -0.2227 -0.0078
25465W        W41649   3.226   9.239  14.543 -0.0277 -0.0291  0.0507
25466W        W41650  11.998   0.887  12.627 -0.2494 -0.2786  0.0532
25467W        W41651   0.210   2.211  12.582  0.2972  0.0615 -0.2785
25468W        W41652  13.824  11.959   2.467 -0.1545 -0.0814  0.1740
25469W        W41653  11.917  11.224   1.791  0.2657  0.1196 -0.1137
25470W        W41654   0.867   5.341   1.492 -0.5126 -0.1236  0.2097
25471W        W41655  11.711   4.312   4.363  0.2862  0.3177  0.0342
25472W        W41656  13.190   2.669   5.479 -0.0215 -0.1890 -0.1349
25473W        W41657   4.864   8.262   5.383  0.1372  0.0972 -0.1823
25474W        W41658  18.476  18.222   2.245  0.0998  0.0640  0.0263
25475W        W41659  12.251   2.666  11.450  0.1520  0.1288 -0.0062
25476W        W41660  15.907  18.612   1.581 -0.2695  0.1974 -0.3096
25477W        W41661  15.349   5.696  11.535  0.0717  0.0869 -0.2249
25478W        W41662   3.108   1.277   1.967  0.0189  0.3093  0.1999
25479W        W41663   7.053  17.567  13.526  0.1853 -0.1707  0.2889
25480W        W41664  19.218  15.417   0.286 -0.1669  0.0862  0.0271
25481W        W41665   7.591   3.039   1.977 -0.1050  0.2216 -0.3101
25482W        W41666   3.653  17.464   0.274  0.0463  0.0779 -0.2514
25483W        W41667  10.278  16.767  10.510 -0.0176  0.2804  0.2526
25484W        W41668   5.796  10.773   0.410  0.1387  0.2038  0.4385
25485W        W41669   8.959   7.364  12.591  0.3721 -0.0202  0.0807
25486W        W41670  16.081  15.730  10.334  0.0574  0.4037 -0.3793
25487W        W41671  17.535  18.011   2.085 -0.2512 -0.0672 -0.2403
25488W        W41672   5.566   8.436  11.039  0.1236  0.1199  0.0907
25489W        W41673   6.675   2.893   1.994  0.0604 -0.1368  0.1850
25490W        W41674   9.535   6.585  10.612  0.0267 -0.0666 -0.1591
25491W        W41675   0.756  13.505   2.662  0.0076  0.0249 -0.0356
25492W        W41676  17.276   2.416   1.363  0.3083  0.4461 -0.0109
25493W        W41677   8.930   0.410  14.372 -0.1235  0.1132  0.2018
25494W        W41678  19.297  15.554  10.951  0.1297  0.2697 -0.2115
25495W        W41679  17.196  14.306  11.383 -0.0170 -0.0904 -0.0514
25496W        W41680   5.755  15.329  14.204 -0.2484  0.0571  0.5162
25497W        W41681   1.532  18.679   3.433 -0.0791 -0.0369 -0.1863
25498W        W41682  13.657  18.981  11.384 -0.1086 -0.0482 -0.0354
25499W        W41683  18.007  13.964   0.173  0.0156 -0.1065  0.1770
25500W        W41684  14.206   5.259  14.054  0.3676  0.3012 -0.3928
25501W        W41685   4.928   3.108   2.190 -0.0547  0.1131 -0.2541
25502W        W41686   5.285  16.095  14.633 -0.0853 -0.0402  0.0728
25503W        W41687  11.209   3.814  12.003  0.3332 -0.1837  0.0538
25504W        W41688   8.001  15.269   3.245 -0.2722 -0.0481  0.1701
25505W        W41689  12.293  14.071  13.647  0.1015  0.2910  0.1003
25506W        W41690   7.805   1.710   5.540 -0.0910  0.1177  0.0369
25507W        W41691   4.694   2.596  13.181  0.0592  0.0992 -0.3727
25508W        W41692   3.961   0.840   2.284 -0.0145 -0.2363 -0.1633
25509W        W41693   1.247   6.164  12.691  0.3839 -0.0602  0.0791
25510W        W41694  13.011  12.710  10.810 -0.1415  0.1125 -0.2303
25511W        W41695  11.837  19.185   2.230 -0.0961 -0.1270 -0.0614
25512W        W41696   8.891   2.929  12.822  0.1607 -0.4097 -0.1671
25513W        W41697   2.395  12.779  10.694 -0.2528 -0.0440  0.0237
25514W        W41698  10.890   2.871   3.438 -0.1937  0.1198  0.0601
25515W        W41699   0.717   0.181  13.766 -0.0291 -0.0170 -0.2450
25516W        W41700   7.427  15.267   0.642 -0.0053 -0.0725 -0.1132
25517W        W41701   5.691  12.341  12.759  0.0617  0.2733  0.1290
25518W        W41702   4.312  16.737   1.643  0.0518 -0.3538 -0.0902
25519W        W41703  18.061   7.645   4.882  0.0272  0.0165 -0.1147
25520W        W41704  18.959   9.295   0.045 -0.0900 -0.0715  0.2844
25521W        W41705   4.248  12.451   2.104  0.1306 -0.0877 -0.1437
25522W        W41706   3.062  15.233   2.302  0.1716 -0.0465  0.0671
25523W        W41707  18.562   8.498  14.034 -0.1215 -0.0061 -0.3212
25524W        W41708   6.637   1.741  13.387 -0.2019  0.0495  0.0236
25525W        W41709  15.525  17.445  14.228  0.1077  0.0514  0.1461
25526W        W41710  12.038   3.290   0.913  0.0190 -0.2470  0.3123
25527W        W41711   5.487  16.672   3.014  0.1154 -0.1769 -0.0383
25528W        W41712  16.480   0.212  11.859  0.1024 -0.5959  0.1698
25529W        W41713   0.712   2.613  11.386 -0.1084  0.1689  0.2338
25530W        W41714   9.673   2.340   4.233  0.2303  0.1507  0.0495
25531W        W41715  16.523  15.340   0.543 -0.2991 -0.2023 -0.0157
25532W        W41716  14.181  18.118   9.181 -0.2873  0.3609 -0.0144
25533W        W41717  13.504   9.113   3.734  0.1348  0.0150  0.0357
25534W        W41718  16.763   3.256  13.199 -0.0900 -0.0624  0.0431
25535W        W41719  11.252  16.994   2.155  0.4047  0.0658 -0.2439
25536W        W41720   5.877  13.873   5.051 -0.0441  0.1198 -0.2664
25537W        W41721  13.137  11.120   0.720  0.1427 -0.1309  0.0544
25538W        W41722   2.744   5.267  11.215 -0.0404 -0.1386 -0.2513
25539W        W41723  17.557  11.436   2.512 -0.4926 -0.0292  0.0930
25540W        W41724  16.482  13.021  11.306  0.0402 -0.0302  0.3428
25541W        W41725   6.666   3.099  11.714  0.0376  0.0009 -0.0386
25542W        W41726  14.847  15.850  12.627  0.2362  0.0651 -0.2487
25543W        W41727  11.528   3.848  11.282  0.1123  0.2393  0.0658
25544W        W41728   4.539   0.053   0.530 -0.1403 -0.0219  0.0039
25545W        W41729  13.155   4.242  13.892  0.1574 -0.1389  0.2781
25546W        W41730   4.982   8.312  11.955 -0.0009  0.3448 -0.2105
25547W        W41731   1.045  15.720   3.588 -0.2525  0.0712 -0.3988
25548W        W41732   9.693  17.373  11.545  0.2743 -0.1041 -0.3465
25549W        W41733  10.306   6.950   0.115 -0.2625  0.1288  0.3323
25550W        W41734   2.517  14.070   1.676 -0.0871  0.1288  0.3349
25551W        W41735   7.737  13.069   2.190 -0.3271  0.2594  0.2138
25552W        W41736   0.345   1.390   1.771  0.2992 -0.1956 -0.1084
25553W        W41737  14.089   1.976   3.231 -0.2113  0.0316  0.0177
25554W        W41738  14.792   0.890  13.644 -0.0070  0.0236  0.2673
25555W        W41739   4.521  14.912  13.720 -0.0747  0.0379  0.0980
25556W        W41740  17.261  10.442   1.916  0.3056 -0.0078 -0.0306
25557W        W41741   3.313   0.207   0.797 -0.1109  0.2427  0.1798
25558W        W41742  17.321  11.719   0.975 -0.0771 -0.3912 -0.0852
25559W        W41743   8.441   4.080  14.935 -0.3234 -0.1103 -0.0050
25560W        W41744   4.678   3.171  13.270  0.3170 -0.2742  0.6463
25561W        W41745  16.908   5.420   3.753  0.1865 -0.2633  0.2318
25562W        W41746   7.227   0.957  12.242  0.2145  0.3111  0.6188
25563W        W41747   5.164  10.855   4.971  0.1451 -0.0391 -0.0038
25564W        W41748  14.734   5.273   3.156 -0.1543 -0.1554  0.1970
25565W        W41749   6.170   3.627  12.396 -0.0987  0.0878  0.1391
25566W        W41750   2.368  18.501   3.112  0.0743 -0.1220  0.1661
25567W        W41751  12.529   4.472   1.005 -0.1763 -0.1671  0.0273
25568W        W41752  14.199  14.553  13.829 -0.0787 -0.1470 -0.0965
25569W        W41753   1.094   1.665   1.557 -0.0317 -0.1384  0.2682
25570W        W41754   2.031   1.378   0.397 -0.0194  0.2895  0.5044
25571W        W41755  15.831   5.909  12.376 -0.0111  0.1985 -0.0790
25572W        W41756  12.261   5.165   1.513  0.1546  0.0391  0.1106
25573W        W41757  12.004  12.947   3.598 -0.1116  0.4160  0.3521
25574W        W41758   6.489   2.134   0.562  0.1066  0.1268  0.0934
25575W        W41759  11.431  10.424   2.632 -0.0275 -0.0487 -0.0251
25576W        W41760  19.033   7.200   9.718  0.1084  0.1024 -0.0029
25577W        W41761   6.336   1.067  10.177  0.3067  0.0010  0.3642
25578W        W41762  13.630  16.482   3.906 -0.1634 -0.2556 -0.1494
25579W        W41763   3.628  11.245   3.200 -0.0066  0.3014  0.0014
25580W        W41764  12.974   0.211   2.496  0.1123 -0.0484  0.0298
25581W        W41765   9.485  11.340   1.423  0.0315 -0.1260 -0.0709
25582W        W41766   6.938   2.512   2.725 -0.1036  0.0589 -0.4374
25583W        W41767   6.910  12.834  11.070  0.1327 -0.0186  0.0904
25584W        W41768   7.188   8.690   0.609 -0.2795 -0.2149  0.2717
25585W        W41769  10.208   3.441   3.497  0.3964  0.1216  0.1982
25586W        W41770   5.251   6.676  13.894  0.2964 -0.1635  0.2585
25587W        W41771  14.954  18.559  14.712  0.3980 -0.0335 -0.1445
25588W        W41772  19.037   1.732   2.339 -0.0149  0.1460 -0.1324
25589W        W41773   5.515   2.064   4.337  0.0795  0.1294 -0.2310
25590W        W41774  12.168   2.075   1.251 -0.1567  0.3363 -0.0330
25591W        W41775   2.894  12.167  12.591  0.1406 -0.1767 -0.0849
25592W        W41776   3.063  16.696  10.771  0.3213 -0.2087  0.0479
25593W        W41777   9.684   8.971  10.814 -0.1645 -0.2630 -0.0310
25594W        W41778   3.867  13.469   1.246 -0.1957 -0.1277 -0.0692
25595W        W41779   6.910   2.633   3.653 -0.0264  0.0266 -0.3290
25596W        W41780  17.557  17.205   1.549  0.1005 -0.1343 -0.0816
25597W        W41781  12.892   6.678   1.053  0.2041 -0.3453 -0.0222
25598W        W41782  11.648   4.297   2.650  0.1270 -0.0549 -0.1229
25599W        W41783   1.383   1.900  12.322  0.1407  0.2138  0.0831
25600W        W41784  11.178  17.371   0.486 -0.0096 -0.1648  0.0186
25601W        W41785  12.281   1.994  10.701  0.1665  0.0765 -0.0535
25602W        W41786   1.845   0.730   4.074  0.2675  0.0338  0.0217
25603W        W41787  15.191   9.369  13.631  0.0340  0.1905  0.1928
25604W        W41788   5.526  18.987   1.251  0.3015  0.1038 -0.2393
25605W        W41789  13.095   9.325   2.420 -0.0953 -0.0692  0.2217
25606W        W41790  11.183   8.433   3.520 -0.0494  0.2112 -0.0447
25607W        W41791  14.669  14.159  10.524 -0.0166  0.2270  0.0492
25608W        W41792   3.751  14.350   0.707  0.1541 -0.4682  0.0125
25609W        W41793   9.212   9.427  13.370  0.0463  0.1571  0.1132
25610W        W41794  12.407   5.204   3.300  0.1648  0.0941 -0.2790
25611W        W41795   1.093  13.852  11.302  0.0148 -0.2312 -0.0761
25612W        W41796   3.639  17.904   1.441 -0.1718 -0.0428 -0.0659
25613W        W41797  18.072   4.877   3.782  0.1371  0.1462 -0.0683
25614W        W41798  14.723  15.338   0.997  0.0589 -0.6938  0.1278
25615W        W41799   0.634  10.259  11.261  0.0281 -0.1874 -0.1669
25616W        W41800   5.654   2.911  13.602  0.1173 -0.0033 -0.1005
25617W        W41801   6.381   7.745  14.840 -0.1166  0.0263 -0.0780
25618W        W41802  17.955   4.874  14.503  0.0903  0.1943  0.1275
25619W        W41803   5.395  14.223  10.627  0.1217 -0.3601 -0.1935
25620W        W41804   0.904   0.712   4.390  0.1369  0.2659 -0.0928
25621W        W41805   8.795   9.193  13.323  0.1467 -0.0965 -0.1533
25622W        W41806  17.404  17.351   3.944  0.3183 -0.2117  0.0638
25623W        W41807   2.958  16.089   4.110 -0.1085  0.0295 -0.1243
25624W        W41808   8.390   4.706  11.587  0.0034 -0.0975 -0.0385
25625W        W41809   5.021  14.090  10.940  0.0967 -0.1160 -0.2841
25626W        W41810  12.314  14.999   4.505 -0.1969  0.1351  0.3464
25627W        W41811  10.375   4.271   5.654 -0.2337  0.0097  0.1228
25628W        W41812   2.316   5.346  13.691  0.0182  0.2730  0.1538
25629W        W41813  13.422  13.196  14.770  0.0136 -0.0717  0.0015
25630W        W41814  15.251   0.598  10.602  0.2833  0.1322 -0.2201
25631W        W41815   8.790  10.255   0.977 -0.1549 -0.1650  0.0266
25632W        W41816  17.635  12.607   2.004  0.2607 -0.3832  0.1135
25633W        W41817   4.371  10.125   2.360 -0.0740  0.0550 -0.1117
25634W        W41818   6.613   8.755  11.389 -0.2581 -0.4430 -0.2552
25635W        W41819   3.668  13.984  14.890 -0.1812  0.0501  0.1152
25636W        W41820   3.066  19.150   1.871 -0.2339 -0.1128 -0.1588
25637W        W41821  19.341  13.725  13.799  0.2588  0.0215  0.0890
25638W        W41822   2.682   4.761  11.104 -0.2984 -0.1299  0.0796
25639W        W41823   4.145  13.091  12.590 -0.1171  0.1715 -0.1546
25640W        W41824   2.132   7.636  14.694  0.2686 -0.0885 -0.2403
25641W        W41825   0.435  15.495   1.170 -0.0543  0.0803  0.3275
25642W        W41826  11.057  12.385  10.120 -0.2706 -0.1634 -0.1329
25643W        W41827   7.063   2.170   1.061  0.0679 -0.0843  0.1178
25644W        W41828  10.171   6.191  13.842  0.0633 -0.6573 -0.0497
25645W        W41829  18.990  11.970   2.927  0.1567 -0.2288 -0.1535
25646W        W41830  13.958   5.627   2.001  0.4552 -0.0055 -0.0933
25647W        W41831  11.571  13.740   4.077  0.1379  0.1728  0.3824
25648W        W41832  17.820   5.816  12.563 -0.1516 -0.1223  0.2088
25649W        W41833   8.818  10.994   0.266  0.0858 -0.1851 -0.0949
25650W        W41834  16.014   7.348   3.463 -0.1829  0.0896 -0.0834
25651W        W41835  14.375  14.296   2.964 -0.1382 -0.0002  0.0995
25652W        W41836  18.221  18.044   4.263 -0.1327 -0.1782 -0.0580
25653W        W41837   2.893  15.796  12.640  0.4096 -0.0495  0.0495
25654W        W41838  15.608  16.933   3.440  0.2571 -0.1995  0.3489
25655W        W41839  13.232  10.068  12.654 -0.0346  0.4886 -0.2117
25656W        W41840  18.425  12.490   2.849 -0.4011  0.2997  0.0268
25657W        W41841  16.612   1.486   2.625 -0.0090 -0.3161 -0.3661
25658W        W41842  14.321   5.054   0.616 -0.0254  0.2204  0.0345
25659W        W41843  14.982   3.765   2.518 -0.0463  0.1862 -0.1144
25660W        W41844  12.473  11.481   1.522 -0.0709 -0.3279 -0.1324
25661W        W41845  18.425   8.744  13.486 -0.1920 -0.0078  0.1184
25662W        W41846  11.121   5.632  10.636  0.1797  0.1685 -0.0804
25663W        W41847   4.488   5.671   1.298  0.1828  0.1268 -0.0636
25664W        W41848  18.500   8.276   9.883 -0.1725  0.1749 -0.1443
25665W        W41849   6.432  17.055   3.992 -0.1615 -0.1692 -0.3094
25666W        W41850  17.604   3.218   3.588  0.1589  0.0514  0.0311
25667W        W41851  10.995   1.700   4.161 -0.1724 -0.3284 -0.0660
25668W        W41852   6.918   9.313   1.914 -0.0559 -0.1326  0.0685
25669W        W41853  12.600   1.441  13.961 -0.2481 -0.1765 -0.1610
25670W        W41854   0.498  11.108  10.313  0.0107 -0.2331 -0.1483
25671W        W41855   9.963   3.254   4.935  0.0221  0.0562  0.2632
25672W        W41856   6.643   5.390  14.136  0.1112 -0.2803 -0.2093
25673W        W41857  15.984   6.421  14.759 -0.1626  0.0813  0.3936
25674W        W41858   9.460  16.890  12.373 -0.0160  0.0453 -0.0224
25675W        W41859   2.040   8.775  13.020 -0.2057 -0.1788 -0.0397
25676W        W41860  14.500   8.860   3.543  0.5205 -0.1823  0.0064
25677W        W41861   2.162  14.057   4.289  0.2863 -0.0173 -0.3155
25678W        W41862  14.869   1.941  11.063  0.3691  0.3101 -0.3762
25679W        W41863  17.562  17.898  11.276  0.2117  0.0702 -0.0582
25680W        W41864   9.441   6.500   2.767  0.0035 -0.5278 -0.0862
25681W        W41865   2.566   5.053   3.928  0.0881 -0.1600 -0.0680
25682W        W41866   9.591  11.980   4.064 -0.0186  0.2988  0.0076
25683W        W41867  12.473   8.356   9.958  0.0759 -0.0137  0.2845
25684W        W41868  13.830   7.105  13.602 -0.0099  0.2446  0.4477
25685W        W41869  16.006   9.129   1.165 -0.2282  0.1514  0.0254
25686W        W41870   3.662  19.028  12.228 -0.0428 -0.0663  0.4478
25687W        W41871   0.938   0.800   3.212 -0.1125 -0.0831 -0.2560
25688W        W41872  10.565   3.136   1.138 -0.1973 -0.0741  0.0705
25689W        W41873   2.970  14.178  14.558 -0.2683 -0.3483  0.0340
25690W        W41874   1.794  18.990   1.056 -0.2583  0.3810  0.1540
25691W        W41875   9.823  18.267   2.246  0.0002 -0.0195 -0.0315
25692W        W41876   5.886  18.577  13.344 -0.0553  0.0526 -0.0532
25693W        W41877  16.114   6.745   4.553 -0.1022  0.3191 -0.2928
25694W        W41878   2.064   7.289  10.961  0.2126  0.0463  0.2013
25695W        W41879   9.095  15.118  11.030 -0.1923  0.2243 -0.1618
25696W        W41880  13.339  15.323  10.244  0.0305 -0.2466  0.2525
25697W        W41881  12.726   0.318   1.191 -0.0980 -0.1499 -0.3068
25698W        W41882   2.694   1.646   1.493  0.0872  0.1819  0.1716
25699W        W41883  10.128   2.782   4.784  0.0507  0.0779  0.3625
25700W        W41884  17.811  13.562   3.450  0.1348  0.1191  0.0472
25701W        W41885   5.847   5.607  12.202 -0.1979  0.0437  0.1315
25702W        W41886   6.492  17.443   4.336 -0.1075  0.2615  0.0207
25703W        W41887   9.342   8.222   4.039  0.5698 -0.2974 -0.0413
25704W        W41888  17.092   0.411  11.376  0.2810 -0.2947  0.2231
25705W        W41889  10.658   7.985  14.649 -0.0261  0.3202 -0.1704
25706W        W41890   5.773  16.501   5.183 -0.0697  0.1157 -0.3984
25707W        W41891   2.710  15.686   9.474  0.1578  0.0595 -0.1285
25708W        W41892  11.259   5.225  13.096 -0.2444 -0.5663 -0.1480
25709W        W41893   1.468  12.156   6.016  0.1828  0.1997  0.0658
25710W        W41894  16.835   5.935   0.706  0.2502  0.1649  0.5118
25711W        W41895   8.160   8.759   4.338  0.2205 -0.2210  0.2264
25712W        W41896   9.193   8.105   1.222 -0.2692 -0.0536 -0.1067
25713W        W41897   5.386  19.376  10.187 -0.0664 -0.2737  0.1558
25714W        W41898   8.479  15.895   2.528 -0.1351  0.0981 -0.0561
25715W        W41899   1.376  16.265  12.481  0.2531 -0.1563  0.1102
25716W        W41900   3.944   8.538   4.464  0.0681 -0.1718 -0.1125
25717W        W41901  18.170  15.906  14.290  0.2731 -0.3220 -0.2229
25718W        W41902  16.250   4.959  11.888 -0.2804  0.1965 -0.0061
25719W        W41903  17.735  14.220   0.608 -0.1656  0.0085  0.0413
25720W        W41904   1.879  17.296  12.780 -0.0534  0.2875  0.0424
25721W        W41905  10.319   0.763   2.008  0.3363 -0.3298  0.3331
25722W        W41906  11.436   6.278   3.586 -0.1890 -0.3021  0.1059
25723W        W41907  11.767  18.598  10.250 -0.2486  0.2326  0.2584
25724W        W41908   8.335  17.205  12.918  0.0302  0.1380 -0.1518
25725W        W41909  12.899   6.134  10.194  0.1118 -0.1248 -0.3063
25726W        W41910   9.192   4.143   1.540  0.0245  0.1530 -0.2940
25727W        W41911  17.660  18.924   3.306  0.5068  0.0584  0.1527
25728W        W41912   2.552   6.054   2.316 -0.1242 -0.3179 -0.2306
25729W        W41913   8.273  11.942   3.162 -0.2183 -0.1886  0.0565
25730W        W41914   3.490  16.216  14.013  0.3006  0.0915  0.4583
25731W        W41915   6.809   9.274  14.313  0.5091 -0.2113 -0.0266
25732W        W41916   9.558  16.219  14.675 -0.2150 -0.0582  0.5486
25733W        W41917   2.102   0.479   2.776  0.0785  0.3695  0.2408
25734W        W41918  17.755  17.673   4.841  0.0282  0.1439  0.1526
25735W        W41919   3.942  17.893   0.090  0.0713 -0.1020 -0.1831
25736W        W41920   8.102  18.278   2.511 -0.0542 -0.1151  0.0060
25737W        W41921   4.048   6.264   0.674  0.0108  0.0114 -0.1580
25738W        W41922  16.021   4.255   1.092  0.1097 -0.1259 -0.1416
25739W        W41923  14.389   3.461   0.975  0.2862 -0.1392 -0.3600
25740W        W41924  19.275   4.102   1.369 -0.0611 -0.1572  0.0711
25741W        W41925   6.261  13.477   0.041 -0.0294  0.1606 -0.0796
25742W        W41926   1.216  12.046   4.329 -0.1934 -0.0989 -0.2988
25743W        W41927  16.332   6.955  13.069 -0.0889  0.0808  0.0216
25744W        W41928   1.145   0.200  14.871 -0.0795  0.1403  0.0855
25745W        W41929   3.654  19.347   3.836  0.1243  0.0763 -0.1648
25746W        W41930  15.488   8.495   1.588 -0.0203 -0.0570 -0.0483
25747W        W41931   0.413  18.144   1.960  0.1134  0.4015  0.3633
25748W        W41932   3.213  18.680  10.410  0.0934  0.0187  0.2380
25749W        W41933  11.977   7.088   4.129 -0.3909  0.0809  0.1361
25750W        W41934   3.005  14.553   3.659  0.0001 -0.2811  0.2701
25751W        W41935   9.174  18.779   2.583  0.1773 -0.0558 -0.1113
25752W        W41936   0.351  18.844   1.116 -0.3382  0.0757 -0.1143
25753W        W41937  18.919   0.806  13.510  0.1170 -0.0351  0.0060
25754W        W41938  18.914   6.201   2.700  0.2391  0.0497  0.0779
25755W        W41939   1.024   5.194   4.827  0.1283  0.0098  0.0481
25756W        W41940   7.311   9.828   2.784 -0.2471  0.2462 -0.5329
25757W        W41941   7.969   3.346   1.980 -0.0836 -0.0775  0.0621
25758W        W41942  12.017   7.799  12.137 -0.0929  0.4397 -0.1468
25759W        W41943   1.076   4.619   0.974 -0.3403  0.1254 -0.1099
25760W        W41944   2.929  17.959   0.665  0.0346 -0.0620 -0.0820
25761W        W41945  16.096  15.207  12.810 -0.1356  0.1981 -0.1370
25762W        W41946  19.141   9.016   0.741 -0.2007 -0.0615 -0.1765
25763W        W41947   9.581   9.412   3.800 -0.4086  0.2601 -0.1558
25764W        W41948   0.154  19.169  12.935 -0.1946  0.0142 -0.1842
25765W        W41949  15.166   9.503   0.628 -0.2752  0.2275 -0.0744
25766W        W41950   9.154  16.831   0.484  0.2200 -0.4046 -0.3691
25767W        W41951  10.421   4.913   3.866 -0.1523 -0.3644 -0.0376
25768W        W41952  16.919  13.757   0.192  0.0028  0.3478 -0.1801
25769W        W41953   4.640   6.266  12.448 -0.3454  0.2387 -0.0855
25770W        W41954   2.224   9.449   2.859 -0.0770 -0.0388  0.5480
25771W        W41955   0.463  14.538   2.866 -0.5248 -0.1369 -0.0273
25772W        W41956  15.414  10.343  13.553 -0.1012  0.1260  0.2898
25773W        W41957  16.396   5.626   0.774  0.3872 -0.2414 -0.2191
25774W        W41958   8.031  16.827  12.967 -0.1056  0.1630 -0.1638
25775W        W41959  12.321   4.561  11.358 -0.1129 -0.1260  0.1815
25776W        W41960   3.740   9.012  13.403 -0.2426  0.0568  0.0658
25777W        W41961   5.405   4.846   3.489 -0.0206 -0.0847 -0.1940
25778W        W41962  17.132   7.142  12.577  0.2466  0.1077  0.1019
25779W        W41963   2.743  12.506  11.739 -0.0983  0.0877  0.1521
25780W        W41964   3.664  14.626  12.803  0.2149 -0.2823 -0.1777
25781W        W41965  15.454  18.824   1.219 -0.3209  0.0179 -0.2916
25782W        W41966   3.868   7.021  12.442  0.0037  0.0633 -0.3979
25783W        W41967  13.362  18.208   2.277  0.1524  0.0242 -0.0127
25784W        W41968   4.047   9.808   0.445  0.0172 -0.0237 -0.1662
25785W        W41969   3.292  16.475   0.585 -0.1523  0.0501  0.2275
25786W        W41970  15.647   6.874   4.658 -0.2099 -0.3084 -0.0345
25787W        W41971  13.021   1.244   0.445 -0.2269 -0.2212 -0.1619
25788W        W41972  19.084  19.283   0.950  0.1916  0.1090 -0.2516
25789W        W41973   3.259   3.554  13.110  0.2763  0.0850 -0.2283
25790W        W41974  14.387  18.589  12.939  0.0270  0.1647  0.0184
25791W        W41975   9.782   0.083   0.294 -0.1626  0.0162  0.1746
25792W        W41976  15.653   0.186   2.612  0.1669  0.0953  0.0744
25793W        W41977   9.918  16.424   4.360  0.0271  0.0440 -0.2375
25794W        W41978  10.246   4.658  10.869 -0.1912 -0.2262  0.3430
25795W        W41979   5.541  17.330   0.544  0.2183 -0.0372 -0.2171
25796W        W41980   6.573  15.134   2.240 -0.0701 -0.3395 -0.0920
25797W        W41981   8.857  12.454   0.141  0.1708 -0.0347  0.0475
25798W        W41982   2.859  12.778   5.076 -0.1905  0.0879 -0.0225
25799W        W41983   1.220   3.236   2.970 -0.0437 -0.1034  0.2456
25800W        W41984   0.166   6.058  13.269  0.0328  0.3202  0.1184
25801W        W41985  16.163   6.288   4.793  0.2856 -0.2928  0.1815
25802W        W41986  17.311   6.093   4.193 -0.0253 -0.0004 -0.5872
25803W        W41987  16.700  14.637   3.454 -0.2905  0.1384 -0.1312
25804W        W41988   3.047   0.514   3.115  0.0836  0.1010 -0.4611
25805W        W41989   6.399  15.997   2.068  0.4565  0.2893 -0.1625
25806W        W41990  15.732   2.459  13.464 -0.0398  0.0911 -0.3689
25807W        W41991   7.937  18.187  10.052  0.2639 -0.0779  0.1275
25808W        W41992   9.344   9.644   1.823 -0.0186 -0.0604 -0.1919
25809W        W41993  13.546   2.096   3.321  0.0116 -0.5264  0.1295
25810W        W41994  18.901   0.268   4.983  0.2310 -0.0862  0.1349
25811W        W41995  17.756   7.651  12.967 -0.1942  0.0059  0.0763
25812W        W41996   0.346  13.338  14.921  0.1119  0.2040 -0.2355
25813W        W41997  10.915  18.142   3.547 -0.2128 -0.2051 -0.1185
25814W        W41998   6.572  14.336   2.197 -0.1049 -0.1882  0.2871
25815W        W41999   8.664  16.841   0.305 -0.2660 -0.1163  0.1512
25816W        W42000   3.464  11.536   9.940 -0.0360  0.2178 -0.1535
25817W        W42001   0.703  13.226   2.192 -0.3341  0.2743  0.1473
25818W        W42002   3.335  15.477  12.740 -0.1345 -0.2347 -0.1604
25819W        W42003  16.540  10.279   1.671  0.0671  0.0080  0.0482
25820W        W42004   0.919  10.435   0.576 -0.2548  0.2789 -0.4724
25821W        W42005  15.521   9.622   0.298  0.1205  0.1108  0.1498
25822W        W42006   7.681   5.966  12.391  0.0373  0.2253  0.1780
25823W        W42007   9.261  16.241   5.014 -0.5648  0.1804 -0.2828
25824W        W42008  17.398   0.921  10.272  0.3424  0.2376  0.0724
25825W        W42009   6.550   3.709  12.056  0.1921  0.0729  0.2909
25826W        W42010  16.924  17.013  10.452 -0.1179  0.1535  0.3279
25827W        W42011  11.847  11.955  13.065 -0.4226  0.1424 -0.1299
25828W        W42012   2.379  17.011   4.818  0.2380  0.0208  0.0148
25829W        W42013  19.020   8.550  13.831 -0.1057  0.0352  0.1433
25830W        W42014  17.194  18.902   4.133 -0.0435  0.0003 -0.1806
25831W        W42015  18.417  18.660  12.099 -0.2187 -0.0523  0.0935
25832W        W42016  17.037  12.302  11.762  0.0933  0.1313 -0.1796
25833W        W42017   5.992   7.845  13.213 -0.2396 -0.1003  0.2063
25834W        W42018   4.189   4.064   1.329 -0.1961  0.1106  0.3026
25835W        W42019   0.010  15.985   1.891 -0.0747 -0.2195  0.3123
25836W        W42020   4.648  15.360  13.463 -0.0571 -0.1567 -0.4888
25837W        W42021  19.338   5.154  11.124  0.0107 -0.3076  0.1239
25838W        W42022  14.995   0.727  11.985 -0.1161  0.2034  0.1915
25839W        W42023  11.681   4.173   2.200 -0.0409 -0.0802 -0.0691
25840W        W42024  17.373   2.432   1.847 -0.1758  0.1612 -0.1263
25841W        W42025   9.403   6.808   4.493  0.0629 -0.0956 -0.0402
25842W        W42026  16.878   2.015  12.720 -0.2316 -0.2777 -0.2812
25843W        W42027  15.292   5.216  11.609 -0.0237  0.0153  0.1425
25844W        W42028   1.054   0.658   1.946 -0.1421  0.2012  0.0089
25845W        W42029  18.209  12.388   1.987 -0.1188  0.3311  0.2081
25846W        W42030  16.709   1.797   3.205  0.1654  0.1848 -0.0628
25847W        W42031   2.166  17.407  14.669 -0.1500  0.0897  0.0092
25848W        W42032  18.048  17.880   0.696  0.2220 -0.1074 -0.3286
25849W        W42033   9.428   5.070   3.226  0.1696 -0.6504 -0.1640
25850W        W42034  14.466   6.368  10.596 -0.0830  0.0202 -0.2320
25851W        W42035   5.536  18.287   3.891  0.3057  0.1940  0.0991
25852W        W42036  12.795  16.529  13.851  0.2514  0.0882 -0.3828
25853W        W42037   7.986  18.384  12.463 -0.2708  0.3777 -0.1066
25854W        W42038  13.085   0.529  10.180 -0.1629 -0.0792 -0.0667
25855W        W42039   5.300  17.759  10.397  0.0017  0.0275 -0.1488
25856W        W42040  10.258   9.784  13.000 -0.0311  0.0111 -0.1200
25857W        W42041   6.094  17.515   2.421  0.2066  0.3676 -0.0026
25858W        W42042   0.248   8.667   3.815  0.0661 -0.3828  0.0589
25859W        W42043   6.789   3.721   3.247  0.1996 -0.3110 -0.0577
25860W        W42044  10.246   9.137  11.364 -0.4489 -0.0812 -0.4076
25861W        W42045  15.060   2.962  11.877 -0.1567 -0.2076 -0.4354
25862W        W42046   2.203  16.016  13.371  0.0553 -0.2466 -0.2525
25863W        W42047  18.318  14.007  12.582  0.4909  0.1008  0.2193
25864W        W42048   3.914   4.149   4.411  0.3784 -0.1633  0.1964
25865W        W42049  18.008  17.304   3.048  0.1219  0.3915  0.1597
25866W        W42050   4.945  14.499   0.915  0.0275  0.0337 -0.1812
25867W        W42051   2.015  14.091   1.558  0.2963  0.0344  0.0819
25868W        W42052   6.801   1.415  12.902 -0.0563  0.1177 -0.1946
25869W        W42053  10.331   6.662   5.379  0.0052 -0.1323  0.1188
25870W        W42054   9.267   5.419  12.278  0.1042 -0.0969  0.3197
25871W        W42055   9.801   8.140  11.519  0.1766  0.1079  0.1448
25872W        W42056  11.800   5.770   0.411 -0.0099  0.0911 -0.4193
25873W        W42057   8.232  14.788  13.250 -0.0349  0.2128 -0.1958
25874W        W42058  19.151   7.093  13.653 -0.0880  0.0445 -0.4408
25875W        W42059   3.709   1.561  14.642 -0.0573  0.3256 -0.5149
25876W        W42060  10.018  16.011  13.814  0.1826  0.0241 -0.1027
25877W        W42061   4.647   3.750   4.608  0.0324  0.0345  0.1185
25878W        W42062  14.132  11.712   3.602 -0.1366 -0.1796 -0.3063
25879W        W42063   1.936   2.234  13.498  0.3871 -0.0218 -0.0497
25880W        W42064  16.233  16.632  12.174 -0.1851 -0.0782 -0.0719
25881W        W42065   9.944   0.827   2.398  0.1398 -0.4520  0.1766
25882W        W42066   4.062   0.239   3.495  0.0578 -0.0459 -0.2025
25883W        W42067  18.210  10.462   1.385 -0.1891  0.0475 -0.0870
25884W        W42068  17.435   6.169   1.205 -0.0243  0.1371 -0.2954
25885W        W42069   0.250   4.244   0.966 -0.0837  0.0155  0.4505
25886W        W42070   0.781   0.758   9.624  0.2397 -0.2412  0.1271
25887W        W42071  11.797  13.295   2.361 -0.1161 -0.3489 -0.0188
25888W        W42072   8.211  13.366  12.069 -0.2715 -0.2495 -0.3493
25889W        W42073  16.755  19.075  14.501  0.1109  0.2604  0.0760
25890W        W42074  13.563  19.266   3.846  0.1907  0.0453 -0.0044
25891W        W42075  15.529  19.177  11.900 -0.2144  0.1446 -0.0851
25892W        W42076  12.311   3.513   2.955 -0.1746  0.0429  0.0430
25893W        W42077  15.679  16.733  12.319 -0.0224  0.0334 -0.1527
25894W        W42078   4.796  16.876  13.628  0.3213 -0.0898 -0.3662
25895W        W42079   2.971   2.114  14.003  0.0753  0.0370  0.2735
25896W        W42080  17.423   0.094  10.424  0.1136 -0.0390  0.0133
25897W        W42081  12.670   3.931   0.232  0.4033  0.1085  0.0470
25898W        W42082  17.831  12.023  13.268  0.1403  0.0830  0.1235
25899W        W42083   6.919  12.098  11.719 -0.0464  0.3284 -0.0774
25900W        W42084   5.456   5.735   0.818 -0.3890 -0.1779 -0.1365
25901W        W42085  15.572   6.958  10.793 -0.2475 -0.0373 -0.0385
25902W        W42086   7.916  11.441  12.519  0.3253  0.2533  0.3712
25903W        W42087   7.983  15.250  13.251  0.2770  0.3860 -0.0506
25904W        W42088   3.191  14.617  13.171 -0.1366 -0.5783 -0.0221
25905W        W42089   8.067  17.834   1.321 -0.1145  0.0697 -0.1579
25906W        W42090   1.903  10.968   3.970 -0.2969  0.2165  0.1375
25907W        W42091  13.174  15.615  13.540 -0.1376 -0.1336 -0.1314
25908W        W42092  16.297   7.683   3.679  0.1637 -0.0952  0.3662
25909W        W42093  15.891  10.382   2.853  0.1385 -0.0308  0.0865
25910W        W42094  13.882   5.184  12.095 -0.0669 -0.0291 -0.2262
25911W        W42095  15.019  14.902   1.198 -0.1029  0.2177  0.1105
25912W        W42096  14.691  15.891  14.852  0.0305 -0.2139  0.2240
25913W        W42097  16.316  16.120  11.815  0.0467 -0.0981 -0.3014
25914W        W42098   2.527   8.878  13.817  0.0595  0.0914  0.3378
25915W        W42099   6.376  15.800  10.151  0.2940 -0.2308  0.1296
25916W        W42100  16.434   3.356   1.327  0.1471  0.2307  0.0209
25917W        W42101  14.348  10.161  13.404 -0.1105 -0.0743 -0.1578
25918W        W42102  11.065   0.988   3.902  0.1146  0.3985 -0.2397
25919W        W42103   3.420   0.802   0.915  0.0848  0.0635  0.1413
25920W        W42104   6.130  12.834   2.696 -0.1835  0.1987 -0.2998
25921W        W42105   5.771   6.859  12.965  0.2478 -0.0850 -0.1122
25922W        W42106  11.515   5.250   0.570  0.0805  0.0671  0.0814
25923W        W42107  19.266  16.906  14.182  0.0828 -0.1420  0.0512
25924W        W42108   9.306  17.249  14.357 -0.2607 -0.0900 -0.0011
25925W        W42109  16.336   9.886   4.958 -0.3752 -0.1514 -0.1613
25926W        W42110   7.320  10.127   1.700 -0.3105  0.0497  0.2010
25927W        W42111  18.807   6.473   2.273  0.0726  0.2796  0.2029
25928W        W42112  18.133   7.060  11.978 -0.0752 -0.1086  0.2446
25929W        W42113   0.452   8.234   4.058 -0.0884 -0.0236  0.1498
25930W        W42114  12.160  15.827  13.767  0.2595 -0.2285  0.4380
25931W        W42115   4.089  18.970   0.164 -0.2799 -0.0023  0.2468
25932W        W42116  13.842   6.941  14.537  0.2929 -0.1902  0.0336
25933W        W42117   9.118   4.072  13.761 -0.3044  0.1002 -0.0075
25934W        W42118   3.398   3.515   3.231  0.0410  0.0855 -0.1341
25935W        W42119   4.754   5.529  12.763  0.0265  0.0359 -0.1115
25936W        W42120  19.050  14.993   2.008 -0.0663  0.2730 -0.0874
25937W        W42121   7.507  16.922  13.082 -0.1019 -0.3276 -0.1950
25938W        W42122   7.599   6.017   0.943  0.4480  0.2327  0.3181
25939W        W42123   3.720  14.821   1.077 -0.0108 -0.0433 -0.0843
25940W        W42124  10.344   0.242   1.734 -0.2291 -0.1159  0.4624
25941W        W42125   5.120  14.911  12.238 -0.3157 -0.2464  0.0252
25942W        W42126   3.865  15.622   2.635 -0.0987  0.2479 -0.0067
25943W        W42127   7.275   7.915  10.685 -0.1579  0.3337 -0.0024
25944W        W42128   6.180   8.201  11.616 -0.0367  0.2204  0.0159
25945W        W42129   6.297  18.676  10.057 -0.1204  0.0984 -0.0737
25946W        W42130   3.971   1.735   0.210  0.2825  0.2667  0.3290
25947W        W42131  11.423  14.377  11.897 -0.0179  0.0567  0.2192
25948W        W42132   3.295  14.194   4.481 -0.0855  0.2656  0.1220
25949W        W42133  18.389  15.512   2.599  0.2696 -0.1609 -0.0873
25950W        W42134   7.409  16.753  14.163 -0.0537 -0.0712  0.0820
25951W        W42135   8.797   5.442   3.783 -0.2660 -0.0349  0.3951
25952W        W42136   6.036  19.202   4.291  0.0913  0.0162 -0.0510
25953W        W42137   7.243  14.946  11.560 -0.0966 -0.2030 -0.1814
25954W        W42138   3.683   3.549  14.229 -0.0594 -0.1991  0.0670
25955W        W42139  11.919   5.267  14.668 -0.0676  0.0254  0.1729
25956W        W42140   0.264  16.865  10.062  0.0593 -0.3167  0.0888
25957W        W42141   3.536  11.516   5.224  0.0867  0.0130  0.0687
25958W        W42142   0.989  18.149   0.662  0.0383  0.2700 -0.1352
25959W        W42143  12.902   7.509   0.431  0.1037 -0.3434  0.1940
25960W        W42144   0.864   2.886   4.135 -0.1667 -0.1906 -0.2599
25961W        W42145  14.768  14.956   1.764  0.0906  0.2559 -0.0273
25962W        W42146  10.386   0.357   1.007 -0.0348  0.0991  0.3499
25963W        W42147   7.044  16.676  10.935 -0.0968  0.3416  0.0554
25964W        W42148   1.731   3.085  12.525  0.0172 -0.1497  0.0525
25965W        W42149   6.287  12.493   3.399  0.0468 -0.0640 -0.2471
25966W        W42150   0.587   6.970   1.309 -0.0795 -0.2887 -0.3717
25967W        W42151  16.548  11.035   5.826  0.0394  0.0166  0.0995
25968W        W42152   1.753  10.756  13.040  0.1267 -0.1602  0.1172
25969W        W42153  17.147  12.690  13.875  0.0412 -0.0739  0.1469
25970W        W42154   2.475  13.069   4.505 -0.2282 -0.1831 -0.1190
25971W        W42155   1.585   6.987  11.671 -0.0015 -0.5227 -0.0347
25972W        W42156  16.445  13.222  10.406 -0.1341 -0.1083  0.0564
25973W        W42157   1.517  18.445   0.926  0.2862 -0.2522  0.1497
25974W        W42158   3.020   1.082  13.909  0.2303  0.2210 -0.1758
25975W        W42159  16.352   6.489   9.888 -0.5565  0.0782  0.2009
25976W        W42160  17.696   7.166  12.200 -0.0853  0.1147 -0.2918
25977W        W42161  11.219  11.488   2.041 -0.1935  0.1166 -0.2836
25978W        W42162  15.793  19.288  11.398  0.0977 -0.0194 -0.0250
25979W        W42163  11.779  18.774   2.579  0.0344 -0.1244 -0.0432
25980W        W42164  17.610  11.369  10.553  0.1647 -0.1650  0.0264
25981W        W42165   6.561  18.940  13.966 -0.1393 -0.1307  0.0849
25982W        W42166  12.869   7.416   8.904 -0.3269 -0.0021 -0.0067
25983W        W42167  13.583   3.534  13.079  0.3330  0.0460  0.2076
25984W        W42168   2.058   4.127   0.444 -0.0712  0.1547  0.3784
25985W        W42169   0.416   0.574  12.363  0.0594  0.0748 -0.0457
25986W        W42170  14.909   8.716   3.815 -0.1554  0.3806 -0.2869
25987W        W42171  10.259   7.382  11.220 -0.1130  0.2487  0.2376
25988W        W42172   5.228  10.293  14.724  0.3839  0.4428  0.1067
25989W        W42173  17.753   2.665   4.364 -0.1748  0.0586  0.1475
25990W        W42174   8.101   1.314  12.505  0.0981  0.3615  0.2760
25991W        W42175  10.007  12.246  14.289  0.2758  0.0728  0.2891
25992W        W42176  18.965   0.542  12.924  0.0306  0.2695 -0.3980
25993W        W42177  13.009   2.697  10.883  0.0955 -0.2073  0.2791
25994W        W42178  12.603   0.490   0.765  0.2266 -0.0477  0.2696
25995W        W42179  10.443  18.513  13.672 -0.0655 -0.1639 -0.2689
25996W        W42180  13.101   1.603  10.097 -0.1774  0.2105  0.0109
25997W        W42181  17.093   6.638  12.477  0.1010 -0.4334 -0.2406
25998W        W42182   6.521  15.571  11.543  0.1494 -0.2781 -0.1127
25999W        W42183  12.233   2.065   2.715 -0.2966  0.3087 -0.0954
26000W        W42184  14.829   4.237   3.601  0.2490  0.2510  0.1575
26001W        W42185  18.760  17.447   1.495 -0.3670  0.1168 -0.1643
26002W        W42186   9.799   8.068  10.886  0.2894 -0.2642  0.0844
26003W        W42187   3.752  18.322   1.172  0.1744  0.2214  0.0411
26004W        W42188   4.414  18.075   2.935  0.1793 -0.2189  0.0125
26005W        W42189   4.785  15.590   4.564 -0.1977  0.3452 -0.1633
26006W        W42190   6.603   4.900   6.168 -0.0831 -0.2320  0.4082
26007W        W42191  18.351   0.083   9.856  0.2544 -0.3337  0.1345
26008W        W42192  15.320   5.811  13.083  0.1450 -0.0571 -0.1142
26009W        W42193  11.106  10.849   4.197  0.1116  0.0039  0.0238
26010W        W42194  17.796   5.915  11.033 -0.0580  0.1262 -0.0237
26011W        W42195  19.075  16.574  11.853 -0.1207  0.0300 -0.1774
26012W        W42196  19.296  12.925   2.940  0.0752  0.3278  0.1412
26013W        W42197  11.257   3.157   1.389  0.2624  0.0986 -0.0391
26014W        W42198   7.463   0.231  12.969 -0.1465 -0.2889  0.4821
26015W        W42199  18.792  18.126  10.353  0.2218 -0.0817 -0.1181
26016W        W42200   7.800   3.873   4.883  0.0048  0.0681  0.1162
26017W        W42201   8.795  10.315  12.429 -0.0947 -0.0981  0.0786
26018W        W42202   9.564  10.471  13.671 -0.0053  0.3634  0.0108
26019W        W42203  14.676   3.114   1.142 -0.1892 -0.0517 -0.1027
26020W        W42204   5.150  15.758  11.251 -0.1379  0.0815 -0.1439
26021W        W42205   0.057   1.422  14.789 -0.0316 -0.1412  0.2286
26022W        W42206   6.352  18.700   5.211  0.1816  0.2088  0.4046
26023W        W42207   1.982   1.304   3.220 -0.0656 -0.0286  0.0182
26024W        W42208   4.308  13.594  13.844 -0.0680  0.2837 -0.1343
26025W        W42209   3.745  10.210   0.305  0.0963 -0.1181  0.2196
26026W        W42210  16.677  19.276  12.134 -0.1719  0.2390 -0.1597
26027W        W42211   4.050  10.383  12.467 -0.0540  0.1001 -0.1838
26028W        W42212  16.042  16.474   1.601  0.0286 -0.0815 -0.0681
26029W        W42213  16.878  16.223  12.933  0.2338 -0.2213  0.0234
26030W        W42214  15.916   1.515  13.389  0.0207  0.1471 -0.3435
26031W        W42215  17.220   2.141  14.004  0.1213  0.0907  0.0622
26032W        W42216   5.568   7.458   1.318  0.2820  0.1669 -0.2892
26033W        W42217   7.432   0.681  14.488  0.2139 -0.1740  0.1302
26034W        W42218   3.436   8.120   2.269 -0.1344  0.0540  0.1593
26035W        W42219   1.410  13.010   1.473 -0.2023  0.1223 -0.0737
26036W        W42220   1.095   1.750   4.470 -0.2828 -0.3082  0.4540
26037W        W42221  16.893   9.988  12.450  0.1274 -0.2375 -0.1766
26038W        W42222   8.235  15.196  11.993 -0.1563  0.1116  0.2613
26039W        W42223   9.153  11.305   0.979  0.0156  0.3834 -0.0731
26040W        W42224   5.642  11.948   3.410 -0.1077  0.0437 -0.0735
26041W        W42225  18.359  13.633   0.046 -0.1911  0.4149  0.2245
26042W        W42226   3.387   2.710   0.237  0.2745  0.1269 -0.0392
26043W        W42227   2.615   6.637   2.071  0.1389 -0.0169  0.0575
26044W        W42228   9.228  11.265   9.345  0.1713 -0.0153 -0.2741
26045W        W42229  11.464   4.746   0.593  0.2670 -0.1686  0.1691
26046W        W42230  17.251  13.317  11.832 -0.2730 -0.0911  0.0605
26047W        W42231  13.814   2.853  11.378  0.2598 -0.1892  0.1184
26048W        W42232   1.485   2.461   4.563 -0.1205  0.0857  0.0771
26049W        W42233   5.586   3.554   1.742  0.0505 -0.5008  0.2336
26050W        W42234  13.669  16.563   2.710 -0.4091  0.1227 -0.0312
26051W        W42235   4.628   1.147  14.011 -0.2658  0.1846  0.3727
26052W        W42236   3.218   1.948  12.502  0.3033 -0.0556  0.1674
26053W        W42237   5.570   7.188   2.640 -0.3349  0.0280  0.0915
26054W        W42238  11.105  12.639  13.024  0.0085 -0.0443 -0.0351
26055W        W42239  12.995  14.763   2.428  0.1896 -0.1479 -0.0436
26056W        W42240   7.427   3.329  14.769  0.1383  0.2055 -0.4781
26057W        W42241  13.408  11.201   3.851  0.0882  0.1401  0.3531
26058W        W42242   8.906  14.517   3.502  0.0790  0.5380  0.0127
26059W        W42243  17.320   4.179  11.762  0.1321 -0.0935  0.2783
26060W        W42244   9.964   6.801  11.542  0.5008 -0.0704  0.0436
26061W        W42245   0.721   8.404  14.660  0.2271  0.0761 -0.0353
26062W        W42246  16.661   2.437  12.932 -0.0167 -0.0652  0.0311
26063W        W42247  15.455   1.235  14.412 -0.0949  0.1058 -0.3932
26064W        W42248   2.996  15.040   4.904  0.1966 -0.1841  0.0924
26065W        W42249   3.057  11.402  11.073  0.0423  0.4735  0.0009
26066W        W42250   3.662   6.263   5.499 -0.0551 -0.3083 -0.1897
26067W        W42251  10.423   7.541   5.419  0.1018 -0.1722  0.1473
26068W        W42252  16.786  13.635   1.481  0.2164  0.1779 -0.1752
26069W        W42253  12.949   6.649   0.006 -0.1213 -0.0728 -0.1152
26070W        W42254   2.854  10.399   3.935  0.1024 -0.0780  0.0290
26071W        W42255  10.313   9.812   0.403 -0.1055 -0.1940  0.2381
26072W        W42256   9.663   2.039  13.418 -0.1986 -0.1859  0.0344
26073W        W42257  18.080   1.780  13.890 -0.4567  0.2268  0.1851
26074W        W42258  13.069   5.219  13.036  0.1659  0.0928 -0.1759
26075W        W42259  16.283  11.555   2.622 -0.2131 -0.2206 -0.3751
26076W        W42260   6.233   5.567  13.399 -0.3447 -0.2741 -0.1621
26077W        W42261   9.364   0.097  13.542 -0.2988 -0.0463 -0.0723
26078W        W42262  16.702   9.059   5.661 -0.1656 -0.0786  0.1796
26079W        W42263  16.524  13.411  14.132  0.1033 -0.1473 -0.2418
26080W        W42264   7.727   9.150  12.239  0.0558 -0.1215 -0.5325
26081W        W42265  14.316   4.411   3.648 -0.1179  0.1472 -0.0573
26082W        W42266  10.010   2.675  14.478  0.0292 -0.1547 -0.0919
26083W        W42267  15.618  18.292  14.717  0.1993 -0.3666 -0.0277
26084W        W42268  15.871  14.577   4.851 -0.0363  0.2407 -0.0642
26085W        W42269   2.718   3.609   2.518  0.0071  0.2370  0.0943
26086W        W42270   3.127   8.157   1.031 -0.1329 -0.1973  0.1701
26087W        W42271  17.454  18.705  11.627  0.3427 -0.0808  0.0517
26088W        W42272   8.868  14.841   3.872  0.0326  0.1909  0.0116
26089W        W42273  14.216   7.221  12.671  0.1585 -0.3000  0.0253
26090W        W42274  15.083  11.898   3.748  0.1730  0.0431  0.0059
26091W        W42275   2.328  11.122   0.173  0.4057  0.1197 -0.0618
26092W        W42276   5.395  17.241  12.804 -0.1155 -0.1762  0.2736
26093W        W42277   8.047   0.742   5.566 -0.0389 -0.2078  0.0427
26094W        W42278   9.620   7.589   0.289  0.0117 -0.0029 -0.4104
26095W        W42279  15.910  17.734  14.103  0.1554  0.2053 -0.3885
26096W        W42280   3.349  14.969  14.342 -0.0187 -0.0210  0.2666
26097W        W42281   4.258   8.773   4.782 -0.0240  0.1026 -0.0952
26098W        W42282   7.404  13.716   3.190  0.0933  0.3461  0.3549
26099W        W42283  15.491   5.719   0.888  0.0227 -0.1239 -0.0731
26100W        W42284   2.985   3.997   4.685 -0.0991  0.3135  0.0067
26101W        W42285  15.149  17.282  13.005 -0.1874 -0.0688  0.0540
26102W        W42286  15.096  18.366   1.203  0.0564 -0.3823 -0.1499
26103W        W42287   4.092  17.324  12.121 -0.1094  0.0261 -0.4191
26104W        W42288   3.985  10.027   2.638  0.0439  0.1030  0.0818
26105W        W42289   6.796  12.636  13.410  0.1684 -0.0825  0.2863
26106W        W42290   4.904   7.458  13.891 -0.1438  0.0676  0.2048
26107W        W42291  11.305   5.461  11.534 -0.1740 -0.2881  0.2442
26108W        W42292   5.405  17.877  13.923  0.0561 -0.0700  0.4433
26109W        W42293  15.918   5.384   2.189  0.3745 -0.0988  0.0446
26110W        W42294   6.614   5.337   2.944 -0.2120  0.2605 -0.3000
26111W        W42295  18.064   1.749  13.175  0.0422  0.2628 -0.0072
26112W        W42296   5.951   7.290  11.935  0.1137 -0.1419 -0.1724
26113W        W42297   9.633  10.169   0.519 -0.1208 -0.1327  0.3176
26114W        W42298   0.868  12.766  12.599 -0.1232 -0.2364 -0.0435
26115W        W42299   9.061   8.272   4.407  0.1185 -0.2655 -0.0150
26116W        W42300  10.507   2.652  11.870  0.0551 -0.0862 -0.1599
26117W        W42301  10.884  10.300  10.567 -0.0545 -0.2760 -0.0243
26118W        W42302  13.257   8.984   2.889  0.2032 -0.1238  0.2454
26119W        W42303  13.577  10.840  11.194  0.0551  0.1898 -0.2127
26120W        W42304   7.834  10.900  13.407 -0.1544 -0.0477  0.1511
26121W        W42305   2.159   5.518   1.761  0.2072  0.0846 -0.2476
26122W        W42306  14.082  13.523  10.891 -0.0080 -0.0668 -0.0812
26123W        W42307   3.104  15.381  12.272 -0.0690 -0.0287 -0.0670
26124W        W42308   4.049  14.928   3.690 -0.4890  0.0968 -0.1856
26125W        W42309  12.911   9.211  11.050  0.1487 -0.3181  0.0280
26126W        W42310   1.928   3.459   4.673 -0.2776  0.0957 -0.2179
26127W        W42311  16.629   9.485   4.984 -0.0349  0.0755  0.4378
26128W        W42312   0.448  17.366  12.865 -0.0695  0.2236 -0.4574
26129W        W42313   5.700   6.381  12.104  0.2551 -0.2993  0.1849
26130W        W42314  11.870   3.933   1.752 -0.4296  0.0327 -0.1964
26131W        W42315  12.514   1.080  12.689 -0.2121  0.0001  0.3238
26132W        W42316   1.678  11.332   6.433 -0.0958  0.2213  0.1328
26133W        W42317  16.479  18.384  10.562 -0.3362 -0.1381 -0.0281
26134W        W42318   5.717  14.305  10.275 -0.3115  0.2120  0.0277
26135W        W42319   2.149   2.687  12.298  0.1207 -0.0938 -0.0714
26136W        W42320  14.080   0.670  11.857  0.0086 -0.1960 -0.0024
26137W        W42321   0.160  17.707  14.334 -0.2732 -0.0572  0.0303
26138W        W42322   0.024   0.593  13.316  0.0389  0.0909  0.3107
26139W        W42323   2.844  14.573  13.730  0.2752  0.4400  0.1189
26140W        W42324   9.276   8.891   3.006 -0.0337 -0.0572  0.0740
26141W        W42325  16.057   5.455  11.995 -0.1599  0.2644  0.1036
26142W        W42326  15.323   4.300   1.889 -0.1826 -0.0864  0.1078
26143W        W42327  13.008  18.376  12.822  0.3708 -0.0327 -0.1550
26144W        W42328   5.831   9.021   5.175 -0.4083  0.1182  0.0561
26145W        W42329   7.309  13.301   5.338 -0.2367  0.0786  0.1222
26146W        W42330   7.086  13.688  12.176  0.2572  0.1973  0.2328
26147W        W42331  12.137  12.126  13.450 -0.0163  0.1641 -0.1261
26148W        W42332   5.510   9.860  12.544  0.1954 -0.2411 -0.0120
26149W        W42333   2.663  15.696  10.822  0.1507 -0.1151 -0.1687
26150W        W42334  17.923   7.914  12.213 -0.5392  0.0012  0.1239
26151W        W42335   8.325   5.826   2.293 -0.0352 -0.1480  0.0164
26152W        W42336   5.529  16.575   4.745  0.1193 -0.2329  0.1282
26153W        W42337  12.503  18.388  13.104 -0.0150 -0.0412  0.0534
26154W        W42338   9.521   9.796  10.904  0.0695  0.1894  0.2101
26155W        W42339  14.974  12.954   5.197 -0.0496  0.1557 -0.3566
26156W        W42340   1.361  10.012   1.842  0.1703  0.0208  0.0322
26157W        W42341   3.031   3.550   1.036  0.3019 -0.2479  0.2309
26158W        W42342   0.154   4.546   3.682 -0.0082  0.0046 -0.1416
26159W        W42343  18.624   6.225  13.072 -0.2985 -0.2104  0.4737
26160W        W42344  14.894  11.322   1.110  0.1440  0.3745 -0.3125
26161W        W42345  17.948  15.051   1.654  0.1147  0.1385 -0.1040
26162W        W42346   0.700  10.186  14.493 -0.0945  0.0251  0.2468
26163W        W42347   8.642   6.525   4.844 -0.1694  0.0506  0.1016
26164W        W42348   8.895  16.702  13.459 -0.1180  0.0058  0.1154
26165W        W42349   9.150   1.908   5.420 -0.0190  0.1715 -0.1543
26166W        W42350   5.747   2.837   0.722 -0.0286 -0.2919  0.1802
26167W        W42351   9.518   6.265  10.171  0.1296 -0.2674 -0.0424
26168W        W42352   4.888  11.823   4.406 -0.1643 -0.0651 -0.1690
26169W        W42353   8.487   0.954  10.700  0.0981 -0.1436 -0.0122
26170W        W42354  10.309   3.648  14.178 -0.2946  0.1024 -0.1211
26171W        W42355  13.267   8.826  13.548  0.2115 -0.0424 -0.3397
26172W        W42356   1.711   9.206  12.229  0.0209  0.2335  0.0109
26173W        W42357   7.375   4.194   0.460  0.0929 -0.0860  0.0924
26174W        W42358   4.338  15.028   5.407 -0.2103  0.1564  0.1261
26175W        W42359   1.797  12.631  10.886  0.3642 -0.0825  0.6834
26176W        W42360   2.242   6.111   1.662 -0.0687 -0.0078 -0.1024
26177W        W42361  10.154   8.074   4.448  0.1954 -0.1271 -0.0832
26178W        W42362  10.706  16.938   3.989  0.1766  0.0584 -0.1160
26179W        W42363  14.604  17.910  13.490  0.2304  0.2833 -0.1398
26180W        W42364  18.748   1.972  11.555 -0.2075 -0.0291 -0.3413
26181W        W42365   7.940   5.571   3.298  0.3335 -0.0715 -0.0680
26182W        W42366   3.226   4.341   3.747 -0.1334 -0.3495  0.1242
26183W        W42367   6.228  17.641   3.894  0.2817 -0.2070  0.0165
26184W        W42368  12.212   5.084   4.645 -0.1064 -0.0030 -0.0454
26185W        W42369  13.076  11.935   2.338 -0.1422 -0.1768  0.1767
26186W        W42370   3.566  17.051   2.210  0.2535  0.1200  0.0873
26187W        W42371   3.915   9.159   3.400  0.0566  0.1483  0.0607
26188W        W42372   3.989   6.146  13.787 -0.0440 -0.3515  0.0205
26189W        W42373   2.726  10.558   0.784  0.3297 -0.2244  0.0642
26190W        W42374  12.320  13.602  14.257  0.0397 -0.0065  0.3734
26191W        W42375   8.085  13.441  14.293 -0.2503 -0.2370  0.1272
26192W        W42376   5.127   6.372   2.787  0.0004  0.3181  0.3316
26193W        W42377  19.136   5.203   4.270  0.1696  0.2306 -0.1649
26194W        W42378   5.260  16.914  10.951  0.2350 -0.1295  0.2370
26195W        W42379   9.072   1.513  12.466  0.1529  0.0730  0.2383
26196W        W42380  14.924   8.439   2.771  0.2744 -0.1099  0.0011
26197W        W42381  12.711  11.179   1.091 -0.1677 -0.2006  0.0969
26198W        W42382   6.223  12.011  13.461  0.0273  0.0468 -0.1035
26199W        W42383  10.734   7.468  10.482  0.1860 -0.0927 -0.0419
26200W        W42384   6.728   1.984  10.831  0.1874  0.0478  0.2997
26201W        W42385   1.286  18.906   1.134 -0.3580  0.1337 -0.1741
26202W        W42386   6.904   8.601  13.426 -0.1197  0.3095  0.0396
26203W        W42387   9.734  18.807   9.685 -0.1306 -0.1307 -0.1064
26204W        W42388  19.348   9.636   0.015  0.0568  0.0090  0.0225
26205W        W42389  18.327   9.950   2.941 -0.2816  0.0683 -0.3155
26206W        W42390   1.381  17.437   1.444  0.0126  0.1477 -0.4102
26207W        W42391  11.205   1.950  11.588  0.1002  0.1180 -0.2746
26208W        W42392   5.644  12.564  13.904  0.0212 -0.2794  0.2361
26209W        W42393  12.267  12.192  13.936  0.1383 -0.0585 -0.0384
26210W        W42394  11.738   7.840   4.213 -0.0528  0.2749  0.2352
26211W        W42395   3.054   7.782  12.535 -0.2018 -0.2291 -0.1724
26212W        W42396   8.791   0.831  10.227  0.0451 -0.2203 -0.0070
26213W        W42397  15.555   1.233  12.360  0.1700  0.2734 -0.0224
26214W        W42398  17.016   1.190   1.454  0.0189  0.1233 -0.0411
26215W        W42399  18.950  11.294   1.876 -0.2094  0.1276  0.2239
26216W        W42400  12.712   4.414   4.415  0.1462 -0.0861  0.2042
26217W        W42401  12.051  10.298   5.474 -0.0643 -0.0143  0.1949
26218W        W42402  19.075  11.061  10.723 -0.1485  0.1561  0.2499
26219W        W42403   8.464  13.204   3.287  0.0083 -0.1838  0.2325
26220W        W42404   6.296   7.065   1.508  0.0697  0.0768  0.2389
26221W        W42405   3.254  19.211   4.174 -0.0281  0.1602  0.1141
26222W        W42406   1.434   5.670  14.926 -0.0470 -0.2115  0.2808
26223W        W42407   7.222   4.024   3.049 -0.2187 -0.0614  0.2576
26224W        W42408   0.977  14.451  12.698  0.1669 -0.1699  0.3236
26225W        W42409   4.218  16.207   1.495 -0.1498  0.2731 -0.1584
26226W        W42410   7.769  10.660   1.089 -0.0710 -0.0575  0.1079
26227W        W42411  12.498   9.355  10.782  0.0839 -0.1451 -0.1839
26228W        W42412  11.357  15.007   1.825  0.2592  0.0084  0.0558
26229W        W42413  15.156   6.044  14.769 -0.0398  0.0435  0.0285
26230W        W42414  13.496   0.142   1.322 -0.5116  0.2105  0.1309
26231W        W42415  11.061  19.154  11.170 -0.2387 -0.1058  0.3691
26232W        W42416   0.884  16.952  10.103 -0.1141 -0.0485  0.0762
26233W        W42417  13.763   6.352   5.379  0.2530  0.1028  0.2975
26234W        W42418  18.331   2.172   4.530  0.2014  0.0101  0.0106
26235W        W42419  17.650   1.760   9.854  0.2641 -0.0933  0.1365
26236W        W42420  16.518   5.753  10.854 -0.3180 -0.3182  0.2392
26237W        W42421  14.338  11.833   2.562 -0.0233  0.0560 -0.0654
26238W        W42422  13.377  19.177   4.821  0.0904 -0.1258  0.0016
26239W        W42423   8.443  12.628   1.705 -0.0010 -0.2137 -0.2074
26240W        W42424  12.375  15.777   1.335 -0.1340  0.1341  0.0852
26241W        W42425   5.196  13.295  13.176  0.1539 -0.2143 -0.1330
26242W        W42426   8.090   8.058   3.813 -0.2909 -0.0710 -0.1343
26243W        W42427   3.257  16.420  14.502  0.0097 -0.0929  0.0764
26244W        W42428   3.016  13.305   4.221 -0.0474 -0.2333  0.0899
26245W        W42429   0.646  19.187   2.184  0.0998  0.2101  0.0569
26246W        W42430   9.926  11.925  13.778 -0.2578 -0.1720  0.0296
26247W        W42431  16.302   9.678  10.371 -0.3925  0.1019 -0.1469
26248W        W42432   1.329  18.212   3.150  0.0037 -0.2178  0.2713
26249W        W42433  16.194   4.649  14.525  0.1001  0.1186  0.0638
26250W        W42434  18.800  15.383  14.034 -0.5105  0.0312  0.2439
26251W        W42435  12.895  12.034   0.097  0.3279 -0.3349 -0.3911
26252W        W42436  17.046  13.885   5.004 -0.2524 -0.2775  0.1462
26253W        W42437  13.438   5.124  13.929  0.1080  0.3346 -0.1905
26254W        W42438   6.881  14.717   2.185 -0.0556  0.0043  0.0610
26255W        W42439   7.388  15.494   5.464 -0.1489  0.0122  0.0079
26256W        W42440  12.028  10.387  13.232  0.2471 -0.4386 -0.0542
26257W        W42441  13.937   0.390   0.944  0.2781 -0.2795  0.4368
26258W        W42442  12.504  13.435   0.655 -0.0673 -0.1658 -0.0283
26259W        W42443   4.327   2.514   3.815 -0.0089  0.6762 -0.0021
26260W        W42444  14.593   6.147   0.648 -0.0329 -0.1466  0.3947
26261W        W42445  15.927  14.831   1.868 -0.1566 -0.2470  0.1752
26262W        W42446  18.696   8.758  12.640 -0.0733  0.1683  0.2222
26263W        W42447   1.610  16.438   2.615  0.2278  0.0476 -0.4144
26264W        W42448  17.242   3.427  11.112 -0.0735 -0.2357 -0.0467
26265W        W42449  15.771   3.699   4.934  0.0615  0.0291  0.0957
26266W        W42450   3.856  15.132  11.309 -0.1420  0.2346 -0.1148
26267W        W42451   2.781   9.315   5.357  0.0403 -0.1723  0.5486
26268W        W42452   5.783   8.869  12.877  0.1345 -0.2390  0.1084
26269W        W42453  11.803  16.656  13.274  0.1538 -0.1163  0.0786
26270W        W42454   4.380  10.022  12.062 -0.1750 -0.0088  0.2523
26271W        W42455   3.170   8.600   3.151  0.2941  0.2306  0.1716
26272W        W42456   7.010   0.387  14.554 -0.1622  0.1802  0.1352
26273W        W42457   3.434   3.093  12.025  0.0273  0.0865  0.0808
26274W        W42458  19.104  12.724   4.526  0.0038  0.0650 -0.0986
26275W        W42459  11.555   1.823  13.078  0.3553 -0.0083  0.0103
26276W        W42460   3.391  13.014  11.579  0.0854 -0.1181  0.1046
26277W        W42461   9.477  16.761   0.857  0.0950 -0.2388  0.2581
26278W        W42462   7.544   2.357  10.718  0.0670  0.0005  0.2893
26279W        W42463   5.226  14.825   4.451  0.3359 -0.1072 -0.1585
26280W        W42464  11.649  11.163  13.281  0.0161  0.1243  0.2833
26281W        W42465  12.099   9.208   0.492  0.0486 -0.0012 -0.0598
26282W        W42466   6.988   2.691   1.191 -0.6856  0.3404 -0.0361
26283W        W42467  11.969  18.539  11.551  0.3344  0.1160  0.2068
26284W        W42468  14.162  13.835  14.533 -0.2894  0.1077 -0.0220
26285W        W42469  16.602  16.224  12.513  0.3942  0.0577 -0.2322
26286W        W42470  16.937   3.519   2.535  0.1262 -0.1166  0.3834
26287W        W42471  11.128   3.005   4.438 -0.0724  0.4708  0.0356
26288W        W42472   6.023   9.224   6.064  0.0342 -0.0264  0.1533
26289W        W42473   1.581  18.036  12.412  0.2016 -0.0696 -0.2579
26290W        W42474   9.263  15.774   4.424  0.2099  0.0141 -0.1499
26291W        W42475   8.061  17.572   0.292  0.0158  0.1921 -0.1203
26292W        W42476   6.558  14.548  12.595  0.4403  0.2739 -0.1718
26293W        W42477   4.487   0.811   2.242 -0.0636  0.1974  0.3711
26294W        W42478  17.082   2.967   0.503  0.1200  0.1251  0.2899
26295W        W42479  15.544   7.893  13.899  0.1911 -0.1031  0.0609
26296W        W42480   9.021   6.851  13.539  0.4951  0.1685  0.3423
26297W        W42481   7.369   7.109  12.900 -0.0939  0.1605 -0.3525
26298W        W42482   2.750   8.233  13.162  0.0943 -0.0352 -0.0550
26299W        W42483   0.758  15.211  11.191  0.0469  0.1854 -0.2079
26300W        W42484  12.883  16.746  11.097  0.0530 -0.1087 -0.1022
26301W        W42485   9.583  18.356  14.207  0.3004 -0.0471  0.2958
26302W        W42486  18.555   1.981  10.847 -0.1631  0.0982  0.0185
26303W        W42487   8.146  13.007   3.620 -0.3385  0.5508 -0.4196
26304W        W42488   2.216   0.965   0.203  0.2066 -0.0145  0.1090
26305W        W42489   7.807  18.545  11.557 -0.1287 -0.0468 -0.1364
26306W        W42490   8.142  12.849  12.958 -0.0396 -0.0952 -0.4050
26307W        W42491   7.011  16.099  12.373 -0.2715 -0.2523 -0.0362
26308W        W42492   9.959   0.729   4.401  0.2612  0.3309 -0.1188
26309W        W42493   9.686  18.900   1.114  0.1795 -0.3089  0.0483
26310W        W42494  16.756   2.370  11.718  0.0563  0.1090  0.0167
26311W        W42495  17.500   0.643  14.065  0.0531  0.1801 -0.1037
26312W        W42496  14.673   6.742   3.746 -0.3202 -0.0766 -0.1795
26313W        W42497   7.813   4.109  11.623  0.1453 -0.0397  0.1178
26314W        W42498  18.902   6.332   0.360 -0.0780  0.2664 -0.0193
26315W        W42499  17.442  12.705   3.674 -0.0473 -0.0022  0.0976
26316W        W42500  17.485   7.862   2.340 -0.1138  0.2573  0.0381
26317W        W42501  11.667   7.335  11.438 -0.2725  0.4086 -0.0992
26318W        W42502  15.259   6.429   3.489 -0.1063  0.0399 -0.1647
26319W        W42503  13.155  11.740   2.850 -0.1737  0.3685 -0.2112
26320W        W42504   1.402   6.121  14.754  0.0374  0.2154  0.0609
26321W        W42505   8.400   2.835   1.494  0.1945  0.1010  0.2073
26322W        W42506   8.636  14.620  12.927 -0.0146  0.3036 -0.0725
26323W        W42507   4.211  15.549  13.755  0.1019  0.0329  0.0430
26324W        W42508   9.997  11.502  10.552 -0.0309 -0.1019 -0.3216
26325W        W42509  16.217   6.015  13.384  0.0852 -0.0039  0.0293
26326W        W42510   0.599   7.255  12.568  0.0770 -0.4590  0.0430
26327W        W42511  19.141  12.801  14.944 -0.0090  0.0399  0.0207
26328W        W42512  14.607  12.880  14.238  0.2522 -0.0158 -0.0915
26329W        W42513   9.425  13.726  13.232 -0.3521 -0.2399 -0.0873
26330W        W42514   2.706   6.419   0.242 -0.1883 -0.1100  0.1366
26331W        W42515  18.047  16.844   1.793  0.1917 -0.0247  0.1576
26332W        W42516  12.748  17.703  10.400 -0.1237 -0.3892 -0.3485
26333W        W42517   3.523  11.423  13.917 -0.1254 -0.1381 -0.2215
26334W        W42518  14.876   2.808   4.444 -0.0791  0.2806 -0.0415
26335W        W42519  18.868  15.538  14.497  0.1404 -0.2154 -0.2968
26336W        W42520   6.622   1.192   0.352 -0.0862  0.0565  0.0143
26337W        W42521   9.439  19.214   1.600 -0.2923  0.1324 -0.1495
26338W        W42522   7.537  16.410  10.852  0.2197 -0.1946  0.1248
26339W        W42523   0.270  17.799  12.227 -0.1515  0.1396  0.1562
26340W        W42524   5.697  10.084   2.500  0.0056  0.1285  0.3873
26341W        W42525   0.735   4.390  13.178 -0.3858 -0.0645 -0.2512
26342W        W42526  16.609   2.271   2.895  0.1375 -0.1216  0.4256
26343W        W42527  18.738   3.060   1.517 -0.0700  0.0594 -0.0435
26344W        W42528  15.095  16.904  11.236  0.3036 -0.2193 -0.2224
26345W        W42529   0.142  14.658  10.584  0.1330 -0.2044  0.1791
26346W        W42530   1.483  13.072  14.390  0.0818  0.1338  0.3852
26347W        W42531   6.762  17.304   1.665  0.2532  0.2214 -0.1123
26348W        W42532   3.025  18.198  12.199 -0.0910 -0.1709 -0.1067
26349W        W42533   4.612   4.345   1.553  0.4954 -0.2373 -0.0546
26350W        W42534   2.542  13.728  10.726 -0.2257 -0.1089 -0.1959
26351W        W42535  13.360   9.454   0.001  0.0387  0.3432  0.3379
26352W        W42536   9.803  10.398  14.191  0.1105  0.1040 -0.2474
26353W        W42537   4.368   9.961   4.852 -0.0401  0.1081 -0.0642
26354W        W42538  18.547  18.685   0.751 -0.2166  0.0362  0.1715
26355W        W42539  11.541  12.614  13.858 -0.0452  0.1502 -0.0425
26356W        W42540   2.813   2.820   3.511 -0.1514 -0.2656 -0.0205
26357W        W42541  10.324  12.653   2.812 -0.0479  0.0539  0.2066
26358W        W42542   3.444   9.961   4.487 -0.3810  0.1043  0.3021
26359W        W42543  14.302   8.532   1.982  0.4925  0.1516  0.2441
26360W        W42544   6.315   7.543  14.326  0.4684  0.1945 -0.2034
26361W        W42545  13.399   7.634  10.285  0.0336  0.1155 -0.4560
26362W        W42546   2.617  15.085   2.560 -0.0149 -0.3581 -0.3390
26363W        W42547   7.435  17.083   4.022 -0.3596  0.3444 -0.2460
26364W        W42548  15.441   2.854  13.774  0.0288  0.1288  0.1394
26365W        W42549  16.355   1.237  14.293  0.0818 -0.3207  0.1792
26366W        W42550  17.310   2.906   9.457  0.4402 -0.1966  0.2291
26367W        W42551  16.658  13.404   4.053  0.1504  0.1913  0.1218
26368W        W42552  13.089  17.409   1.025 -0.1370  0.2414  0.2648
26369W        W42553  19.197   4.487  12.731 -0.0148  0.1817 -0.1712
26370W        W42554   1.240  16.783   2.853 -0.2709 -0.0463  0.1629
26371W        W42555  15.607  14.083  12.716 -0.0011 -0.0759  0.0220
26372W        W42556   5.677   9.119   3.065  0.1928 -0.1517  0.0222
26373W        W42557   8.341  11.029   4.608 -0.2889 -0.0783 -0.2096
26374W        W42558  15.954   0.721  11.370  0.0448 -0.0562  0.3035
26375W        W42559  12.617  18.891  14.247 -0.1243 -0.3568 -0.2833
26376W        W42560   8.925   2.454  13.729  0.1392 -0.0405 -0.1025
26377W        W42561  14.658   9.423   0.592  0.0452  0.2329 -0.0092
26378W        W42562   7.437   8.007   3.284 -0.0782 -0.0253 -0.0349
26379W        W42563   3.440  10.833   4.521 -0.0680 -0.0206 -0.2045
26380W        W42564  13.789   7.659   0.270 -0.0761 -0.1362  0.1523
26381W        W42565   1.648   0.603  11.714  0.1157  0.3850  0.0341
26382W        W42566   7.805   3.093   4.625  0.0773  0.0996  0.0275
26383W        W42567  17.896   6.877   5.198 -0.1760 -0.1238 -0.0639
26384W        W42568  14.228  15.576   3.587 -0.0374  0.1082  0.0563
26385W        W42569   3.648   4.784  14.423  0.1118  0.1158 -0.0395
26386W        W42570  16.152  12.383   4.883  0.2469  0.0123 -0.1580
26387W        W42571  15.894  14.228  13.961  0.2472  0.1264  0.1088
26388W        W42572   6.019   4.790   0.654 -0.0517 -0.0900 -0.2837
26389W        W42573   4.882   4.986  14.689  0.2141  0.1120  0.1372
26390W        W42574  18.462   7.429   1.260 -0.2017  0.1472  0.5042
26391W        W42575  17.184  18.786  12.541 -0.3922  0.1079 -0.2436
26392W        W42576  12.906  17.347   0.007  0.2755  0.0608 -0.0284
26393W        W42577  15.112   7.105   0.498 -0.1593  0.0603  0.2321
26394W        W42578   1.854  11.237  10.138 -0.1053  0.1725 -0.1604
26395W        W42579  14.152  18.911   3.467 -0.1394  0.0044  0.1485
26396W        W42580   5.575   4.753  11.998 -0.1910  0.1663 -0.3418
26397W        W42581  12.882  19.359  10.805  0.0916 -0.0511 -0.0457
26398W        W42582   1.409  15.046  14.568  0.1786  0.0578  0.0978
26399W        W42583   5.382   5.649   5.356 -0.1898 -0.0234 -0.3213
26400W        W42584  13.872  18.285   9.928 -0.1435  0.0276  0.0373
26401W        W42585   6.626  15.393  13.914 -0.0512  0.1186  0.0733
26402W        W42586   9.553   8.559   0.409 -0.0069 -0.3489 -0.0490
26403W        W42587   0.268   6.134   1.669 -0.0390 -0.0759 -0.0941
26404W        W42588  14.691   7.934   2.618  0.0047 -0.3602  0.1377
26405W        W42589   2.218  10.617   2.577 -0.1995 -0.0562 -0.3553
26406W        W42590  18.020   4.457  11.999 -0.0678 -0.1553 -0.4184
26407W        W42591   9.887  16.465  11.386  0.0823  0.1770  0.1913
26408W        W42592   0.412  15.188   3.293  0.1587 -0.0926  0.1863
26409W        W42593   7.572  18.329  13.309  0.0971  0.2540  0.1611
26410W        W42594  14.529   2.790  12.430 -0.2103  0.0683 -0.2932
26411W        W42595   9.974   5.541   1.869 -0.5548 -0.1409  0.0083
26412W        W42596  15.551   3.885   1.718  0.0403 -0.1404 -0.0451
26413W        W42597  13.887  11.099   0.061  0.1866  0.2763  0.1106
26414W        W42598   5.524   7.374  12.185 -0.2195  0.1069  0.4847
26415W        W42599  13.246  16.719   4.121  0.2420  0.0919 -0.0998
26416W        W42600  14.997   7.040  10.008  0.0263 -0.3581  0.1914
26417W        W42601  11.942  10.672  10.541  0.0384  0.2099  0.2220
26418W        W42602  10.709   3.319  11.118  0.1393  0.0323 -0.2725
26419W        W42603  18.077  18.549  12.902  0.1381  0.1205  0.1780
26420W        W42604   1.995   1.859  11.311  0.1164 -0.0139  0.0901
26421W        W42605  14.022   0.869   1.167 -0.1148 -0.1479 -0.2258
26422W        W42606  15.848   0.365   1.565  0.0597  0.0444 -0.3565
26423W        W42607   7.903  14.373   5.075 -0.0762  0.0404 -0.2915
26424W        W42608  10.456   1.752  11.852 -0.2596 -0.1127 -0.0807
26425W        W42609   1.352  14.691  12.395 -0.1871 -0.0619 -0.1125
26426W        W42610   6.197  18.488   3.336  0.2528  0.1293  0.1469
26427W        W42611   2.045  18.399   4.923  0.2274 -0.1376 -0.1011
26428W        W42612   8.470  14.703   4.306 -0.1379  0.0839 -0.0318
26429W        W42613   2.052  13.904   2.031  0.4023  0.2428  0.2789
26430W        W42614  17.649  10.886   3.391  0.0250  0.0614  0.2091
26431W        W42615   7.055   5.380   3.275  0.0413  0.0565  0.0427
26432W        W42616   6.461  16.413  11.644 -0.1111 -0.3791 -0.0618
26433W        W42617   5.852   5.463   4.178 -0.0926 -0.1576  0.4306
26434W        W42618   2.786  16.562   0.728 -0.0368 -0.2105 -0.0140
26435W        W42619   8.525  17.302  12.199 -0.1319  0.1126 -0.0841
26436W        W42620  10.309   8.327  14.602 -0.1243 -0.2685  0.1325
26437W        W42621  18.732   1.922   1.048 -0.1197  0.0472  0.1294
26438W        W42622   5.523   3.185   3.571 -0.0081 -0.4799 -0.0913
26439W        W42623  14.706   9.793  14.227  0.2891  0.3782  0.1769
26440W        W42624   0.546  10.456  13.758  0.2294 -0.2048  0.2440
26441W        W42625   9.427  15.261   0.304  0.0035  0.1012  0.3417
26442W        W42626  18.325   9.315   4.271 -0.2610  0.2350  0.1446
26443W        W42627   3.536   2.133   0.419 -0.1445  0.1404  0.2355
26444W        W42628  18.023  17.968   0.138  0.1264  0.1902 -0.0432
26445W        W42629  11.095   0.180   3.856  0.1778  0.3354  0.0536
26446W        W42630   9.373  15.192   3.688  0.3358 -0.2574  0.0055
26447W        W42631  14.558  12.378  13.363  0.3026 -0.1159 -0.1003
26448W        W42632   6.523   0.406  14.680 -0.3653  0.2307 -0.2806
26449W        W42633   6.990   9.573  13.098 -0.0984  0.4144 -0.2490
26450W        W42634   1.864   8.826   4.523 -0.1257  0.1252 -0.1457
26451W        W42635   2.959  10.856   3.753  0.0158  0.0330 -0.1708
26452W        W42636  10.960   6.608  11.333  0.0677 -0.2141 -0.2543
26453W        W42637  15.236  15.375   0.985 -0.1992  0.0313 -0.0266
26454W        W42638  15.673  17.238   2.558 -0.0479 -0.1720 -0.5577
26455W        W42639   1.198   5.722  14.436 -0.1092 -0.0397  0.0757
26456W        W42640   8.827  11.967  10.759 -0.1328 -0.2667  0.0735
26457W        W42641  12.358  15.859  10.954  0.0304 -0.0904  0.1229
26458W        W42642   1.215   1.751   0.629  0.0332  0.2689  0.0420
26459W        W42643   0.081   7.915  10.871 -0.2962 -0.3197 -0.1608
26460W        W42644   1.646  17.938  13.549  0.0084 -0.0218 -0.4370
26461W        W42645   5.548   3.569   3.285 -0.0961 -0.1553  0.1356
26462W        W42646  17.091  17.948  12.595  0.1553 -0.1656  0.1339
26463W        W42647  18.790  13.430   1.734 -0.0842  0.0945  0.6835
26464W        W42648   7.582  16.680   3.056 -0.3299 -0.2850  0.0034
26465W        W42649   3.627  12.817   1.384 -0.2179 -0.1328  0.0114
26466W        W42650   7.305   8.636   3.163 -0.0634  0.1784  0.0734
26467W        W42651  13.824   3.565   0.968 -0.0960  0.0423 -0.0764
26468W        W42652   2.053  18.903  10.006 -0.3756 -0.1012  0.0062
26469W        W42653  16.378  18.349   2.134  0.0143 -0.1088 -0.0621
26470W        W42654  18.489   3.090  12.450  0.0962  0.1004  0.1389
26471W        W42655  14.030   0.845   9.991 -0.1160  0.3275  0.0613
26472W        W42656   7.328   0.031  13.680  0.1113  0.1052  0.2377
26473W        W42657   2.719  13.627  13.372 -0.0585 -0.0560  0.0571
26474W        W42658  15.980   7.934   9.969  0.1759  0.2996 -0.0960
26475W        W42659   7.435   5.080  13.993  0.0155  0.2513 -0.0402
26476W        W42660   2.973   4.531   4.535 -0.0476  0.3105  0.0059
26477W        W42661  16.370  12.722   9.096 -0.1724  0.0178 -0.0746
26478W        W42662  13.299   5.995  14.347 -0.4259  0.1399 -0.0639
26479W        W42663  18.642   4.535   3.054 -0.0110  0.0618  0.0018
26480W        W42664   9.502  13.226  12.851 -0.1451  0.1188 -0.0227
26481W        W42665   1.984  11.786   1.652  0.1520  0.0210 -0.1734
26482W        W42666   3.822  12.612  14.031  0.1352  0.3455  0.0704
26483W        W42667   1.147  19.347  12.496 -0.0830 -0.1800  0.3097
26484W        W42668   7.973  18.527   4.918  0.1295  0.0462 -0.0204
26485W        W42669   3.308   9.717   3.663 -0.0243 -0.1297 -0.4965
26486W        W42670   6.831  13.493   3.716  0.0372 -0.2648 -0.3356
26487W        W42671  17.175  10.320  13.978 -0.0623 -0.0980  0.3519
26488W        W42672  10.766   2.987  10.660 -0.0820  0.2286  0.2089
26489W        W42673   7.054  10.098   3.558  0.0698 -0.0260 -0.0841
26490W        W42674   4.112  15.658   3.135 -0.3347  0.1280  0.2198
26491W        W42675   1.719  14.679   4.561  0.1729  0.1218 -0.4105
26492W        W42676  10.520   4.688   9.378 -0.0501 -0.0102 -0.3442
26493W        W42677  15.596   7.568   0.686 -0.3290  0.0972 -0.2790
26494W        W42678  15.137  12.155  14.296  0.2171  0.2145  0.1105
26495W        W42679  10.147  17.548  14.561  0.2841  0.1085  0.0559
26496W        W42680   6.837  14.487  10.584 -0.0682  0.1202 -0.0932
26497W        W42681   9.819   7.850   1.966 -0.1525 -0.2390 -0.1303
26498W        W42682  13.607  15.300  11.059 -0.1445 -0.3613  0.0152
26499W        W42683  13.503  12.855   3.538  0.2585 -0.0766  0.0199
26500W        W42684  17.783   4.073   4.157  0.3032  0.0497  0.1556
26501W        W42685   1.727  14.109  12.020 -0.1761 -0.0866 -0.1983
26502W        W42686   3.688   6.549   3.360 -0.1300  0.3221  0.1134
26503W        W42687   7.254  10.327   5.259  0.0312 -0.0273  0.1298
26504W        W42688   2.917  14.972  13.462  0.1815 -0.3638 -0.1309
26505W        W42689  13.628  16.985   3.665 -0.0949 -0.3201  0.1907
26506W        W42690  18.800  17.741   4.012  0.0608 -0.0511 -0.0245
26507W        W42691   0.581   4.102  11.382  0.0002 -0.2620  0.0735
26508W        W42692  13.566   8.288   1.288  0.1414 -0.1607 -0.1109
26509W        W42693  14.614  11.805  12.643  0.1186 -0.1103  0.1672
26510W        W42694  17.929  17.469   0.333 -0.0876 -0.0586 -0.2643
26511W        W42695   4.695  18.814   3.260 -0.0190 -0.1326  0.0746
26512W        W42696  10.352   8.116   0.139 -0.2096  0.2630 -0.1625
26513W        W42697   3.103  16.560   4.155 -0.1092  0.2432  0.0522
26514W        W42698  16.224   7.341   0.646 -0.1889 -0.0276  0.0905
26515W        W42699   4.644   9.562   1.271  0.0748  0.0136 -0.0831
26516W        W42700   6.827  14.130  11.683 -0.1328 -0.2683 -0.1763
26517W        W42701   3.010   1.120   0.875  0.1264  0.0774  0.0101
26518W        W42702  18.830   8.655   5.060 -0.1199 -0.2114  0.3091
26519W        W42703  17.413   6.364  13.965  0.0088 -0.2370  0.1671
26520W        W42704   7.278   4.123  14.296  0.1368 -0.1365 -0.1714
26521W        W42705   4.321  16.381  14.614 -0.1735 -0.1064 -0.1336
26522W        W42706  17.569   0.039   3.275 -0.4647  0.1278 -0.1241
26523W        W42707   1.856  16.801  11.098 -0.3815  0.0997 -0.0063
26524W        W42708  11.917   9.681   0.317 -0.2825 -0.0615  0.0904
26525W        W42709  18.048   0.174   4.062  0.1475  0.0689  0.2364
26526W        W42710  18.466   1.039  12.428  0.0048  0.0619 -0.3028
26527W        W42711   9.112  18.966   4.021 -0.0503 -0.2307  0.0444
26528W        W42712  17.228   8.044  11.436 -0.0300 -0.0286 -0.3948
26529W        W42713  17.869  11.785  11.984  0.1540 -0.0736 -0.0283
26530W        W42714  15.664   3.981  14.799 -0.1222  0.2552  0.3152
26531W        W42715   5.167   4.303   3.510 -0.2231 -0.0647  0.1572
26532W        W42716  12.503   4.392   0.225  0.0032  0.0268 -0.0583
26533W        W42717   8.058  19.084  13.494  0.0205  0.0844  0.0456
26534W        W42718   7.702  16.331  14.281 -0.4214 -0.0508  0.3132
26535W        W42719  18.840   4.863   1.428  0.0774 -0.1965 -0.0946
26536W        W42720   1.259  11.576  11.980 -0.0793 -0.1366  0.4318
26537W        W42721  16.504  18.636   3.939  0.1889 -0.0644 -0.0031
26538W        W42722  11.258   3.114  10.521 -0.1591 -0.1789  0.0394
26539W        W42723  10.622  14.943  12.557 -0.2005  0.0622  0.1850
26540W        W42724   7.191  10.881   3.385  0.0184 -0.1324  0.0404
26541W        W42725   6.819  16.589   1.148 -0.3042  0.0999  0.1539
26542W        W42726   9.198  16.996  13.789 -0.0177 -0.0277 -0.0281
26543W        W42727  10.533  17.545   2.831 -0.1643  0.1025  0.1883
26544W        W42728   1.616   1.514  10.622  0.3515  0.2242 -0.0321
26545W        W42729   6.104  10.229  13.554 -0.0385 -0.2386 -0.1897
26546W        W42730   5.578  17.311  14.798 -0.0335  0.2884  0.2695
26547W        W42731  13.208  15.006  14.535 -0.0983 -0.5282 -0.1033
26548W        W42732   4.019   3.334   2.231  0.2143 -0.0883  0.1797
26549W        W42733  14.478  19.070  12.987 -0.0226 -0.1031  0.1657
26550W        W42734   7.045   5.360   1.964  0.0115  0.3007 -0.0382
26551W        W42735  18.735   2.305  11.176  0.0325 -0.1402 -0.1303
26552W        W42736  12.992  18.484   3.442  0.0072 -0.1146  0.0857
26553W        W42737  15.321  19.127   2.657 -0.3898 -0.2429 -0.1270
26554W        W42738   7.990   7.180  12.121 -0.0330 -0.1092  0.2076
26555W        W42739  18.706  11.844   3.740  0.1348 -0.0389  0.1691
26556W        W42740   1.766   1.776   2.906 -0.0803 -0.0513  0.1913
26557W        W42741   1.017   3.225  13.037  0.1980  0.2197  0.0749
26558W        W42742  18.264   1.475  12.794  0.0516 -0.0795  0.3612
26559W        W42743  14.312   2.981  10.350  0.1285  0.2279  0.0329
26560W        W42744  15.154  15.393  10.962 -0.3600 -0.3217 -0.2268
26561W        W42745  10.159  13.763   1.210  0.0161  0.2958 -0.2820
26562W        W42746   8.480  10.965   2.169  0.2007  0.3110  0.3273
26563W        W42747   7.268  11.054  12.280 -0.1002  0.2299  0.2765
26564W        W42748  10.823  16.483   2.300  0.0598  0.0338 -0.0865
26565W        W42749  18.995  11.524   1.342  0.2109  0.1774 -0.1193
26566W        W42750  14.214   7.645   4.198 -0.0595 -0.1355  0.4890
26567W        W42751  13.400  15.952   3.025  0.1759  0.3679  0.0077
26568W        W42752   1.867  18.723   2.330  0.0396  0.2180 -0.0394
26569W        W42753   8.437  15.230  12.855  0.2215  0.1268  0.0415
26570W        W42754   1.146   8.685   4.050  0.1098 -0.3163  0.1313
26571W        W42755  11.963  15.584  12.593 -0.2473  0.1952 -0.0533
26572W        W42756  15.095   7.825  12.000  0.0361 -0.0256 -0.2535
26573W        W42757  19.308  14.293   1.668 -0.2282 -0.0787 -0.0699
26574W        W42758   1.798  17.884   9.725  0.2518  0.1977  0.1628
26575W        W42759   5.014   1.059  13.690  0.0832  0.0926  0.1478
26576W        W42760  18.219  16.708  12.552  0.0332  0.1208 -0.1920
26577W        W42761  10.485   2.229   0.147  0.3974 -0.0067  0.1366
26578W        W42762   1.806   5.227  13.115 -0.0686 -0.1981  0.2230
26579W        W42763   8.877   4.894   2.429  0.0077  0.0328 -0.0756
26580W        W42764   9.440  11.444  12.595  0.1656  0.2665 -0.3247
26581W        W42765  10.183   1.070   2.866 -0.1015  0.3064 -0.1500
26582W        W42766   8.699   4.068  11.488  0.1876 -0.2910 -0.1860
26583W        W42767  15.431   4.467   4.360 -0.0240  0.0092 -0.0287
26584W        W42768   7.867   5.777  11.962 -0.0283  0.3443 -0.4630
26585W        W42769   2.758   9.830  14.932 -0.0303  0.3519 -0.0395
26586W        W42770   0.016   3.052   0.610 -0.0552 -0.3064 -0.0535
26587W        W42771   7.015  11.043   0.699 -0.0693 -0.1210  0.2414
26588W        W42772  15.189   0.524  14.568  0.0639 -0.1873 -0.0080
26589W        W42773   7.105   8.360  14.457 -0.3821  0.1177  0.1853
26590W        W42774  11.673  12.486   4.817 -0.0111 -0.0893  0.2407
26591W        W42775   7.602  10.781   2.934  0.0245 -0.1655  0.1303
26592W        W42776   8.864   7.294   1.449 -0.0976  0.0766 -0.0795
26593W        W42777  12.953  15.967  11.308 -0.1730  0.2466  0.0345
26594W        W42778  11.722   4.122  11.649 -0.0184  0.0765 -0.0624
26595W        W42779  17.948   2.880   3.740  0.1072  0.1972  0.0016
26596W        W42780   1.794   2.060   5.491  0.2058  0.0654 -0.2658
26597W        W42781  11.623   2.244   3.685  0.1200  0.0175 -0.1725
26598W        W42782   3.024  13.124  13.643  0.0520 -0.0306  0.1886
26599W        W42783  10.942   4.382  11.972  0.1671  0.0121 -0.0829
26600W        W42784   4.943   9.018  10.216  0.1008  0.2030  0.1810
26601W        W42785  15.582  18.407  13.912  0.1063  0.3631 -0.2023
26602W        W42786   9.707   9.335   4.663  0.0091  0.0098  0.3478
26603W        W42787   6.743   5.336   2.384 -0.1903 -0.3607 -0.0119
26604W        W42788  11.977   9.974  12.749  0.2178  0.0003 -0.0223
26605W        W42789   2.194  16.404  13.733 -0.3433  0.0409 -0.5318
26606W        W42790   7.996   6.770  14.870 -0.0562  0.0326  0.0649
26607W        W42791   1.537  17.025  11.595 -0.1089 -0.0657 -0.2181
26608W        W42792  16.854  16.582  10.650  0.2889  0.0218  0.1654
26609W        W42793  16.314   5.665  12.376  0.0695 -0.3425 -0.3366
26610W        W42794   7.417   1.518   3.373  0.4105 -0.4356  0.2508
26611W        W42795  18.815  16.189   0.614  0.1785 -0.0986  0.1134
26612W        W42796   2.055   0.253   4.706  0.1836 -0.1592  0.2750
26613W        W42797   8.880   8.818  10.269  0.2322 -0.5828 -0.0498
26614W        W42798   7.178   7.506  11.253  0.2145  0.3885  0.0401
26615W        W42799   9.956   6.737   4.563  0.0307 -0.1131  0.4848
26616W        W42800  11.641  13.223  14.722 -0.2133 -0.0759  0.3231
26617W        W42801  15.089   1.497   4.127 -0.0649 -0.0603 -0.3522
26618W        W42802   3.688  17.410   1.806 -0.1165  0.2291 -0.2870
26619W        W42803  18.504   1.802  12.502 -0.0479 -0.1934 -0.1187
26620W        W42804  16.585  11.884   3.994 -0.1454 -0.0428  0.0309
26621W        W42805   6.449  16.460  12.530  0.1545 -0.0065  0.3099
26622W        W42806   1.928   3.344  14.533 -0.1631  0.3076  0.0067
26623W        W42807  14.037   5.642   4.511  0.0834 -0.1603  0.1529
26624W        W42808   5.692  11.349   0.434  0.0267  0.0048 -0.0309
26625W        W42809   4.698  19.388  12.838 -0.1715  0.1903  0.1066
26626W        W42810  16.708   3.230   3.047  0.0686 -0.1605 -0.1892
26627W        W42811  17.187   0.814   1.922 -0.1744 -0.2266 -0.3595
26628W        W42812   4.133  11.981   1.738 -0.0422  0.0281  0.0353
26629W        W42813  11.112   3.055  11.033 -0.2338 -0.2051  0.4620
26630W        W42814   2.758  15.584   3.331 -0.0676 -0.0576 -0.1631
26631W        W42815   7.106  16.566   2.691  0.0235  0.0524  0.0523
26632W        W42816   2.366  13.757   3.352  0.0104  0.5916 -0.0117
26633W        W42817   5.051   5.055  12.582  0.3227 -0.1065 -0.1420
26634W        W42818  10.476  16.897   3.527 -0.1259 -0.2368 -0.0559
26635W        W42819  18.783  18.204  11.705  0.0401 -0.1095  0.0613
26636W        W42820  11.049  12.485   0.892 -0.3389 -0.0642 -0.2169
26637W        W42821   8.127  11.655  13.895 -0.4653 -0.0900 -0.1744
26638W        W42822   8.645  12.175  12.628  0.0674  0.0889  0.2248
26639W        W42823   7.867  18.627  13.606  0.2983  0.2761  0.0495
26640W        W42824   8.536  12.964  12.143 -0.2467  0.0635  0.1310
26641W        W42825   9.285   2.420  11.581  0.0197 -0.1411 -0.0962
26642W        W42826  17.125   9.965  13.635 -0.1384 -0.0406  0.0518
26643W        W42827   1.375  15.142   4.782  0.1064  0.2150  0.0566
26644W        W42828  11.269   3.895   0.999 -0.0455  0.1023 -0.2165
26645W        W42829   2.318  12.967  14.055  0.2569  0.0911  0.0707
26646W        W42830   4.375  17.106  13.434  0.1857  0.0915  0.1530
26647W        W42831   8.928  14.026  12.393  0.0346 -0.0660 -0.1241
26648W        W42832  12.188   1.120  14.094 -0.1277  0.2684 -0.0313
26649W        W42833  13.319  16.449  13.895  0.1461 -0.0822 -0.1652
26650W        W42834   6.433  13.358   1.721 -0.1387 -0.0089 -0.2872
26651W        W42835   3.765   5.481   4.764  0.3710 -0.1358 -0.3125
26652W        W42836   0.198  12.946   0.324 -0.3880 -0.1845 -0.2648
26653W        W42837  15.993   1.969  13.637 -0.1302  0.1468 -0.3236
26654W        W42838  16.984   6.463   0.366  0.1087  0.1565 -0.3506
26655W        W42839  13.060   4.070  13.036 -0.0796  0.0022 -0.1654
26656W        W42840  14.006  15.749   4.006  0.1428 -0.3157 -0.1449
26657W        W42841  19.300   0.955   4.232 -0.0714 -0.1354  0.3580
26658W        W42842   0.530   0.225   3.114 -0.0706 -0.2060  0.3296
26659W        W42843   6.121   2.580  14.272  0.1838  0.3686  0.0576
26660W        W42844   4.754   7.724   1.193  0.1151  0.1132  0.2064
26661W        W42845  18.037   4.801  13.993 -0.3010  0.2334  0.0685
26662W        W42846   7.257  13.250   2.265  0.3557  0.1506 -0.4121
26663W        W42847   2.491  16.891   0.445  0.1044  0.0024  0.1144
26664W        W42848  11.909   2.038  12.095  0.0641 -0.0176  0.1422
26665W        W42849  14.402  19.320  11.106 -0.2367  0.0946  0.2069
26666W        W42850  13.942   2.911  12.169 -0.0830  0.0151  0.2232
26667W        W42851   1.938  13.119   4.595 -0.0185 -0.3301 -0.2211
26668W        W42852   4.555   0.794   3.814  0.1332 -0.1475  0.0878
26669W        W42853   3.728  16.188  11.965  0.0103  0.3192 -0.1371
26670W        W42854  13.989  11.216   3.706 -0.1372  0.2011  0.0213
26671W        W42855   0.559   0.747  14.203  0.0678 -0.2799  0.3657
26672W        W42856  17.606  11.291   0.066 -0.1763 -0.1350  0.0106
26673W        W42857  15.820  17.788   3.201 -0.0467  0.0426 -0.2660
26674W        W42858   2.664  10.321  11.837  0.3732  0.0214 -0.4281
26675W        W42859  17.424   1.341   9.547 -0.0145 -0.0576 -0.2131
26676W        W42860  17.940   2.271  11.219 -0.2464  0.0768 -0.0654
26677W        W42861   5.491  15.708   4.341  0.0439  0.0113 -0.3495
26678W        W42862   3.051   9.452  12.264  0.2422  0.1510 -0.1516
26679W        W42863  13.517  14.534  10.565 -0.2332 -0.0958 -0.1245
26680W        W42864   7.452   9.460  11.785 -0.2526 -0.0271  0.1592
26681W        W42865  18.084   4.969  11.212  0.2423 -0.2211  0.0020
26682W        W42866   2.892   7.282  14.287 -0.1332 -0.1491  0.1900
26683W        W42867   5.794  17.766  13.530 -0.1671  0.1892  0.2027
26684W        W42868   7.392   7.005  10.694 -0.2649  0.0041  0.1333
26685W        W42869   1.598   7.072  14.374 -0.0138  0.2830 -0.0799
26686W        W42870   5.824  12.731  13.401  0.1060 -0.0378  0.1781
26687W        W42871   7.778  10.976   5.273  0.0665 -0.1183 -0.2546
26688W        W42872  17.991   1.431   0.609 -0.1979 -0.0799 -0.1021
26689W        W42873   4.304  14.513  13.346 -0.0619  0.1979  0.2126
26690W        W42874  12.851  12.814  11.430  0.0839 -0.3600  0.0931
26691W        W42875  16.646   1.773   0.676  0.2233 -0.2175 -0.2756
26692W        W42876   7.165  17.258   2.832 -0.3016  0.3507  0.2320
26693W        W42877  17.371  16.537  14.466 -0.0552  0.0797 -0.0509
26694W        W42878   0.866   0.781   4.881  0.0066  0.0450  0.3529
26695W        W42879   5.476   9.341   0.147  0.1450  0.1958  0.2207
26696W        W42880   9.205   8.918  13.179  0.1055 -0.1162  0.0117
26697W        W42881   0.576   2.710   2.730  0.1005 -0.0161  0.2106
26698W        W42882   7.022  15.308   0.312  0.4045 -0.1225  0.3493
26699W        W42883  17.618  10.641   9.963  0.0571  0.0900 -0.2935
26700W        W42884   3.498   1.294   1.061 -0.0192  0.1824 -0.4501
26701W        W42885   4.759  19.156   2.832  0.1344  0.2209  0.3701
26702W        W42886   5.853   6.854   0.946 -0.0594 -0.1455 -0.2609
26703W        W42887   4.263  19.218   2.715 -0.0566 -0.0199  0.0018
26704W        W42888  18.997  18.688   1.022  0.1626  0.2858 -0.2156
26705W        W42889   3.957  10.444  11.268  0.1589  0.2978  0.0883
26706W        W42890   9.941   5.566  14.597 -0.0495  0.3670 -0.3134
26707W        W42891   8.378   5.585   4.412 -0.3108  0.1995  0.0898
26708W        W42892   5.899  11.262   4.366  0.1484 -0.1211  0.1114
26709W        W42893  10.158  11.639  11.051 -0.3069 -0.0613 -0.3153
26710W        W42894  12.234  16.620   1.116 -0.4669  0.2486 -0.2512
26711W        W42895  11.336   1.229   0.577 -0.1219  0.1926 -0.0178
26712W        W42896  12.545  12.459  11.753  0.2516 -0.1001 -0.0705
26713W        W42897  14.298  12.519   0.823  0.0998  0.1565  0.0478
26714W        W42898   3.947   7.672   3.827  0.2160 -0.2236  0.2377
26715W        W42899  10.874   5.857   2.251  0.0059 -0.0502  0.1504
26716W        W42900  17.678   9.704   0.338 -0.0497 -0.0953 -0.1345
26717W        W42901   6.291  17.687  12.119  0.0523  0.1096 -0.1335
26718W        W42902  16.520   4.001  10.033  0.3168 -0.6462 -0.0870
26719W        W42903  12.786   1.898  14.038 -0.0100  0.2700  0.0110
26720W        W42904   6.512   2.015   5.192  0.0079  0.4255 -0.2900
26721W        W42905   9.689  14.921   0.599 -0.1425 -0.0140 -0.0804
26722W        W42906   4.354  12.750  13.962  0.1597  0.1258 -0.0295
26723W        W42907   8.860  19.039  10.243 -0.2157 -0.2711 -0.4631
26724W        W42908   4.006  17.006   1.953 -0.0773  0.0261 -0.0189
26725W        W42909   9.730  16.203   1.798  0.0697  0.0368 -0.0350
26726W        W42910   7.753   0.137  13.458  0.0962 -0.0392  0.0909
26727W        W42911  15.868  18.885  14.888 -0.2110  0.0368 -0.2499
26728W        W42912  18.031  12.365  11.508  0.0981  0.1107  0.1212
26729W        W42913  14.115   9.776  14.888  0.0158  0.1829 -0.2155
26730W        W42914  16.829   7.319   2.873 -0.1470 -0.0223 -0.1750
26731W        W42915  16.806  15.754  12.638 -0.4407  0.0900 -0.1145
26732W        W42916  10.083   1.368  10.126  0.2954 -0.2345  0.1760
26733W        W42917   4.953  10.605  11.340  0.0487 -0.1802 -0.2115
26734W        W42918  14.867   9.417  12.211 -0.1527 -0.0684  0.0824
26735W        W42919   0.558   1.801  11.056 -0.0354 -0.2560  0.2027
26736W        W42920   8.965  16.095   4.170  0.2052 -0.1077  0.0189
26737W        W42921   1.805   2.878   1.114  0.1164  0.5195  0.0276
26738W        W42922   7.130  12.090   0.043  0.2381  0.2019 -0.2929
26739W        W42923   5.388  11.571  12.184 -0.0652  0.2645  0.0717
26740W        W42924   4.982   2.432  14.520  0.1073  0.0242 -0.0934
26741W        W42925   4.868   9.921  11.097  0.0065 -0.2415  0.1282
26742W        W42926  17.255   6.544  14.437  0.1210 -0.1669  0.0134
26743W        W42927   2.037  16.685   0.542  0.1311 -0.1844 -0.0860
26744W        W42928  16.554  10.149   3.508  0.2587  0.0333  0.1357
26745W        W42929   8.141  12.198   2.551  0.0343  0.0563 -0.2095
26746W        W42930   6.143   8.348   2.512 -0.0299 -0.1806 -0.0777
26747W        W42931   3.512   7.005   3.152  0.0704 -0.1380  0.0504
26748W        W42932  19.030  18.285   0.657  0.1170  0.0086 -0.2710
26749W        W42933   9.360   9.164   3.426 -0.3174 -0.2419  0.2140
26750W        W42934  13.856   2.262   1.364  0.1001  0.1165  0.4195
26751W        W42935  14.040  12.203   3.867  0.0501  0.1510  0.0266
26752W        W42936   1.825  19.337   5.059 -0.0222 -0.4644 -0.0371
26753W        W42937   8.786  15.564   4.560  0.5108 -0.2538  0.3357
26754W        W42938   7.804   1.080  12.051 -0.4655 -0.0527 -0.1760
26755W        W42939   9.981   0.624  11.195 -0.0211 -0.1437 -0.0526
26756W        W42940   0.733  13.300  11.491 -0.2671  0.3153 -0.2863
26757W        W42941   5.724  18.964  11.425 -0.0339  0.2466  0.0848
26758W        W42942   9.443  19.328   3.853  0.0733  0.4700 -0.1771
26759W        W42943  19.182   7.484  12.962  0.2304  0.1028 -0.1500
26760W        W42944  15.077   4.520  14.430  0.1177 -0.0610  0.1430
26761W        W42945   9.652  12.298   0.539 -0.0136 -0.2850 -0.0235
26762W        W42946  12.105   7.728  10.890  0.1716 -0.0101  0.0191
26763W        W42947   6.501  10.550   5.155  0.2818  0.0215 -0.0631
26764W        W42948  18.631   4.443  10.560 -0.1595 -0.0909  0.1030
26765W        W42949   7.794   1.685   2.752  0.1049 -0.1182 -0.2012
26766W        W42950  16.039  14.303  12.657 -0.2797  0.0873  0.3706
26767W        W42951  14.532   9.742  11.523 -0.2153  0.1869  0.1327
26768W        W42952  14.854   8.008  12.784  0.3352  0.0406 -0.1521
26769W        W42953   0.792  13.494  11.955  0.2494  0.0787 -0.3227
26770W        W42954  16.010   8.024   0.813 -0.0341 -0.1326 -0.0294
26771W        W42955  13.277   3.881   3.106  0.0196 -0.3150 -0.1979
26772W        W42956  16.741   7.295   0.879  0.0617 -0.1375 -0.1469
26773W        W42957   4.399  11.915   3.096 -0.0049 -0.1901  0.0318
26774W        W42958   7.783  18.854   4.432  0.0775  0.2090 -0.0879
26775W        W42959  13.509  10.287   2.032 -0.0798 -0.0457  0.0617
26776W        W42960   9.662   9.265   1.024 -0.3464 -0.3688  0.3561
26777W        W42961   4.894   2.450   0.630 -0.4640 -0.2228 -0.3461
26778W        W42962   5.847   5.878  11.087 -0.3143  0.1641 -0.1316
26779W        W42963  12.844   5.864  11.731  0.2525 -0.3279  0.1788
26780W        W42964   8.089   4.325   0.671 -0.1818 -0.0225 -0.0979
26781W        W42965   2.650  17.370   0.370 -0.0493 -0.2056 -0.1316
26782W        W42966   0.630   5.080  13.539  0.2000 -0.1640 -0.1319
26783W        W42967  12.076   0.965   2.434 -0.0247 -0.3464  0.1923
26784W        W42968  17.609  15.232   2.612  0.2897  0.0963  0.2541
26785W        W42969   9.141   4.199   4.000  0.2469 -0.0896 -0.0223
26786W        W42970   1.246  16.154   4.638 -0.2082 -0.0847  0.1492
26787W        W42971  16.944   1.170   4.554  0.1655  0.0227 -0.1086
26788W        W42972   5.325  12.509   1.218 -0.1867  0.2023  0.4778
26789W        W42973   8.758   9.910  13.244  0.1412 -0.0809  0.1550
26790W        W42974  13.762   5.461   0.569 -0.0626 -0.0231  0.1370
26791W        W42975  11.225  10.296  14.419  0.2261  0.2149  0.4284
26792W        W42976  17.655  14.554  14.519  0.2335 -0.0068  0.4412
26793W        W42977  17.440  18.218   3.723  0.1992 -0.2201 -0.1392
26794W        W42978   2.828   0.021  10.354  0.1932 -0.0697 -0.1723
26795W        W42979   1.529   0.956  13.664 -0.0581  0.2227  0.0195
26796W        W42980  13.779   7.844  10.549  0.0523  0.0375 -0.3597
26797W        W42981  13.817  16.885   1.397  0.1892  0.0912 -0.2465
26798W        W42982  14.917   4.038  14.383  0.1015  0.2175  0.1846
26799W        W42983   7.068   7.175   4.579  0.2809 -0.1006  0.1391
26800W        W42984  11.110  16.316  13.865  0.1982  0.0371 -0.1069
26801W        W42985  16.254  10.507   4.953 -0.1219  0.2719 -0.1040
26802W        W42986   3.548  10.349  11.602 -0.1663  0.4049 -0.0667
26803W        W42987  16.941  14.924  12.739 -0.1496 -0.0927 -0.2214
26804W        W42988   3.793   3.080   0.292 -0.4595  0.0336  0.2742
26805W        W42989   4.178   7.357  12.719 -0.2361  0.2183 -0.1526
26806W        W42990   2.335  10.812   1.517 -0.0499 -0.0412  0.4596
26807W        W42991   3.175  16.507  11.243  0.2083 -0.0394 -0.0467
26808W        W42992  18.294  17.787  13.439  0.2352  0.2765  0.1293
26809W        W42993   0.534  14.717   3.825  0.2282 -0.3703  0.3224
26810W        W42994   8.249   3.592   2.305 -0.0958 -0.0396 -0.0711
26811W        W42995   4.313  18.592   1.826  0.1793 -0.1861  0.0770
26812W        W42996  12.396  13.978  11.112  0.3411  0.1223  0.0332
26813W        W42997   4.578   3.927   2.393 -0.2216 -0.4492 -0.4192
26814W        W42998  17.341   3.471  14.274 -0.1883  0.1512 -0.1067
26815W        W42999  14.852   2.759  13.547 -0.1456 -0.3373  0.1554
26816W        W43000   0.311  17.600  11.334 -0.1641 -0.1182  0.0569
26817W        W43001   5.894   3.227  13.089 -0.1394  0.2535  0.0942
26818W        W43002   6.435  18.244   2.800  0.0928  0.2157 -0.1132
26819W        W43003  10.994   4.760   1.999  0.3100  0.0315 -0.2629
26820W        W43004   6.101   5.345  11.848 -0.1028  0.0643  0.0189
26821W        W43005  11.032   9.583   4.091 -0.2843  0.1124  0.3298
26822W        W43006   2.653   5.233   2.367  0.0384 -0.3242  0.0638
26823W        W43007  18.861  15.635   3.205 -0.1857  0.0478  0.0417
26824W        W43008  18.151   6.697  12.825  0.0733 -0.0312 -0.1427
26825W        W43009  15.283   0.843   2.012  0.4507  0.5029  0.0994
26826W        W43010  19.323  18.833  14.840 -0.0206 -0.1756 -0.1154
26827W        W43011  12.790  19.115   2.374  0.0171  0.0262 -0.2601
26828W        W43012   3.538   9.184  12.651  0.0225  0.2309 -0.1546
26829W        W43013  13.612   0.699  11.980 -0.0446 -0.0043  0.3738
26830W        W43014   0.268   9.162  12.547 -0.0416  0.0395 -0.0601
26831W        W43015  15.119  19.019   2.184  0.1729 -0.0568 -0.0345
26832W        W43016   0.174  12.450   2.092  0.1382 -0.1242  0.1485
26833W        W43017  10.435   6.727   1.895 -0.2500  0.2370  0.1923
26834W        W43018   9.471   8.088   0.329  0.0481 -0.2951 -0.0850
26835W        W43019  12.356  12.863   2.961 -0.2508 -0.1647  0.0336
26836W        W43020   3.502  11.869   3.032  0.2035  0.3065 -0.4479
26837W        W43021   4.666  14.580   0.427 -0.2755  0.1814  0.1063
26838W        W43022   8.699   0.180   3.742 -0.2866  0.0365 -0.0865
26839W        W43023  12.367   5.378   0.513 -0.0505  0.0549 -0.4685
26840W        W43024   0.470   4.423   0.249  0.2859 -0.1047 -0.0860
26841W        W43025  18.664  13.729  14.172 -0.0686  0.1200  0.3603
26842W        W43026  11.113   0.649  12.639  0.0163  0.1344 -0.0983
26843W        W43027  17.194  12.351   0.981 -0.1494  0.2126 -0.3187
26844W        W43028   2.588   6.774  13.375  0.1810  0.0141 -0.1808
26845W        W43029  14.952  15.785  13.146  0.1188 -0.0377  0.0573
26846W        W43030  13.025   6.962   3.681  0.0026  0.0556 -0.1645
26847W        W43031   0.592   3.644   4.694  0.1365  0.3627  0.1613
26848W        W43032  11.302  15.702   3.808 -0.0418  0.1083  0.0443
26849W        W43033  15.531   1.117   0.349 -0.0247 -0.1981  0.4518
26850W        W43034  11.178  10.109  14.886 -0.2651  0.1451 -0.1008
26851W        W43035  10.056   8.019  14.124  0.0690  0.0027  0.3938
26852W        W43036   3.264  17.763  13.422 -0.0719 -0.1174  0.2022
26853W        W43037   3.887   0.871   1.061  0.1218 -0.2546 -0.0463
26854W        W43038  15.426   1.816  11.305 -0.0100  0.3422 -0.1885
26855W        W43039  17.912  16.707  12.189 -0.3447 -0.1720 -0.0240
26856W        W43040   5.638   3.354   4.669  0.1172 -0.4883 -0.0075
26857W        W43041  12.604  17.140  14.363  0.2438  0.2413 -0.0988
26858W        W43042  10.798  18.388   1.868 -0.2470 -0.2298  0.1489
26859W        W43043  10.002  16.154  11.050 -0.0509 -0.1632  0.2085
26860W        W43044   3.725   5.870   5.183  0.2259  0.0031  0.2949
26861W        W43045   3.206   2.633   0.755  0.4497 -0.0215  0.1355
26862W        W43046  11.524  12.881  13.183 -0.2054 -0.3234 -0.0163
26863W        W43047   5.786   2.286  13.357 -0.2941 -0.0401 -0.3286
26864W        W43048  18.748   4.271   0.760  0.0933  0.1104 -0.0488
26865W        W43049   9.792  15.102   5.376  0.3738  0.3373  0.0437
26866W        W43050   9.346  17.104   1.835  0.1512  0.1277  0.0716
26867W        W43051   5.190  13.894   6.192 -0.1690 -0.1103 -0.1022
26868W        W43052   2.849  16.914  11.618 -0.1386 -0.1799 -0.1993
26869W        W43053  10.114  13.735  11.809  0.1594 -0.0755  0.2083
26870W        W43054   5.426   6.629  13.369 -0.0656 -0.1150  0.0583
26871W        W43055  10.704   0.320   1.376  0.1169  0.1000  0.2055
26872W        W43056  18.258  12.915  14.313 -0.1142  0.0739  0.3236
26873W        W43057  14.382   8.179  10.244  0.1546  0.1150 -0.4594
26874W        W43058   8.499   0.235   1.110 -0.0461  0.0677  0.1251
26875W        W43059  15.186   0.176   2.258 -0.0380  0.0414  0.0232
26876W        W43060   8.203  18.553   4.412  0.1641 -0.0668 -0.0961
26877W        W43061   8.715   6.537   9.813  0.1463 -0.1804  0.0486
26878W        W43062  15.633   2.022  12.108  0.1142  0.2874  0.1268
26879W        W43063   1.296   7.902  13.918 -0.0202  0.2024 -0.0221
26880W        W43064   9.897  17.876  11.467  0.0295  0.0754  0.3154
26881W        W43065  17.599  14.392   0.102  0.1511  0.1141 -0.1338
26882W        W43066   0.367   1.111  14.523  0.1154  0.1040 -0.4908
26883W        W43067   2.523   2.523  11.978  0.0935  0.0753  0.0641
26884W        W43068  14.388  10.786   4.937 -0.0815  0.3836  0.0351
26885W        W43069   1.112   1.173  14.051 -0.3397  0.3503  0.0370
26886W        W43070  13.057  10.033   4.631 -0.0055 -0.2101 -0.3779
26887W        W43071   0.402   0.149   1.869  0.0737 -0.0386  0.1035
26888W        W43072   6.975  12.345   2.500 -0.4168  0.1178  0.2290
26889W        W43073  14.280   9.538   4.890  0.2640 -0.1260 -0.1591
26890W        W43074  11.989  16.870  14.317  0.1602  0.2432  0.1646
26891W        W43075  10.812  13.295  11.518 -0.2364  0.3220 -0.0263
26892W        W43076  10.702   9.731   3.723 -0.1625 -0.0545 -0.0413
26893W        W43077  13.073   1.343  12.187 -0.1996 -0.1194 -0.0678
26894W        W43078   1.135  16.650   4.222 -0.2410 -0.2948 -0.1759
26895W        W43079   2.717   8.117   2.577 -0.0987  0.0440  0.0598
26896W        W43080  16.397  15.564   1.495  0.1017 -0.2676 -0.3385
26897W        W43081   8.764  15.496  11.150 -0.5091  0.2737  0.1309
26898W        W43082   4.134  11.607   2.603 -0.0695  0.1012  0.1072
26899W        W43083  18.468   6.306   0.094  0.0557  0.2150 -0.0752
26900W        W43084   9.967  17.381   2.481  0.0061  0.0746 -0.1538
26901W        W43085   7.210   8.955   3.969  0.1868  0.1631 -0.3553
26902W        W43086   5.400   1.689  11.504  0.3182  0.0623  0.2570
26903W        W43087  12.226   8.195  10.537  0.2010  0.3409  0.3332
26904W        W43088  11.865   3.330   3.894 -0.0731  0.0441  0.0408
26905W        W43089  13.266   5.331  13.482 -0.4053 -0.0479  0.0355
26906W        W43090   0.690  10.402   3.663 -0.1992 -0.1221 -0.0939
26907W        W43091  14.047  14.637  10.164  0.2611 -0.1304  0.1068
26908W        W43092  12.110   5.880   9.246  0.3158 -0.1188 -0.1484
26909W        W43093   8.880  11.284   1.383 -0.2512  0.1102  0.1160
26910W        W43094  15.607   1.897   9.963  0.1476 -0.0947 -0.0930
26911W        W43095   8.441   5.089   9.709 -0.3051 -0.0109  0.4809
26912W        W43096  15.658   9.623   5.095 -0.0597 -0.2514  0.1485
26913W        W43097  17.336  10.648   5.419 -0.0231  0.0154 -0.1864
26914W        W43098   3.995  17.618  14.614 -0.0330 -0.0186  0.0988
26915W        W43099   1.181   4.208  14.268  0.0083  0.1697  0.1132
26916W        W43100   4.009   4.362   1.672  0.2555  0.0404 -0.0695
26917W        W43101  16.039   3.390   1.015  0.0795  0.2309 -0.0111
26918W        W43102   0.561  10.758  11.282  0.5156  0.1513 -0.3981
26919W        W43103   0.082  11.330   2.601 -0.2454 -0.0955 -0.1395
26920W        W43104   0.914   9.558   0.632 -0.3182 -0.0922 -0.0834
26921W        W43105  15.174  18.026  11.448  0.0301  0.2027  0.0544
26922W        W43106   6.324   1.610   0.594 -0.1400 -0.2090  0.0582
26923W        W43107   7.341   2.957   1.516  0.2482  0.0217 -0.3955
26924W        W43108   7.880  14.997  12.722  0.0617 -0.2622 -0.0696
26925W        W43109  15.883   6.643   2.091  0.2168  0.1296  0.1354
26926W        W43110   7.880  17.037   2.500 -0.1580 -0.2330 -0.0240
26927W        W43111  18.361  11.514  12.323 -0.0646  0.1490  0.1542
26928W        W43112   4.678  13.394  13.041  0.0780  0.1015  0.0505
26929W        W43113  13.140   9.615  10.879 -0.2388  0.3032  0.2718
26930W        W43114  10.078  13.798   3.715 -0.0331  0.0542 -0.2435
26931W        W43115   9.633  10.170  12.206 -0.1261  0.0142 -0.1954
26932W        W43116  16.078  18.234   2.526  0.0807 -0.2044  0.1267
26933W        W43117  15.606  11.878   3.786 -0.1125 -0.2676 -0.0988
26934W        W43118   9.061  18.369   2.818 -0.1876  0.2453 -0.0780
26935W        W43119  11.596   6.233  14.722  0.1078  0.0703 -0.0441
26936W        W43120  16.726  13.062  12.691  0.1247  0.2249 -0.1483
26937W        W43121  16.315  18.262  14.180  0.2464 -0.0567 -0.4004
26938W        W43122  15.941   4.124   2.202  0.0942 -0.2002  0.1294
26939W        W43123  10.756  14.457  12.524  0.1887 -0.0709  0.0973
26940W        W43124  13.610   0.719   0.926  0.1403  0.2941 -0.0311
26941W        W43125   4.339   0.763  13.672 -0.3202  0.2751 -0.4040
26942W        W43126   7.971   0.631  12.755 -0.1393  0.2536 -0.1246
26943W        W43127   8.190   0.680   4.794  0.0289 -0.1161 -0.1731
26944W        W43128   5.469  14.557   0.649  0.2858 -0.3878 -0.0454
26945W        W43129   0.007  17.802   3.069  0.3513 -0.0189 -0.0104
26946W        W43130  15.837  16.045   5.110  0.2566  0.1926  0.1538
26947W        W43131   2.378  13.812  11.250  0.0245  0.0613  0.1156
26948W        W43132  18.032   3.485   1.484  0.2248 -0.0636  0.3472
26949W        W43133  13.700   7.473   3.225 -0.1554  0.1932 -0.1921
26950W        W43134  13.871   9.098  11.177 -0.2673  0.2229  0.0380
26951W        W43135   4.340   7.001  14.326  0.0668  0.2069  0.1183
26952W        W43136  18.739  11.022   4.913 -0.3497  0.1271  0.1350
26953W        W43137   9.047   4.394  11.682 -0.0002 -0.0639  0.0786
26954W        W43138  15.728  11.452   1.900 -0.2143 -0.0575  0.4755
26955W        W43139  12.479  14.854   1.711 -0.1769  0.0071  0.0393
26956W        W43140   0.883  14.112  12.270  0.0382 -0.0753  0.1019
26957W        W43141  10.388   3.180  11.939  0.3655 -0.2230  0.1628
26958W        W43142   7.807   3.687  10.716  0.1971  0.3151  0.0889
26959W        W43143   1.184   9.339   2.369  0.3542  0.1657 -0.0761
26960W        W43144   1.458  12.382   0.243 -0.3049 -0.1731  0.1854
26961W        W43145   0.645   1.240  14.074 -0.1437 -0.1491 -0.1273
26962W        W43146  12.670  19.173   1.522  0.0703 -0.1731 -0.0122
26963W        W43147  15.188  15.010   2.665 -0.0241  0.0519  0.3351
26964W        W43148   0.681   0.503   1.699  0.2755 -0.1624 -0.0536
26965W        W43149  13.952  12.895  13.570 -0.1576 -0.1097 -0.2708
26966W        W43150  10.616   5.283   1.162 -0.1540 -0.1279 -0.0351
26967W        W43151  10.561   0.608  13.434 -0.0267 -0.2489 -0.2502
26968W        W43152   8.835  10.340   4.664  0.0980  0.0534  0.0076
26969W        W43153  17.868  10.054  14.897 -0.2323  0.0678 -0.2856
26970W        W43154  17.040   7.549   2.145  0.2201 -0.1094  0.0560
26971W        W43155  12.929  11.453  10.021 -0.1860 -0.0579 -0.0498
26972W        W43156   1.934  16.921   1.818 -0.1379 -0.1795  0.0259
26973W        W43157  16.782   4.154  12.842  0.1016  0.2861 -0.1284
26974W        W43158   7.156   3.282  11.218  0.2474  0.4595  0.0251
26975W        W43159  14.276  19.046   2.076  0.4656 -0.2067  0.1101
26976W        W43160   7.214  11.252   1.677  0.1119  0.0430  0.0309
26977W        W43161   5.811   0.584   4.811  0.0057 -0.4059 -0.0536
26978W        W43162  14.710   6.877  10.529  0.0624  0.0788  0.1487
26979W        W43163   9.215  10.191   0.181 -0.2403  0.1556 -0.0461
26980W        W43164   2.909   8.460   4.370 -0.0634  0.0767 -0.2717
26981W        W43165  17.642   6.940   4.281  0.1099 -0.2016 -0.2528
26982W        W43166  13.308   2.247   0.508  0.3037 -0.3010 -0.2983
26983W        W43167   1.940   5.562  12.799 -0.1406 -0.0096  0.1224
26984W        W43168  11.253   6.407   2.285 -0.1863 -0.0730  0.1915
26985W        W43169  18.075   4.407  11.148 -0.3603  0.1531 -0.2999
26986W        W43170  18.657  14.714   2.172  0.1187  0.2021 -0.0963
26987W        W43171  18.454   8.545  12.296 -0.4544 -0.2667  0.1080
26988W        W43172   5.801   4.375   4.085  0.0065 -0.1691 -0.0181
26989W        W43173  10.671  15.561  13.180  0.1967  0.0214 -0.0466
26990W        W43174   6.916   6.221   3.472 -0.0649 -0.3344 -0.0953
26991W        W43175   2.871  17.511   1.958 -0.3793 -0.1383 -0.1851
26992W        W43176  16.558  12.535  12.605  0.1389  0.3176  0.1059
26993W        W43177  14.417   0.007   1.662 -0.1503 -0.1710 -0.2886
26994W        W43178   1.927  13.237  13.702  0.1705  0.0891  0.0463
26995W        W43179   9.665   5.343   2.849  0.2119 -0.0639  0.3420
26996W        W43180   8.687  10.015   1.791  0.2698  0.2308 -0.0005
26997W        W43181  18.695  12.720   4.114  0.0818  0.0626  0.2783
26998W        W43182  13.330  10.682  11.674 -0.1865 -0.1482 -0.0429
26999W        W43183   6.166   0.485  10.613  0.0109 -0.0153  0.0144
27000W        W43184   3.767  17.914  10.573  0.1730  0.0611 -0.0014
27001W        W43185  11.716   2.827  13.349  0.1447 -0.0509  0.0077
27002W        W43186   8.209   4.622  12.303 -0.0452 -0.0101 -0.0384
27003W        W43187  11.095  12.603  12.176 -0.3371  0.0776  0.0045
27004W        W43188  13.478   2.509  13.237 -0.0784 -0.0747  0.3569
27005W        W43189   8.120   5.611   1.870 -0.2585  0.1876  0.0791
27006W        W43190   1.153  13.922   2.414 -0.2538  0.0071  0.0181
27007W        W43191   2.808   0.548   3.553  0.1524  0.0200  0.1333
27008W        W43192   8.799  10.212  11.000 -0.0558  0.1198  0.0434
27009W        W43193   6.802  15.862  10.398 -0.0818  0.0369  0.0411
27010W        W43194   9.855   3.537  14.001  0.1021  0.1986 -0.0636
27011W        W43195  17.995   0.166   2.080 -0.3596 -0.1799 -0.0707
27012W        W43196  17.015   5.650   2.079  0.0989  0.1139 -0.0293
27013W        W43197  12.073   1.620   1.582  0.0236 -0.0554  0.5175
27014W        W43198  17.897   6.365  12.536  0.0450 -0.0711  0.1537
27015W        W43199   3.794   7.966   1.561  0.3941  0.0517  0.1958
27016W        W43200   8.437  16.038   3.062 -0.0671 -0.2110  0.3499
27017W        W43201   1.196  13.698  13.247 -0.0497 -0.1879  0.1424
27018W        W43202  15.194  16.631  12.014 -0.1484  0.1439 -0.0310
27019W        W43203  10.763   1.093  13.349  0.1140 -0.0659 -0.0884
27020W        W43204  16.917  18.342  11.758  0.0468  0.2806  0.0494
27021W        W43205   9.926  18.927   0.388 -0.1685 -0.1446  0.1234
27022W        W43206   0.268   1.793   4.943  0.0994  0.0823 -0.1332
27023W        W43207   7.255   4.715   2.456  0.3898 -0.2808 -0.1750
27024W        W43208  17.959  11.303  14.019 -0.2434  0.1580 -0.0243
27025W        W43209   8.612  19.088  13.399  0.0922  0.3173 -0.0918
27026W        W43210   3.442   9.045   1.943  0.0626 -0.4960  0.1436
27027W        W43211   8.485  16.080   0.548 -0.1648 -0.2838  0.1907
27028W        W43212   6.503   1.038  13.804 -0.2816  0.1206  0.1624
27029W        W43213  13.667  16.518   4.401  0.0158 -0.2818 -0.1095
27030W        W43214  10.233  18.615  12.443  0.0347  0.4059  0.1918
27031W        W43215   7.065   2.125   0.580 -0.0866  0.1491  0.1601
27032W        W43216  18.292  11.079  12.074  0.0174 -0.0238  0.1628
27033W        W43217  16.126  16.411  14.171  0.4341 -0.1681  0.2312
27034W        W43218  13.523  13.806   3.981  0.2008 -0.3139 -0.0057
27035W        W43219  10.021  16.947   2.751  0.0368 -0.1079  0.0977
27036W        W43220   2.285   1.657  11.719 -0.0198 -0.0653  0.2406
27037W        W43221   9.460  15.898   1.385  0.1222 -0.2852 -0.1088
27038W        W43222   4.062  13.532   0.292 -0.3822 -0.0722  0.1158
27039W        W43223  11.224  11.377   3.441  0.0918 -0.3750  0.0359
27040W        W43224   1.506  17.605   3.493  0.1878  0.1347  0.1270
27041W        W43225  17.271  13.347  12.721  0.0969  0.2135  0.0075
27042W        W43226  10.931  10.973   0.033  0.0296  0.1547 -0.2332
27043W        W43227  11.865  11.163   4.280  0.1463 -0.0192  0.2249
27044W        W43228  16.046  12.905   4.724 -0.1671 -0.0262  0.1024
27045W        W43229  14.424   5.268  14.626 -0.2601 -0.0183  0.2324
27046W        W43230  11.074   1.660   0.641 -0.0151  0.3031  0.0197
27047W        W43231  13.412  19.219   3.104  0.0091  0.2933 -0.1174
27048W        W43232  18.782  18.334  13.948  0.0196 -0.0313 -0.0478
27049W        W43233  11.228   7.238  10.560  0.0402  0.2896  0.0506
27050W        W43234  18.411   7.891   4.444 -0.0362 -0.2236 -0.0802
27051W        W43235  11.316  17.327  10.389  0.2931  0.0998 -0.0224
27052W        W43236   0.876  16.447  12.510 -0.1351  0.1281  0.0783
27053W        W43237   4.162   3.437  14.928 -0.0894 -0.1205 -0.0288
27054W        W43238  14.329   2.765   2.124  0.1650  0.1480  0.1847
27055W        W43239   3.077  17.303  14.685 -0.2485  0.4018 -0.0050
27056W        W43240   2.270   6.874   5.541 -0.0463  0.2464  0.1294
27057W        W43241   1.511   8.176   5.925  0.4107  0.2635 -0.3637
27058W        W43242   2.008  15.889   1.107 -0.0834 -0.0277 -0.1565
27059W        W43243  16.495  17.461   9.037  0.1049  0.1536 -0.1992
27060W        W43244  18.594  14.788  11.717  0.1739 -0.3733 -0.0713
27061W        W43245  11.008   2.797   3.992  0.2469 -0.1618 -0.1384
27062W        W43246   4.151  18.021   4.442  0.0749 -0.2207  0.0250
27063W        W43247  14.010   0.818  10.486 -0.0889 -0.2256 -0.0533
27064W        W43248   0.535   2.509   1.337 -0.1296  0.0301 -0.3295
27065W        W43249   6.085  15.079   2.454 -0.1418  0.1484 -0.1298
27066W        W43250  16.937   0.265  12.836  0.2248  0.1914 -0.0209
27067W        W43251  13.498   1.218  10.593  0.1843 -0.1594  0.2995
27068W        W43252  17.512   0.290   2.833 -0.2357 -0.1189  0.1833
27069W        W43253   3.755  13.419   5.015 -0.1955  0.0280  0.1156
27070W        W43254   7.027   0.385   2.795  0.1176 -0.2572 -0.0765
27071W        W43255   8.839  16.642   9.792 -0.1248  0.1947 -0.0593
27072W        W43256  18.903   8.498  13.031 -0.2190  0.0961  0.0713
27073W        W43257   0.209  10.865   2.336 -0.1957  0.0280  0.0896
27074W        W43258  12.670  14.168  12.607 -0.0983  0.3153 -0.1995
27075W        W43259   3.668  15.488   4.956 -0.2011 -0.1004 -0.2181
27076W        W43260   5.262   2.495  13.424 -0.1293 -0.1516 -0.5238
27077W        W43261   8.034   1.707   1.024 -0.0777  0.0557  0.0140
27078W        W43262  15.499  18.082  13.471 -0.2033  0.1722  0.2709
27079W        W43263   6.115  11.385   1.209  0.1081  0.2706  0.1310
27080W        W43264   0.477  13.221   9.670  0.0204 -0.3496  0.3105
27081W        W43265   4.996   7.902  13.634 -0.1810 -0.0542 -0.1709
27082W        W43266   5.568  18.407   2.559  0.3668 -0.0342 -0.0184
27083W        W43267  16.576   1.712  10.118 -0.0249 -0.0770 -0.3258
27084W        W43268  18.681  16.738   2.860  0.0134  0.1589  0.3021
27085W        W43269  10.975  12.977   0.707  0.0567 -0.1554 -0.1649
27086W        W43270  18.512   3.461  12.954 -0.1069 -0.1122  0.1838
27087W        W43271   7.005   4.879  11.594  0.2948  0.0865 -0.0327
27088W        W43272  18.984  10.948   4.159  0.1049 -0.1595  0.1107
27089W        W43273   6.471   2.355  11.211 -0.1557 -0.1278 -0.5400
27090W        W43274  14.715  16.622  12.311  0.3270  0.0626  0.0158
27091W        W43275  14.033  10.568   0.156  0.0578 -0.0986  0.0618
27092W        W43276  13.375   0.914   3.772  0.0845  0.0905  0.4449
27093W        W43277  14.698  14.525   3.298 -0.2450 -0.0812 -0.2318
27094W        W43278  18.938   4.561  13.479 -0.1285 -0.2991  0.3064
27095W        W43279   5.978   2.349   2.003  0.0130  0.2997 -0.0747
27096W        W43280   3.658   5.276  12.222 -0.1714  0.0141 -0.0072
27097W        W43281   8.176  14.669  11.496 -0.3748 -0.0933 -0.1806
27098W        W43282   6.537  12.774   1.723 -0.1108 -0.0783 -0.2108
27099W        W43283   6.841  18.370  12.558 -0.0639  0.2281  0.3449
27100W        W43284   6.150   7.905  10.851  0.0290  0.3122  0.3015
27101W        W43285  18.308   4.086   0.930  0.2387 -0.0521 -0.2419
27102W        W43286   2.939   0.596  11.859  0.2230 -0.3286 -0.1007
27103W        W43287   5.388  13.807   3.177  0.1328  0.2411  0.1099
27104W        W43288  17.971   9.432   1.708  0.2983  0.0845 -0.1714
27105W        W43289   6.737  15.561  12.931 -0.2799  0.1970  0.0135
27106W        W43290  18.682   0.109   0.424  0.2557  0.1675 -0.0060
27107W        W43291   9.672  10.623   0.834  0.0782  0.2290  0.0526
27108W        W43292   9.761   8.969   4.188  0.0346 -0.0221  0.0449
27109W        W43293  10.251   6.025  14.736 -0.2202 -0.0529  0.2342
27110W        W43294   1.777   1.946  11.924  0.0164  0.0209 -0.1119
27111W        W43295  11.291  17.446  11.613 -0.0550 -0.0154  0.3289
27112W        W43296  18.823   9.122   4.225 -0.0985 -0.0901 -0.2725
27113W        W43297   7.118   2.925  14.917  0.1229 -0.1085  0.3495
27114W        W43298   4.636  17.791   0.315 -0.2007 -0.1977  0.1359
27115W        W43299   8.576  15.726  10.743  0.4483 -0.3817  0.0970
27116W        W43300   0.263  19.361  11.648 -0.1571  0.5158 -0.1828
27117W        W43301  15.966  12.430   1.779 -0.0784 -0.1146  0.2102
27118W        W43302  17.846  13.205   9.574  0.0761  0.2073  0.2323
27119W        W43303   1.433  16.326   0.439 -0.2388  0.1126  0.0879
27120W        W43304   8.577  13.126  13.087  0.2688  0.1673 -0.1061
27121W        W43305  17.985  10.617  12.033  0.2174  0.0559 -0.2420
27122W        W43306   6.755   7.656   2.229  0.0827  0.0924 -0.1755
27123W        W43307   9.853   0.913  10.178 -0.0481  0.1792 -0.0356
27124W        W43308   7.777  18.491   9.636  0.1404 -0.1098  0.1377
27125W        W43309   2.279  19.036   2.258 -0.2106  0.0743  0.0497
27126W        W43310   3.363  17.591  13.939  0.2491 -0.2164  0.0186
27127W        W43311  17.310  18.465  14.220 -0.1977  0.0405 -0.2000
27128W        W43312  16.838   6.179  10.905  0.1084  0.1293  0.0676
27129W        W43313   7.820   7.925  10.717 -0.2962  0.4361 -0.1684
27130W        W43314   3.905   0.768  13.933  0.1371 -0.2585 -0.0409
27131W        W43315  13.130  16.872   0.145  0.2700 -0.0518 -0.2885
27132W        W43316   9.399   2.842   2.173 -0.1851 -0.2101  0.0537
27133W        W43317  14.626  13.342   2.933  0.1054  0.0570 -0.2656
27134W        W43318  17.400  13.286   9.291  0.1807  0.0934 -0.1533
27135W        W43319  16.111   3.835  12.087  0.0561  0.0337  0.0994
27136W        W43320   3.659   8.621   5.541  0.1561 -0.0470 -0.2226
27137W        W43321  13.169  11.511  12.513  0.0399  0.2603  0.2226
27138W        W43322   4.165   2.446  14.623 -0.1012  0.1959  0.1866
27139W        W43323   6.904   3.750  11.287  0.3264 -0.0431  0.1761
27140W        W43324  13.439   7.727   1.775 -0.2481  0.3361  0.0335
27141W        W43325  16.011  15.602   2.126  0.2094  0.2205 -0.1247
27142W        W43326   4.248  18.170   0.475  0.0515  0.3586  0.0656
27143W        W43327   9.952  14.178  12.540 -0.1868  0.1569  0.1185
27144W        W43328  11.593  17.863   1.894  0.2522  0.2109  0.0301
27145W        W43329   7.549   9.942   3.738 -0.0385  0.3342  0.1119
27146W        W43330   9.970  15.497  13.551 -0.0092 -0.0179 -0.3078
27147W        W43331   8.617  18.031   2.597 -0.0516  0.0710  0.2273
27148W        W43332   3.931   8.051   4.211  0.0646 -0.0530  0.2760
27149W        W43333   6.005  10.494  14.616 -0.1673 -0.0867 -0.1961
27150W        W43334   8.734  14.142   2.186 -0.3190  0.4738  0.1938
27151W        W43335  19.272  10.550   0.561  0.0384  0.2136 -0.1765
27152W        W43336  13.440  12.355   3.424  0.0401  0.1871  0.0227
27153W        W43337  10.950  11.395   3.948 -0.0750  0.1278  0.0112
27154W        W43338   1.209  12.718  13.068 -0.1227  0.0411 -0.0238
27155W        W43339  15.820  17.626   0.572 -0.0175  0.1666  0.0950
27156W        W43340  13.756   0.384  11.492  0.0654  0.0846 -0.0829
27157W        W43341  16.421  14.230   2.309  0.2134  0.2433  0.1172
27158W        W43342  13.764  10.208  12.553 -0.0106  0.1658  0.0629
27159W        W43343  14.162  14.912   0.021  0.2011  0.1941 -0.1659
27160W        W43344   1.097   8.762   0.434  0.1454 -0.1690 -0.2209
27161W        W43345  19.277   4.915  14.754  0.1494  0.0559 -0.1604
27162W        W43346  10.055  13.140  12.498 -0.0521 -0.1314 -0.0752
27163W        W43347   8.504  14.753  11.946 -0.0804  0.1243  0.3430
27164W        W43348  15.526  14.910   4.561 -0.1544 -0.1111 -0.1596
27165W        W43349   1.023   8.419   3.494 -0.0113  0.0444  0.3112
27166W        W43350   9.950  19.033   4.374 -0.1984  0.1378 -0.2658
27167W        W43351  11.721   4.160   0.889 -0.1215 -0.0306  0.1527
27168W        W43352  13.511   0.190  13.821 -0.1283 -0.0311 -0.2546
27169W        W43353   5.354   7.865  11.282 -0.2313 -0.0546 -0.2628
27170W        W43354   1.461   8.619   3.391 -0.3096 -0.2222 -0.0037
27171W        W43355  18.244   6.489   5.404  0.0781  0.0304  0.1256
27172W        W43356  11.220  11.451  10.077  0.1796 -0.0872 -0.2428
27173W        W43357  16.432   7.226  14.507 -0.3053  0.0097 -0.1122
27174W        W43358  10.905  18.342  12.426 -0.0528 -0.2216  0.0566
27175W        W43359  15.980   2.551   2.193  0.0224 -0.0925 -0.2550
27176W        W43360  18.206  13.310  10.902 -0.0302  0.1475 -0.1198
27177W        W43361  13.057   5.579   2.959  0.0475 -0.2523 -0.0571
27178W        W43362   0.036   3.533  11.084 -0.0488  0.2650 -0.1095
27179W        W43363   2.776  17.986   1.219  0.3867  0.3046  0.0060
27180W        W43364   1.756  11.197   3.177 -0.0907 -0.3029 -0.2134
27181W        W43365   8.771   9.179  14.941  0.1402  0.1226  0.1853
27182W        W43366  11.693  18.566  10.709 -0.1347  0.3549 -0.1844
27183W        W43367   6.454   4.931   4.929 -0.2065  0.0410 -0.4078
27184W        W43368  17.352  12.051  12.053 -0.4914 -0.0253 -0.0075
27185W        W43369  15.873   8.691   3.380 -0.1247 -0.1094 -0.1328
27186W        W43370   2.787  16.786   1.259 -0.1768  0.2267 -0.2403
27187W        W43371  17.240   9.296  12.260 -0.0786 -0.1751  0.0066
27188W        W43372  16.503   2.418  11.212  0.1737  0.0042 -0.0731
27189W        W43373  16.135   3.272  13.347 -0.1689  0.2249 -0.0170
27190W        W43374   8.305  15.305  11.211 -0.0861 -0.0925 -0.2571
27191W        W43375   5.669   7.618  12.566  0.3532  0.1337 -0.0524
27192W        W43376   8.205   4.267   1.655 -0.2796 -0.2515 -0.1574
27193W        W43377  16.271   5.673  11.287  0.0027  0.1901  0.2081
27194W        W43378  10.224  18.150   0.920 -0.0016 -0.0498  0.0059
27195W        W43379   6.573  10.347   0.409  0.0957 -0.1516 -0.0144
27196W        W43380   8.046   6.310   0.120 -0.1414 -0.2036 -0.1881
27197W        W43381  15.686   0.184   4.354  0.0350 -0.0544 -0.2604
27198W        W43382  14.239   0.305  10.833  0.0966 -0.0474 -0.1909
27199W        W43383   6.746   1.182  10.483  0.1507  0.0444  0.1557
27200W        W43384   8.837   8.840   2.607  0.1646  0.1846  0.0429
27201W        W43385  17.411   1.709  14.061 -0.0084 -0.0941  0.0241
27202W        W43386  18.816   0.498   1.302  0.1034 -0.1694  0.2742
27203W        W43387  12.516   3.855  11.174  0.1636 -0.0741  0.1951
27204W        W43388   7.103  10.852   2.092  0.0800 -0.0747 -0.0199
27205W        W43389   8.741   3.980   3.778 -0.0988  0.3167 -0.2382
27206W        W43390  17.841   2.750   2.376 -0.0141 -0.0075  0.0966
27207W        W43391   8.557   8.059  10.829  0.2362  0.1167  0.1288
27208W        W43392  14.984  15.029   9.876  0.2932  0.2158 -0.0521
27209W        W43393   6.930   1.335  13.462 -0.1521 -0.2450 -0.2865
27210W        W43394  11.815   0.459   3.488 -0.0560 -0.2673  0.0267
27211W        W43395   1.800   4.184   3.579 -0.2083 -0.0649 -0.0598
27212W        W43396   0.082  14.286  13.118  0.0949  0.3433  0.0030
27213W        W43397  16.318   0.347  10.030  0.1297 -0.0657 -0.0526
27214W        W43398  13.120  17.066   3.724 -0.0917 -0.0626 -0.2722
27215W        W43399  11.760   7.897   1.444 -0.2768  0.1833 -0.0245
27216W        W43400   5.692  10.308   4.118  0.3955  0.1014  0.0487
27217W        W43401  16.376   2.384  13.824  0.0542 -0.0440  0.0495
27218W        W43402   0.442  12.564  12.273 -0.1987  0.0471 -0.0875
27219W        W43403   7.666   8.558   2.324 -0.0922 -0.1987  0.2857
27220W        W43404   2.919  16.103   0.528 -0.0088  0.3049 -0.5203
27221W        W43405   0.871  18.361   2.041 -0.0927  0.0883 -0.1725
27222W        W43406  14.634   4.691  12.283  0.1965 -0.1121 -0.0579
27223W        W43407  11.306  17.444   4.475 -0.1271 -0.0689 -0.0195
27224W        W43408   8.614   4.830   3.285 -0.0299 -0.2007  0.1203
27225W        W43409  15.785  16.074  10.832  0.0574  0.1229 -0.2001
27226W        W43410   4.943  14.986  13.360  0.0625 -0.1104  0.0655
27227W        W43411  19.381   8.242   3.746  0.0708 -0.1832  0.1381
27228W        W43412   3.049  11.215   4.594 -0.1989 -0.2721 -0.1073
27229W        W43413  15.420   6.881  12.156  0.2901  0.1656 -0.2165
27230W        W43414   5.174   3.789  11.864 -0.1779 -0.1106  0.2471
27231W        W43415  18.855  17.321   2.125 -0.2553  0.3252  0.2281
27232W        W43416  16.160   8.583  14.918  0.0819  0.0988  0.1900
27233W        W43417  12.732  11.509   4.717 -0.0357  0.3384 -0.2912
27234W        W43418  12.179  13.798   0.455  0.1737 -0.1814  0.2931
27235W        W43419   9.706  14.784   2.276  0.1785 -0.5331 -0.0091
27236W        W43420  10.122  12.608   2.271 -0.5708  0.0386  0.2016
27237W        W43421   3.212  15.620   0.583  0.0924  0.0615  0.3292
27238W        W43422   4.505  17.854   1.489  0.1710  0.2886  0.1535
27239W        W43423   0.176   8.944   3.291  0.0914  0.0702  0.1079
27240W        W43424   6.541  11.281   1.402  0.3722 -0.0717 -0.2153
27241W        W43425  11.046   7.879  11.211  0.0064  0.2225 -0.0369
27242W        W43426  16.403  14.408  10.971 -0.4420  0.0780  0.1169
27243W        W43427   8.390   4.080  10.838 -0.0079 -0.0813 -0.1731
27244W        W43428   3.005   8.898   1.587  0.0227 -0.1452  0.4497
27245W        W43429   2.689   5.858   5.331 -0.1669  0.1820 -0.0164
27246W        W43430   2.713   4.654  12.566 -0.0151 -0.0692 -0.0602
27247W        W43431   7.972   5.804  14.052 -0.2559 -0.0402 -0.1603
27248W        W43432  10.326  11.427   4.067  0.0492 -0.2256 -0.1096
27249W        W43433   6.983   3.479   0.092 -0.1633 -0.3439  0.0506
27250W        W43434   7.078  16.042  14.950  0.3741 -0.0718 -0.2520
27251W        W43435   3.345  12.368  14.084 -0.0868  0.1274  0.0205
27252W        W43436   4.098  12.881  12.075  0.2547  0.2660 -0.1012
27253W        W43437   1.150  18.283  11.106 -0.2038 -0.1457  0.2283
27254W        W43438   3.662   1.474  14.155  0.2156  0.1802 -0.0988
27255W        W43439  16.818  15.251   1.642  0.0177  0.1554 -0.1798
27256W        W43440  19.040   9.921  12.660 -0.1174  0.2600 -0.0030
27257W        W43441  12.161  16.373   3.506 -0.1524 -0.1240  0.1340
27258W        W43442  15.423  10.560   1.457  0.0912 -0.1585  0.2660
27259W        W43443  16.705  15.139  10.501 -0.1452  0.2645 -0.1136
27260W        W43444   3.250  16.056  10.162  0.2223  0.1705  0.0146
27261W        W43445   8.583   9.972   4.333  0.0519  0.0398  0.2684
27262W        W43446  12.715   3.630   2.734 -0.3151 -0.1484  0.2168
27263W        W43447   0.061  14.289  14.385 -0.0097  0.1403  0.1346
27264W        W43448  15.397  15.059  12.511 -0.0405 -0.2366  0.3010
27265W        W43449   1.343  15.479  12.761 -0.3146  0.0903 -0.0323
27266W        W43450   2.394   9.378   1.261 -0.1574 -0.1048 -0.0074
27267W        W43451  17.822  17.218  12.963 -0.2175  0.0786 -0.3962
27268W        W43452  17.978   0.689   4.069 -0.1163 -0.2327 -0.0770
27269W        W43453  19.016  19.237  14.675 -0.1236 -0.0422 -0.1159
27270W        W43454  10.036  13.983   2.653 -0.0716 -0.0219 -0.0943
27271W        W43455   2.489   9.263  13.518 -0.1527  0.0377 -0.0460
27272W        W43456   9.172   9.472  11.335 -0.0924  0.3226 -0.2808
27273W        W43457   4.942  17.273   1.941 -0.2858 -0.1391 -0.1974
27274W        W43458  18.272  14.472   0.857  0.0240 -0.2397  0.0117
27275W        W43459  11.527  17.022  13.411  0.1082 -0.1880 -0.1137
27276W        W43460  12.216  13.235  13.450  0.0068 -0.0132 -0.0628
27277W        W43461  18.540  17.661  10.980 -0.0835  0.1477  0.2249
27278W        W43462   6.000   9.491   3.283 -0.0238 -0.0902 -0.3454
27279W        W43463  13.528  12.266  13.333  0.0061  0.0264  0.0104
27280W        W43464  16.515  15.506  10.225 -0.2534 -0.0576  0.1818
27281W        W43465  11.660  12.433   3.093 -0.1469 -0.1580  0.3930
27282W        W43466  17.990   7.584  10.980 -0.2783  0.1225 -0.0810
27283W        W43467   5.430   4.590   5.276 -0.3942 -0.3216  0.4015
27284W        W43468  13.612   5.183  11.628  0.1780  0.0035  0.0383
27285W        W43469  15.734   6.247   4.511  0.0951  0.2382  0.1427
27286W        W43470   2.858  14.633   3.155 -0.0092  0.1253  0.1243
27287W        W43471   5.298  14.256  11.744 -0.2460  0.0272  0.3330
27288W        W43472  14.945   8.745  10.531  0.0196 -0.2019 -0.1104
27289W        W43473   1.404   2.287  11.937 -0.0025  0.1075  0.0306
27290W        W43474  17.581  15.842  12.472 -0.1781  0.3857  0.5816
27291W        W43475   9.985   3.010  13.505 -0.0972  0.1572 -0.0231
27292W        W43476   2.340   0.543   4.424 -0.0139 -0.0299  0.0665
27293W        W43477  17.137  17.926  10.858  0.0988  0.1340  0.0518
27294W        W43478  19.110   0.024   3.552 -0.2605  0.0068 -0.3196
27295W        W43479  17.348  18.028   0.783 -0.1369  0.2556  0.2729
27296W        W43480  14.188   6.313  11.653  0.0757  0.0958  0.1675
27297W        W43481   1.031  15.758  10.339 -0.0656 -0.1106 -0.1559
27298W        W43482  15.488   2.849   2.231 -0.2343  0.1745  0.0687
27299W        W43483  16.552   2.235  10.456 -0.1249  0.1978  0.1454
27300W        W43484  17.363   9.996   3.791 -0.2072 -0.3219 -0.2477
27301W        W43485   1.588   6.064  10.676  0.0585  0.3888  0.2522
27302W        W43486  17.625  18.632  10.335  0.3034 -0.0044  0.1347
27303W        W43487   8.994  13.311   4.806  0.1431 -0.0157 -0.0720
27304W        W43488  17.698  13.770  12.490 -0.0350  0.0194 -0.1784
27305W        W43489  16.270   5.210  10.553 -0.0501 -0.2158  0.0380
27306W        W43490   8.433   5.447   3.286 -0.0307 -0.0935 -0.0347
27307W        W43491  19.364  12.335  14.795 -0.0449 -0.0960  0.1055
27308W        W43492  18.482  11.058  13.910  0.1622  0.1726  0.2182
27309W        W43493   7.254  16.930  11.336  0.1936 -0.2076  0.0299
27310W        W43494   3.988   6.935   3.148 -0.1766  0.1575  0.3457
27311W        W43495  13.367  13.373  14.207 -0.0251  0.1255  0.0195
27312W        W43496   7.599  13.775  13.115  0.2040  0.0005  0.0272
27313W        W43497  11.345   6.656   9.477 -0.2568  0.0420 -0.1153
27314W        W43498  12.127   1.514   2.098 -0.0049 -0.1046  0.0680
27315W        W43499  18.680   7.801   9.833  0.1794 -0.1160 -0.2462
27316W        W43500   0.056   1.294   0.766 -0.4656  0.1777  0.0613
27317W        W43501  11.056  15.942  12.535 -0.1518  0.2085 -0.0518
27318W        W43502  14.550   8.933   0.528  0.2336 -0.2862  0.0095
27319W        W43503   3.466   2.737   4.054  0.1999  0.2833  0.1188
27320W        W43504  15.162   1.957   2.471 -0.2866 -0.0326  0.1158
27321W        W43505   2.794  18.124  13.351  0.1387 -0.3165  0.3071
27322W        W43506  16.862   7.164   2.384 -0.0039  0.2574 -0.0366
27323W        W43507   1.064   4.612   2.078 -0.1620 -0.3803 -0.1215
27324W        W43508   6.309   2.772  11.479 -0.0010 -0.0768 -0.0499
27325W        W43509  18.223  10.154   0.949 -0.1946  0.2803 -0.0198
27326W        W43510   9.652   9.094   0.462 -0.1787  0.0821 -0.1375
27327W        W43511   0.218   4.172   2.742  0.1137 -0.2175 -0.1947
27328W        W43512  14.032  18.167  11.213 -0.3294  0.1589 -0.0824
27329W        W43513   4.815  14.987  10.860  0.2865  0.0192 -0.0531
27330W        W43514   7.426  16.359  10.368 -0.0185 -0.4100 -0.0076
27331W        W43515   0.052  13.056   4.313 -0.3537 -0.2742 -0.1524
27332W        W43516   8.531   0.917   2.578  0.2386  0.2855  0.0157
27333W        W43517  15.471  10.434  12.714  0.0839 -0.0106  0.1236
27334W        W43518   1.038   1.631  11.142 -0.1670 -0.2175 -0.2868
27335W        W43519   5.341   1.010   2.833  0.0058 -0.1364 -0.1497
27336W        W43520  19.157   3.015  10.743 -0.0998 -0.2061 -0.2057
27337W        W43521  17.293   4.198   5.036  0.4667 -0.0487  0.4915
27338W        W43522  18.582  10.510  14.246 -0.0467 -0.3194  0.2869
27339W        W43523  16.742  14.619   1.183 -0.1658 -0.2871 -0.0302
27340W        W43524   4.431  18.101  13.798  0.0025 -0.2724  0.0466
27341W        W43525  14.401  18.111  10.808  0.1437  0.5008  0.0387
27342W        W43526   8.479  16.412   3.378  0.1348  0.0304  0.0038
27343W        W43527  18.598  16.962  13.546  0.1125 -0.0708 -0.1991
27344W        W43528   3.375   6.123   4.365 -0.2231  0.4431  0.2586
27345W        W43529  14.621   0.051   4.389  0.5618  0.1265  0.0133
27346W        W43530  18.627   3.046   3.895  0.1705  0.0374  0.0796
27347W        W43531  13.901   2.337  11.123 -0.1832 -0.0229 -0.0732
27348W        W43532   0.279   5.966  12.796 -0.2844 -0.1200 -0.1195
27349W        W43533  17.129  11.833  11.684  0.2981 -0.1970  0.1002
27350W        W43534  18.324  13.533  11.296 -0.2299 -0.2715 -0.1674
27351W        W43535  19.215  15.931   3.461 -0.2584 -0.1266 -0.2561
27352W        W43536   2.901   3.480   3.157 -0.0578  0.0057  0.0099
27353W        W43537   4.715   0.258   2.907  0.1238 -0.0281  0.0559
27354W        W43538   9.994   0.000   2.878  0.0002 -0.0701  0.1238
27355W        W43539   2.392   5.322   5.156 -0.0362  0.1235 -0.1852
27356W        W43540  10.979  14.380  13.730  0.0679  0.1827  0.5133
27357W        W43541  12.171   2.749   0.963 -0.0269 -0.1591 -0.2504
27358W        W43542  11.394   2.792  14.755  0.1663 -0.0487  0.3943
27359W        W43543   7.265  10.981   6.215 -0.2275 -0.0309  0.0801
27360W        W43544  11.183   9.498   2.159 -0.0105  0.1800 -0.3005
27361W        W43545   0.844   5.906   1.516 -0.1294  0.0793 -0.2472
27362W        W43546   3.982   1.164   0.165  0.0964  0.1003  0.2960
27363W        W43547   2.494  11.439   5.543 -0.1329 -0.2333  0.2471
27364W        W43548   6.160  19.138  12.580  0.1952 -0.0450  0.1276
27365W        W43549   4.393  18.402   4.675 -0.2423 -0.0764  0.0530
27366W        W43550   7.494   7.395   4.886 -0.1618  0.3230  0.0912
27367W        W43551   6.044   8.191  13.623  0.0998 -0.0982 -0.2999
27368W        W43552   8.219  16.494  14.738 -0.0173 -0.0734  0.2518
27369W        W43553   4.547   9.989   3.681  0.2233  0.2327 -0.3264
27370W        W43554   0.341  14.966   9.360  0.4565  0.1933  0.1369
27371W        W43555   7.995   5.017   4.390  0.5035  0.3338  0.0112
27372W        W43556  13.140  13.148   1.431 -0.2395 -0.1353  0.1700
27373W        W43557   9.966   9.705   1.092  0.2939 -0.1247  0.2358
27374W        W43558  16.178   8.923  12.427 -0.1115  0.1720 -0.0334
27375W        W43559   2.473   8.063  14.738  0.1125 -0.0463 -0.1596
27376W        W43560   2.800   3.826   2.024  0.0019  0.1902  0.0950
27377W        W43561   8.283  18.704  14.346 -0.0860  0.1696  0.2100
27378W        W43562   2.800   8.073  11.390 -0.1147 -0.0791 -0.0758
27379W        W43563   9.593  18.718  11.815  0.0037  0.2096  0.0465
27380W        W43564   3.810   4.332   3.955 -0.0023  0.1525  0.0885
27381W        W43565  19.107   9.439  12.747 -0.1048  0.1156 -0.2766
27382W        W43566   6.159   8.465   5.390 -0.2940 -0.3525 -0.1290
27383W        W43567   1.118  18.662   0.673  0.0678 -0.0297  0.1054
27384W        W43568  10.281   7.509  13.285  0.0719  0.1823  0.0655
27385W        W43569   9.147   4.832   1.020 -0.0686 -0.2281 -0.2623
27386W        W43570  17.443   8.385  13.956 -0.0548 -0.0971  0.0530
27387W        W43571   8.190  18.012  12.879  0.1140  0.0330 -0.1433
27388W        W43572  15.113  19.196   1.677 -0.0014  0.2720  0.3736
27389W        W43573  15.489  12.042  12.519  0.0625 -0.1947 -0.1494
27390W        W43574   9.072   4.619  10.781 -0.1518  0.1301  0.5013
27391W        W43575   0.770   7.361   1.539 -0.0600 -0.2767  0.4240
27392W        W43576   1.329  17.190  14.093  0.0301  0.3020  0.2143
27393W        W43577   7.167   9.780  11.142  0.2892 -0.0370  0.1103
27394W        W43578   5.019   3.560   1.793 -0.0269  0.0958 -0.0530
27395W        W43579  14.063   4.646   1.115  0.4559 -0.4069  0.0121
27396W        W43580   3.695   7.099   0.619  0.0523 -0.1248  0.3988
27397W        W43581  14.020   0.982   2.384 -0.7398  0.0630  0.2523
27398W        W43582   8.495   6.323  14.464  0.0969  0.1321 -0.3419
27399W        W43583   3.464  17.525  14.449 -0.1767 -0.2485 -0.0418
27400W        W43584  17.971   2.198  11.784  0.0563 -0.1227  0.2476
27401W        W43585  14.550   6.236   3.120  0.0637 -0.0673  0.2838
27402W        W43586  10.148  15.325   2.950 -0.0503  0.2189  0.1156
27403W        W43587   6.943   6.619   2.403 -0.1787  0.6134  0.1003
27404W        W43588   0.986   7.133  11.614  0.2560 -0.0958  0.0248
27405W        W43589  11.382  15.576   1.628 -0.0373  0.0814  0.0711
27406W        W43590  11.976  17.866   0.161 -0.0123  0.0169  0.1585
27407W        W43591   5.144  13.270  14.561  0.0007  0.0133 -0.2540
27408W        W43592  15.379  17.144  13.811 -0.1163 -0.0617 -0.1886
27409W        W43593  10.967  16.950   0.209  0.1233  0.0004 -0.2892
27410W        W43594   2.197  18.871  10.488 -0.1628 -0.1938  0.0915
27411W        W43595   0.459   5.896  13.636 -0.1224  0.0183 -0.3026
27412W        W43596   2.339   5.689   4.297  0.0750 -0.0809  0.0082
27413W        W43597   4.577  13.744   0.583 -0.2054 -0.3375 -0.1703
27414W        W43598   8.237  12.165   1.372  0.5664 -0.0788  0.0131
27415W        W43599   0.860  18.662   5.518  0.1093 -0.4119  0.1215
27416W        W43600   5.192   7.178   4.429 -0.2745  0.3800 -0.1314
27417W        W43601   8.157   9.635   3.670 -0.0731  0.2581 -0.0179
27418W        W43602   0.597   6.456  10.271  0.3867  0.0154  0.1172
27419W        W43603   2.226   3.429   0.038  0.0126 -0.1224 -0.0068
27420W        W43604   7.661   8.724  10.213  0.1985 -0.3012 -0.0732
27421W        W43605   1.333   3.363   2.086  0.0615 -0.0264 -0.0151
27422W        W43606   4.983   7.951  14.233  0.0277  0.0068  0.1477
27423W        W43607  11.465  15.229   2.573 -0.1313  0.2421 -0.2078
27424W        W43608   5.029   4.942   4.695 -0.0215  0.0285 -0.3084
27425W        W43609  11.582  10.884  10.120 -0.0900 -0.0734  0.0179
27426W        W43610   6.831   0.092  11.339  0.4455  0.0407  0.2318
27427W        W43611   6.396   3.406   4.096  0.2017  0.0532  0.1284
27428W        W43612  18.793   8.534  11.376 -0.1575  0.1701 -0.0631
27429W        W43613   3.314   1.668   2.121  0.1006  0.1786 -0.0068
27430W        W43614   7.335   6.600   2.729 -0.1667  0.1505 -0.0955
27431W        W43615   6.805   8.714   4.151  0.0741 -0.0878  0.1555
27432W        W43616  16.580  19.154   1.874  0.0653  0.4501 -0.0473
27433W        W43617   7.555   3.977   3.506  0.0535 -0.1148 -0.2543
27434W        W43618   2.659  14.974   4.064 -0.4193  0.2045  0.0667
27435W        W43619   2.526   9.488   3.322  0.3076 -0.0607  0.0652
27436W        W43620  12.100   8.712  13.821 -0.3559 -0.1597 -0.0655
27437W        W43621  12.441  10.054  12.332  0.2154 -0.0908  0.1352
27438W        W43622   8.986   5.837  14.019 -0.1294  0.0093 -0.0175
27439W        W43623   3.733   7.228   3.515  0.0080  0.0531  0.1748
27440W        W43624  10.847   1.301   0.932 -0.2236  0.1199  0.0239
27441W        W43625   0.447   7.980   2.775  0.0282  0.2270  0.1736
27442W        W43626  13.379   7.160  14.513  0.0122  0.0461  0.1224
27443W        W43627   6.742  17.444   3.844  0.0311 -0.1141  0.2478
27444W        W43628  13.731   2.640  14.602  0.0741  0.2591 -0.0379
27445W        W43629  11.706   0.820  14.832  0.3313 -0.0050 -0.1720
27446W        W43630   2.779  17.563   4.879 -0.4168  0.0595  0.1403
27447W        W43631   0.191  17.629  10.067  0.3845 -0.2287  0.0582
27448W        W43632   4.964   2.189  14.027  0.1003 -0.3415  0.3883
27449W        W43633  11.464   7.013  14.135 -0.1815 -0.0033  0.1020
27450W        W43634   4.598  15.079  14.174 -0.2023 -0.1702  0.0626
27451W        W43635   6.650  15.795   1.065  0.2086 -0.1825 -0.1123
27452W        W43636   0.735   1.688   4.826 -0.0529 -0.2150  0.2832
27453W        W43637   3.485   7.159  14.200 -0.0701 -0.0480 -0.3021
27454W        W43638  14.595   3.887  12.292 -0.0703 -0.0876  0.0864
27455W        W43639  12.210   4.373  14.380  0.0517  0.0430 -0.1406
27456W        W43640  10.485  18.373   3.751 -0.1649  0.1444  0.0356
27457W        W43641   8.808   7.384   0.131 -0.1161  0.1209  0.3435
27458W        W43642  12.519   0.201   2.820  0.0061 -0.2174 -0.3033
27459W        W43643   8.304   1.189  11.847 -0.0467  0.2343  0.1509
27460W        W43644   3.853  13.027  13.020 -0.1465 -0.2297  0.1721
27461W        W43645   8.274  18.960   2.684  0.1838  0.2495 -0.0079
27462W        W43646   9.046   2.569  10.740  0.1055  0.0288  0.0072
27463W        W43647   1.412   0.684  12.135  0.2495  0.0828  0.1326
27464W        W43648  10.506  10.330   1.523 -0.0208  0.4278 -0.0381
27465W        W43649   8.352  17.526  14.630 -0.0756 -0.2697  0.4102
27466W        W43650  15.415   6.151  10.371  0.0726  0.1803 -0.2917
27467W        W43651  16.725   3.398   0.625  0.2659 -0.0657 -0.0912
27468W        W43652   2.702   6.686   5.991  0.1460  0.0669 -0.1480
27469W        W43653  10.616   5.812   1.730 -0.3085  0.2271  0.2635
27470W        W43654  11.596   7.532  10.622  0.0648  0.3835 -0.0933
27471W        W43655   5.240   2.695   0.927 -0.0466  0.0468  0.2140
27472W        W43656   0.714   8.664   3.845 -0.2614 -0.3923 -0.1389
27473W        W43657  11.914   3.212   4.338  0.0227  0.3873 -0.1972
27474W        W43658  14.727   7.722   4.570 -0.0228  0.0083 -0.1113
27475W        W43659   0.659   7.791  12.655 -0.0274 -0.0893 -0.1868
27476W        W43660   7.356  11.063  10.853 -0.3215  0.0633 -0.1281
27477W        W43661  14.043   6.448   3.614  0.2223 -0.1702 -0.0040
27478W        W43662  13.845  15.223   2.786  0.1059 -0.0724 -0.0015
27479W        W43663   3.359   4.095  12.201  0.0491 -0.0376 -0.2776
27480W        W43664   9.779   5.228   4.316 -0.1099  0.3099 -0.3271
27481W        W43665   0.441   4.115   1.965  0.1740  0.3239  0.0072
27482W        W43666  15.600   8.966   5.125  0.1054  0.0778 -0.2798
27483W        W43667  15.199  13.893   2.680  0.2015 -0.0806 -0.1355
27484W        W43668  18.741   4.353  12.819  0.0208 -0.0983  0.1686
27485W        W43669   0.070   0.513  10.866 -0.1524 -0.0946  0.1778
27486W        W43670  17.782   9.512   2.296  0.0176 -0.4762 -0.2605
27487W        W43671   3.041  17.051   0.290  0.0371  0.1631 -0.0322
27488W        W43672  12.814  12.177  11.401  0.1614  0.2440  0.0376
27489W        W43673  12.832  13.234   3.241 -0.2343  0.0892  0.2309
27490W        W43674   3.569   1.055   4.200 -0.4174 -0.0093 -0.2747
27491W        W43675  16.391   0.938   4.214  0.3535  0.3051 -0.0799
27492W        W43676  13.440   3.979   2.177 -0.1657  0.1337 -0.3062
27493W        W43677  14.003   0.876  11.438 -0.1065  0.0254 -0.0803
27494W        W43678  10.421   9.529  13.766 -0.1585  0.0249 -0.0417
27495W        W43679   7.237   6.503  11.053 -0.0142 -0.0138  0.1729
27496W        W43680   2.290   9.325   4.445 -0.1861 -0.4908 -0.4204
27497W        W43681  18.149  13.699  14.547  0.2579  0.2509  0.1809
27498W        W43682  18.060   1.551  10.075  0.1837 -0.0224 -0.0829
27499W        W43683   6.094  16.766   4.241 -0.1029 -0.0162 -0.3369
27500W        W43684  17.817  16.029  10.365  0.2218 -0.1560  0.0571
27501W        W43685  15.869  11.055  10.165 -0.1357  0.2435  0.3261
27502W        W43686  14.011  12.470   0.016  0.0903 -0.0927  0.1659
27503W        W43687  18.417   4.273   0.360 -0.1372  0.0452 -0.2978
27504W        W43688  11.611   7.159  10.157 -0.2582 -0.0902  0.3638
27505W        W43689   0.083   6.298   1.245  0.2695 -0.2903  0.1066
27506W        W43690   4.799   5.012  14.145 -0.1841  0.0379 -0.0486
27507W        W43691   9.782   9.380   2.538 -0.1370 -0.1860 -0.1377
27508W        W43692   6.119  13.518   2.456 -0.1005  0.1212 -0.0603
27509W        W43693   4.224  16.812  14.403 -0.1506 -0.2835 -0.0388
27510W        W43694  17.926  12.826   4.229  0.3915 -0.1562  0.0991
27511W        W43695   8.301  16.213   1.350  0.0394  0.1081  0.0632
27512W        W43696   3.034   6.360   4.739 -0.0058  0.0446  0.0725
27513W        W43697   9.594   4.595  14.328  0.0057 -0.1934  0.2076
27514W        W43698   8.255   0.873   3.653  0.0578  0.0167  0.2406
27515W        W43699   5.170  10.045   5.514  0.1689 -0.0430  0.0705
27516W        W43700  19.000   3.189  13.807 -0.0578  0.2521 -0.1667
27517W        W43701   8.212  11.525   4.710 -0.1691  0.3189  0.0056
27518W        W43702   7.968   7.587  13.412  0.1137 -0.0380 -0.0625
27519W        W43703  12.802   6.024   2.820  0.3005  0.0776  0.0662
27520W        W43704  11.335  18.426   1.907 -0.1588 -0.2785 -0.2579
27521W        W43705   0.983   5.571   1.904  0.0348  0.1762 -0.1758
27522W        W43706  11.649   3.962   3.158  0.1090 -0.2255 -0.0947
27523W        W43707   5.155   8.895   1.678 -0.0072 -0.1706 -0.1582
27524W        W43708  15.325  11.528   1.232 -0.0136  0.1892 -0.3840
27525W        W43709  17.047   1.975   9.851  0.2242 -0.5369  0.2038
27526W        W43710   6.471  13.192  11.191 -0.0874  0.2561  0.0566
27527W        W43711   1.287   9.253   1.870  0.0811 -0.2470 -0.0714
27528W        W43712   5.143  12.467  14.177 -0.3738  0.2611 -0.1992
27529W        W43713  18.357   8.895  14.410 -0.0203 -0.1706  0.1259
27530W        W43714  16.728   3.665  12.078 -0.0427 -0.3841 -0.0541
27531W        W43715   5.467  11.978  11.342 -0.0861  0.2029 -0.2254
27532W        W43716  15.798   2.630   4.851 -0.4073  0.0608 -0.2023
27533W        W43717  12.028  10.661   4.308 -0.0391 -0.2655 -0.0717
27534W        W43718  10.993  16.122   0.544 -0.0555  0.1177  0.1740
27535W        W43719  18.183  10.410   3.331 -0.1570 -0.0212 -0.4174
27536W        W43720   4.246   0.300  14.733 -0.1437  0.0638  0.4253
27537W        W43721   0.389   7.040  13.111 -0.0307 -0.1417  0.2567
27538W        W43722  16.559  15.128   3.267 -0.2200 -0.3760 -0.1858
27539W        W43723   5.077   0.650   0.003 -0.1806 -0.1350 -0.3043
27540W        W43724  14.829  13.049   1.427  0.0319 -0.1648 -0.1999
27541W        W43725  14.654   2.042  10.067 -0.0029  0.0341  0.0701
27542W        W43726   0.634  15.476   5.138  0.1122 -0.0897  0.1761
27543W        W43727   4.352   0.621  11.645  0.0656  0.1210 -0.3358
27544W        W43728  14.795  11.686  14.917  0.2227  0.1175 -0.0627
27545W        W43729  14.901  11.658   4.162  0.2587  0.1241  0.1733
27546W        W43730  16.856  14.998  14.245 -0.1849  0.0135 -0.4323
27547W        W43731  10.877  10.005  12.951 -0.1914  0.3979  0.0109
27548W        W43732   3.621  16.726   1.159  0.1932  0.2804 -0.0660
27549W        W43733   8.471  12.727   0.240  0.0637 -0.3175 -0.1015
27550W        W43734  19.177  13.275  12.044  0.0666 -0.1422  0.1160
27551W        W43735   3.363  14.418  10.855 -0.0735  0.3127 -0.0729
27552W        W43736   4.084  14.809  12.980  0.0210 -0.0666 -0.1259
27553W        W43737  14.285  13.628   2.249  0.1821 -0.3760  0.0277
27554W        W43738   1.256  15.083   2.872  0.2212  0.2791 -0.0361
27555W        W43739   5.872  11.569   2.421  0.1806  0.1309  0.1942
27556W        W43740   8.932  12.533  14.204  0.3445 -0.0224  0.0273
27557W        W43741  15.823   7.846   4.317  0.4791  0.0027  0.2476
27558W        W43742   1.451  10.809  11.456 -0.2587 -0.0216 -0.1374
27559W        W43743   0.420   6.456  13.745 -0.1348  0.0284  0.1511
27560W        W43744   0.529  12.977  11.919  0.1566  0.1489 -0.2154
27561W        W43745   6.609  10.000  10.445  0.2146  0.0629 -0.1927
27562W        W43746  14.067  18.569  13.733 -0.2728 -0.3142  0.1070
27563W        W43747   7.825  10.297  13.729  0.2418 -0.0461 -0.0593
27564W        W43748  15.629   2.967  10.682  0.2368  0.0379  0.1954
27565W        W43749   5.332   4.702  14.721  0.1704 -0.2225 -0.1092
27566W        W43750   8.133   7.828   0.453  0.0028 -0.2010  0.0067
27567W        W43751   4.387   5.624   2.059  0.0109  0.0279 -0.0188
27568W        W43752  12.698   3.404  11.385 -0.2535 -0.2397  0.2837
27569W        W43753   8.889   2.440  11.218 -0.0992  0.0789 -0.1820
27570W        W43754  17.775  19.287   9.879  0.0310  0.1742  0.1154
27571W        W43755  15.274   8.379   3.700 -0.1051 -0.0529  0.0381
27572W        W43756   2.343  10.739  11.711 -0.1925 -0.0613 -0.0232
27573W        W43757  15.538   3.420   4.569 -0.0317  0.1455 -0.1950
27574W        W43758   8.186  16.976  11.933  0.1894  0.1588 -0.2228
27575W        W43759   1.888  15.311  14.579 -0.0450 -0.2380  0.1095
27576W        W43760  14.840   4.297   0.755 -0.1921  0.0827 -0.0358
27577W        W43761  14.638  18.192  11.260 -0.0732  0.0897 -0.0780
27578W        W43762   3.319   4.739  12.776  0.1341 -0.2254  0.0282
27579W        W43763  18.668  16.870   2.229 -0.1664  0.1687 -0.0787
27580W        W43764   6.566  12.215  14.791  0.0174 -0.3983 -0.0045
27581W        W43765  18.489   3.223   0.653  0.4958 -0.0250  0.3173
27582W        W43766  16.930   3.164   0.988  0.1778  0.1471 -0.0874
27583W        W43767  11.046   8.474  12.890  0.1340  0.0120 -0.4297
27584W        W43768   1.808  16.014   2.466  0.2408 -0.0110  0.2001
27585W        W43769  13.227   3.482  10.617 -0.3701  0.1365 -0.0151
27586W        W43770  11.781  13.102  13.651  0.0053  0.1936  0.0740
27587W        W43771   7.778  13.208   6.087  0.0946  0.4267  0.0091
27588W        W43772  11.894  12.884   2.593  0.0755  0.5528  0.0425
27589W        W43773  17.316   3.350   0.074  0.1163  0.3229 -0.1232
27590W        W43774  10.719   4.739  11.155  0.1296  0.2448 -0.0133
27591W        W43775   0.581   0.028   0.674 -0.0916  0.2693  0.0543
27592W        W43776   2.159   6.465  12.394  0.1853  0.1211 -0.1941
27593W        W43777  17.018   7.428  14.094 -0.0691 -0.2128 -0.1640
27594W        W43778   3.528   3.055   3.707  0.1153  0.0282 -0.0366
27595W        W43779  16.004   9.564  12.276 -0.1881  0.1778  0.2833
27596W        W43780   6.822   3.151   0.967 -0.0087  0.4698  0.0037
27597W        W43781   8.526  14.020  11.943  0.2125 -0.0641 -0.0963
27598W        W43782  16.310  10.690   0.339  0.0398  0.0322 -0.2657
27599W        W43783  15.884  11.233   4.639 -0.0700 -0.0871  0.1358
27600W        W43784  10.400  14.709   4.218  0.0478  0.3716  0.0519
27601W        W43785   4.442  15.863   2.858  0.0985 -0.0471  0.1561
27602W        W43786  19.227  18.355  14.949 -0.1644  0.1280  0.0375
27603W        W43787   0.324  12.096   1.175  0.0122  0.1891 -0.1879
27604W        W43788   2.297  15.876  12.258  0.1176  0.1127 -0.0376
27605W        W43789   9.415  10.612  10.537  0.2218  0.1316 -0.2104
27606W        W43790  12.042  17.645  13.227  0.2296 -0.1318  0.2454
27607W        W43791   4.113  17.559   3.567 -0.1947 -0.0057  0.0559
27608W        W43792  13.345  16.824   1.608 -0.0687 -0.0895  0.1125
27609W        W43793   4.704   6.565   2.554 -0.0597  0.1402 -0.3421
27610W        W43794  15.767  17.156  10.443 -0.0343 -0.3073  0.2546
27611W        W43795   8.595   9.395  10.904  0.3488  0.0133 -0.2992
27612W        W43796   2.525   4.191  13.648 -0.1436 -0.1263 -0.3164
27613W        W43797  10.724   8.545   3.124 -0.3871  0.1497  0.1796
27614W        W43798   6.744  15.681   3.802 -0.0657 -0.0850 -0.4292
27615W        W43799  13.141   4.071   4.602  0.1348 -0.1161 -0.0091
27616W        W43800  11.029   6.140   1.889  0.2805  0.3216 -0.0618
27617W        W43801   1.822   1.810   0.556 -0.1168  0.0217 -0.0736
27618W        W43802   8.714   0.439  10.665  0.3089 -0.1094 -0.1070
27619W        W43803  14.705  17.802  11.597 -0.0244  0.0136  0.0568
27620W        W43804  14.281  14.441   4.149 -0.1707  0.1340  0.2696
27621W        W43805   0.252   0.919   1.061 -0.3572 -0.0006  0.1961
27622W        W43806   5.137   6.801   2.635 -0.1121 -0.2107  0.1413
27623W        W43807  10.544   8.429   2.648 -0.1676 -0.1382 -0.1191
27624W        W43808   4.077  17.656   1.612  0.0909 -0.0270 -0.3184
27625W        W43809  17.547  18.719   2.836  0.2729 -0.0583  0.1506
27626W        W43810   2.542  13.158   0.783 -0.0576 -0.1078  0.0973
27627W        W43811  11.202   3.865   5.526  0.4061 -0.0637  0.0773
27628W        W43812  11.916   9.484   9.249  0.1117 -0.0068 -0.1539
27629W        W43813   1.594  13.361   1.134 -0.3664  0.3613 -0.1003
27630W        W43814  15.044   4.090   1.568 -0.2036 -0.0347 -0.2308
27631W        W43815   1.229  12.341  11.518 -0.0402  0.1006 -0.0812
27632W        W43816  13.505   7.964  12.286 -0.0593 -0.1548  0.0090
27633W        W43817   0.599   4.202  12.785 -0.4475 -0.1370  0.0935
27634W        W43818   2.188  19.015   4.321 -0.0600  0.0465  0.1672
27635W        W43819   0.022   9.905   3.060  0.0823  0.2582  0.0775
27636W        W43820   8.272   9.035  13.018  0.2094  0.1142 -0.0185
27637W        W43821   9.845   4.153   3.209 -0.2206 -0.1775 -0.2627
27638W        W43822   8.898   6.669  12.868 -0.0933  0.2119  0.0902
27639W        W43823  13.904  14.034  14.947 -0.0769 -0.1152 -0.0145
27640W        W43824   4.289   1.221   2.559 -0.1154 -0.0726  0.2732
27641W        W43825   5.833   4.077   2.030 -0.0280 -0.0525  0.0301
27642W        W43826  11.357  19.052   3.689 -0.2680  0.1336 -0.0264
27643W        W43827  18.236  15.449   4.526 -0.0890  0.1834 -0.0688
27644W        W43828   2.911  10.832   4.268  0.1785  0.2038 -0.0703
27645W        W43829   7.444  19.389   3.870  0.0701 -0.0966 -0.0406
27646W        W43830  19.216  15.077   4.575 -0.1776  0.2596  0.0889
27647W        W43831   4.949   7.301   4.037 -0.0263 -0.0257 -0.2790
27648W        W43832   8.072   0.978  13.490  0.0598  0.1583 -0.1343
27649W        W43833  15.109   5.911  11.988 -0.0746  0.1135  0.1188
27650W        W43834   5.774   2.797   3.369 -0.1496  0.0971 -0.2060
27651W        W43835   7.926   3.989   0.171  0.0156  0.1262 -0.1810
27652W        W43836   9.494  17.716  10.886 -0.0800 -0.0015  0.1068
27653W        W43837  14.001  16.781  12.883 -0.1042  0.0882 -0.0700
27654W        W43838   3.154  10.871  13.914 -0.2380 -0.2437 -0.1317
27655W        W43839   5.843  14.706   5.794 -0.3035 -0.1289 -0.0417
27656W        W43840  19.002  13.152  12.516 -0.0756  0.0690  0.1310
27657W        W43841   4.854  16.840  12.361 -0.1230 -0.4989 -0.3294
27658W        W43842  10.237  11.575   1.848  0.1753  0.1100  0.0705
27659W        W43843   8.368   7.605  10.976  0.0082 -0.3544 -0.0504
27660W        W43844  11.343  11.951   0.184 -0.3072  0.0843 -0.0519
27661W        W43845  18.999   5.407   2.510 -0.3479  0.3344  0.0706
27662W        W43846  15.783   8.948   3.798  0.1401  0.0815 -0.2480
27663W        W43847   4.338   3.291   4.819  0.1799 -0.0505  0.0993
27664W        W43848  18.149   1.399  12.305  0.1094  0.1452  0.1753
27665W        W43849  11.127   9.434   4.527 -0.0971  0.4974  0.0359
27666W        W43850  11.982   0.094  11.550 -0.0414 -0.2130  0.3472
27667W        W43851  15.616  11.590   0.388  0.1261  0.1360  0.0232
27668W        W43852  12.428  14.802   3.015 -0.0516  0.1479  0.0003
27669W        W43853  10.102  14.311   4.475  0.3487 -0.0225 -0.0201
27670W        W43854  18.132  10.380   0.151  0.1618  0.0593  0.3135
27671W        W43855   6.052   4.896  11.778 -0.1351 -0.1715  0.4372
27672W        W43856   4.343   6.813  12.455  0.1711  0.2081  0.2724
27673W        W43857  10.929  15.962   2.932 -0.2059 -0.0603 -0.0268
27674W        W43858  16.072  14.088   4.326  0.3278  0.2217 -0.2558
27675W        W43859   6.024  14.649   1.553  0.1688  0.0694 -0.2052
27676W        W43860  19.380   6.524   5.773  0.3271 -0.1906 -0.1660
27677W        W43861  12.121  18.585  11.005 -0.3792  0.1491 -0.2959
27678W        W43862  14.376   6.948   3.074  0.0115  0.0052 -0.1603
27679W        W43863  17.608  18.942  12.163  0.1370  0.0392  0.1031
27680W        W43864   9.939  16.243   3.338 -0.0549 -0.0455  0.1958
27681W        W43865   3.320   5.997   2.478  0.0132  0.0431 -0.3160
27682W        W43866   1.664  14.177  14.592  0.1633  0.0185 -0.0050
27683W        W43867   9.132   7.124   0.951  0.1622  0.1795 -0.1625
27684W        W43868  12.238  19.117  13.885  0.0739  0.1828 -0.0140
27685W        W43869  12.087  14.850  12.558 -0.0081  0.1581  0.1639
27686W        W43870  17.480  11.892  14.453  0.3474 -0.1376 -0.3516
27687W        W43871  16.111   4.886   3.005  0.2110 -0.0302 -0.3330
27688W        W43872  11.398   0.214  13.559 -0.0356  0.1119  0.1053
27689W        W43873   8.840   9.279  13.905 -0.0098  0.0790 -0.0413
27690W        W43874  17.951   9.287   0.535  0.0211 -0.7298 -0.3175
27691W        W43875   7.870   9.731   3.003  0.1086  0.1329  0.0394
27692W        W43876  12.855   7.344  11.067 -0.1850 -0.2901  0.0616
27693W        W43877  11.168   8.758  14.391  0.4411  0.0370 -0.0946
27694W        W43878  13.837  18.381   2.152 -0.0079  0.2582 -0.1933
27695W        W43879   9.388  18.571  11.386  0.0833  0.0159  0.1855
27696W        W43880  13.204  11.830  11.489  0.1176 -0.0760  0.0349
27697W        W43881  10.069   2.877  11.474  0.0711 -0.0999 -0.0429
27698W        W43882   2.224   6.475   2.906 -0.1393 -0.1792 -0.1690
27699W        W43883  18.197   7.937   2.911 -0.0880 -0.0133  0.3611
27700W        W43884   9.432  14.486  13.998  0.0690 -0.2643 -0.0799
27701W        W43885   3.194   0.567  11.074 -0.2253  0.0969 -0.0637
27702W        W43886  16.609   2.795   2.840 -0.3219  0.1236 -0.0162
27703W        W43887   0.396   6.157   2.418  0.2749 -0.0856  0.1724
27704W        W43888  16.622   5.553   4.340  0.1494  0.0529 -0.1937
27705W        W43889   5.895   5.411   1.297 -0.1370 -0.0462 -0.0134
27706W        W43890   3.330   7.451   0.597  0.2666 -0.1523  0.1004
27707W        W43891   5.950  17.928   4.522  0.0641  0.2364 -0.1763
27708W        W43892   2.308  19.173  12.609  0.1818  0.3803 -0.3946
27709W        W43893   9.054   8.190  13.862 -0.0879 -0.3011  0.1602
27710W        W43894  13.321  12.702  14.745  0.2690 -0.0226  0.1013
27711W        W43895  19.155   0.623  10.412  0.1650 -0.0629 -0.1236
27712W        W43896   7.036   5.051   1.622  0.0405  0.2721  0.0514
27713W        W43897   5.899   0.016   4.718  0.0196 -0.0916 -0.1511
27714W        W43898  12.587   5.393  10.061 -0.1229 -0.0719  0.0456
27715W        W43899   5.729   4.991   3.190 -0.0717  0.1597  0.1568
27716W        W43900  16.298   3.741   4.141 -0.0843 -0.2202 -0.0100
27717W        W43901  12.593  11.257  13.041 -0.2267  0.1206  0.0379
27718W        W43902   0.679  13.363   0.434 -0.1493 -0.3009  0.0049
27719W        W43903   6.929  13.494  10.522  0.0581  0.1509 -0.4136
27720W        W43904   1.347  15.415  13.278 -0.1009  0.1660 -0.0253
27721W        W43905   0.777   1.173   4.507  0.2268 -0.0467  0.0860
27722W        W43906   1.359  10.309   0.270 -0.1163 -0.2712 -0.1763
27723W        W43907  12.072  12.440   1.129  0.1889 -0.1299 -0.1386
27724W        W43908  15.421   0.044   3.899 -0.0017 -0.1257  0.2292
27725W        W43909   0.870  12.672   0.988 -0.2325  0.1880 -0.1392
27726W        W43910   6.005   5.193  13.711  0.1019  0.1537  0.1603
27727W        W43911  10.308  14.105   0.247 -0.2252 -0.0733  0.2941
27728W        W43912  16.004  11.070   1.672 -0.0832 -0.1729 -0.1311
27729W        W43913   4.759   9.308   4.966 -0.1448 -0.3621 -0.2073
27730W        W43914   0.584  12.016  11.000  0.0283  0.0254  0.2067
27731W        W43915   9.853   0.568   3.955  0.2284  0.1995 -0.1726
27732W        W43916   2.583   8.393   3.190 -0.2353 -0.2363 -0.1128
27733W        W43917   3.339  12.311   3.959 -0.0050 -0.1460 -0.2320
27734W        W43918  10.832  13.486   0.659 -0.2428 -0.1097 -0.1204
27735W        W43919   2.854  10.561   1.944 -0.4076 -0.0610  0.1729
27736W        W43920   1.519   4.346   0.674  0.3045 -0.2070  0.0771
27737W        W43921   1.238   7.659   2.409 -0.1969 -0.2282  0.1042
27738W        W43922  13.419  18.857  13.091  0.2087  0.3085 -0.2732
27739W        W43923   6.523  14.628   3.150  0.1116 -0.0691 -0.1017
27740W        W43924   8.119  15.885   4.120 -0.1042 -0.2727 -0.3692
27741W        W43925  14.718   1.225  11.853 -0.2008 -0.1011 -0.0619
27742W        W43926  18.919  17.577   2.998  0.1362 -0.1314  0.0259
27743W        W43927   3.026   9.684   4.585 -0.1651  0.1646  0.1404
27744W        W43928  17.738   7.318   2.383  0.1116 -0.3532 -0.1510
27745W        W43929  14.341  10.476   3.658  0.0328  0.0887 -0.2960
27746W        W43930  12.609   2.400  11.649  0.0144 -0.0353  0.1126
27747W        W43931  12.833  10.314   3.772 -0.0033 -0.3300  0.2528
27748W        W43932   2.329  12.556   2.310 -0.1710 -0.2650 -0.1204
27749W        W43933  16.794  11.689  13.651 -0.0943 -0.1798  0.3044
27750W        W43934   9.953   2.918  12.793  0.0196  0.2507  0.1348
27751W        W43935  13.325  19.174   0.265 -0.0319 -0.1608 -0.4733
27752W        W43936  16.681  12.337   0.765 -0.1925 -0.0489  0.3442
27753W        W43937  12.309  15.185   1.189 -0.0593  0.3036 -0.2125
27754W        W43938   1.944   2.765  12.778  0.0265  0.0748 -0.1400
27755W        W43939   4.087  10.111   3.809  0.0340  0.1546  0.2496
27756W        W43940  16.920   1.885   2.731  0.2770  0.1446  0.2857
27757W        W43941   1.315  13.809   4.500 -0.0662  0.1522 -0.2473
27758W        W43942   7.869  14.288   2.543 -0.2909 -0.2645  0.0260
27759W        W43943  12.426   1.975   0.267 -0.4354  0.1936  0.2280
27760W        W43944   9.927  13.274   0.291 -0.0763 -0.0595  0.1081
27761W        W43945  10.228   4.500   0.665 -0.0724  0.0848  0.7886
27762W        W43946   8.084  17.467  11.867 -0.0436  0.0189  0.0488
27763W        W43947  11.005   0.254   2.342  0.0725 -0.3058 -0.0972
27764W        W43948  18.574   1.766   1.790 -0.0580  0.0711  0.3252
27765W        W43949  18.492   4.234  12.075 -0.2634  0.1504 -0.0011
27766W        W43950   4.151   9.670   3.540  0.3760  0.0408  0.0679
27767W        W43951   6.306  10.272   4.374  0.0538  0.0705  0.1030
27768W        W43952   5.502   8.966   0.594  0.2442 -0.1997 -0.0985
27769W        W43953   9.047  10.812   2.336 -0.1651 -0.1962  0.1888
27770W        W43954   2.655   3.129   5.657  0.3525 -0.2911 -0.1233
27771W        W43955   0.391   2.241   5.291  0.1621  0.1410 -0.1661
27772W        W43956   6.149   0.554   3.354  0.3286 -0.3700 -0.3576
27773W        W43957  12.317  17.275   2.584 -0.0478  0.0012  0.1347
27774W        W43958   5.385   6.033  11.830 -0.0746  0.2023 -0.1023
27775W        W43959  12.576   4.256   3.412 -0.1910  0.1082 -0.1675
27776W        W43960  15.740   7.856  10.806  0.0410 -0.2758 -0.1400
27777W        W43961   3.202   3.099   1.217  0.0401  0.1247 -0.1979
27778W        W43962  17.191   4.176   2.967 -0.3943  0.0452 -0.0086
27779W        W43963   2.150   8.691   0.148 -0.2891 -0.0998 -0.2157
27780W        W43964  16.465  14.518  13.910 -0.1218 -0.1674 -0.1308
27781W        W43965  19.199  17.585  13.937 -0.1640  0.0936  0.0030
27782W        W43966   1.833   5.627   0.474  0.0365  0.3237 -0.3411
27783W        W43967  14.782   8.549  14.408 -0.1165 -0.0932  0.2260
27784W        W43968  12.080   2.287  12.485 -0.0304 -0.5095 -0.3214
27785W        W43969  17.120   0.064  10.949 -0.2308 -0.0005 -0.0867
27786W        W43970  13.392  13.548   0.202  0.0440 -0.0561  0.0225
27787W        W43971   4.428   0.534   4.343 -0.0636 -0.3180  0.2745
27788W        W43972   9.722   0.072  12.294 -0.0229 -0.0022 -0.2164
27789W        W43973  12.452   9.320  10.225 -0.4829  0.1214 -0.2295
27790W        W43974   8.744  15.815  10.235 -0.1505  0.0331  0.0022
27791W        W43975   4.053  17.859  14.069  0.0818  0.1116  0.3782
27792W        W43976  14.034   8.568  10.996 -0.1301  0.0270 -0.0119
27793W        W43977   6.890  14.659  13.717  0.2536 -0.0461 -0.2230
27794W        W43978  15.750  12.990  14.428  0.1492 -0.0163 -0.0959
27795W        W43979  17.680  14.659   1.590 -0.3409 -0.1588  0.1931
27796W        W43980  14.381   8.057   3.021  0.0893  0.1071  0.0442
27797W        W43981   5.130  13.924   4.163  0.1625  0.0108  0.2513
27798W        W43982  12.733  18.206  12.395  0.1460  0.2571 -0.2138
27799W        W43983   2.876   5.032  13.011 -0.2783  0.2069 -0.0257
27800W        W43984  16.192   0.783   3.747  0.0853 -0.3328 -0.0492
27801W        W43985  18.151  13.309  11.778 -0.2345  0.0306  0.2406
27802W        W43986  12.319   6.356   1.004  0.0846 -0.1531  0.0121
27803W        W43987   9.769   5.396   1.420 -0.1053 -0.0529  0.5058
27804W        W43988   7.378   6.173   3.750 -0.3357  0.2526  0.0489
27805W        W43989  13.707   1.754   2.917 -0.2196  0.1736 -0.2110
27806W        W43990   3.209   2.208   2.689  0.1399  0.1259 -0.2580
27807W        W43991   9.540  15.776  13.632  0.2213  0.0654  0.3570
27808W        W43992   9.142   3.334  13.777  0.1961 -0.1421 -0.1604
27809W        W43993   1.851  17.641  12.369  0.2632 -0.0633 -0.1452
27810W        W43994   9.095  13.363   0.601 -0.1166  0.2540 -0.0950
27811W        W43995  13.738   0.508   9.742 -0.0390  0.3001 -0.0026
27812W        W43996   7.400  11.083  13.187  0.2635 -0.0408 -0.1000
27813W        W43997  13.477   7.538   1.148  0.0570 -0.1046 -0.0977
27814W        W43998  18.795   2.995   2.894 -0.0889 -0.1196  0.1332
27815W        W43999  19.245   3.143   2.857 -0.0400  0.0681 -0.0735
27816W        W44000  10.256  17.851   4.534  0.3809 -0.3204 -0.0760
27817W        W44001   5.934  17.102   3.896 -0.0231 -0.0612  0.3985
27818W        W44002   9.069  16.449  14.686  0.1473  0.1403 -0.0253
27819W        W44003   8.513   7.101  12.252  0.0036  0.0657 -0.1530
27820W        W44004   7.715   3.762   3.024  0.1753  0.2561 -0.0539
27821W        W44005  17.792  15.609   4.649  0.3337 -0.1251  0.1477
27822W        W44006  14.823  18.371   2.088 -0.1702  0.0961  0.1115
27823W        W44007   3.424  13.870  11.526  0.0321  0.0326 -0.3154
27824W        W44008   0.168   9.842   5.747 -0.3584  0.1367  0.1108
27825W        W44009  17.066   0.532  13.213  0.1047 -0.0480 -0.0994
27826W        W44010   1.712   6.000  14.138 -0.0173 -0.3081 -0.2470
27827W        W44011   1.763   6.919   6.200  0.0964  0.0263  0.3751
27828W        W44012  17.094   0.589   0.002  0.3382 -0.1354  0.1081
27829W        W44013  16.070   5.337  12.663 -0.2342  0.0766 -0.0141
27830W        W44014   8.243  13.141   5.787 -0.0870 -0.2271 -0.1083
27831W        W44015  18.035  10.277  13.306 -0.1979  0.0511 -0.5070
27832W        W44016   3.938  13.690   3.120 -0.2012  0.1875  0.1436
27833W        W44017   7.249   2.194  13.975  0.2557  0.2813 -0.0490
27834W        W44018  17.361  19.042  14.888 -0.0265  0.2107  0.2417
27835W        W44019   5.023  17.324   2.600 -0.1812  0.1528 -0.2454
27836W        W44020   1.827  11.515   4.252 -0.1334  0.0537 -0.0666
27837W        W44021   4.725  17.683   2.808  0.0504 -0.1169 -0.1314
27838W        W44022   8.200  13.064  12.548  0.2136  0.1463 -0.0469
27839W        W44023   8.652   2.690  13.374 -0.3347 -0.1776 -0.0185
27840W        W44024  10.424  17.191  14.270 -0.1142  0.2420 -0.4037
27841W        W44025  10.082   6.839   0.988  0.0549  0.0016 -0.2138
27842W        W44026  16.697  11.330  11.003 -0.0063 -0.2792  0.0081
27843W        W44027  13.484   4.435   4.707 -0.1161  0.3378 -0.0328
27844W        W44028  17.817  11.992   2.016  0.0037  0.1792  0.0384
27845W        W44029  12.137   7.806  12.634  0.0582 -0.1979 -0.0236
27846W        W44030   8.447  13.825   3.153  0.0616 -0.1055 -0.0047
27847W        W44031   3.987   3.260   3.900 -0.1070  0.0470 -0.0657
27848W        W44032  19.377  12.615   3.303 -0.2446 -0.0996  0.2176
27849W        W44033   0.601   4.176   4.861 -0.2641 -0.5087 -0.0008
27850W        W44034   0.461  12.636   1.254 -0.0601 -0.0011  0.0670
27851W        W44035  13.884   2.886   2.321 -0.3926  0.0148  0.1956
27852W        W44036   9.235   6.583   1.153  0.2016  0.0647 -0.0649
27853W        W44037  18.052   2.918  11.673 -0.2461  0.0620  0.0123
27854W        W44038   5.448   8.120   6.143 -0.2886 -0.0026  0.2755
27855W        W44039   2.230   3.208  13.991  0.1266  0.4344 -0.3516
27856W        W44040   5.781  10.801  11.485  0.0035  0.1233 -0.3431
27857W        W44041   3.454   3.074   0.707  0.1040 -0.0330  0.0200
27858W        W44042   6.245   0.303   0.823 -0.1270  0.1505 -0.0035
27859W        W44043   2.184   0.930   2.975  0.0104  0.3081 -0.3020
27860W        W44044   8.426   7.442  11.889  0.0416  0.2465 -0.2690
27861W        W44045   0.583   0.273   9.551 -0.0602 -0.0136 -0.0736
27862W        W44046  15.036   1.528   2.677  0.2752  0.0722  0.0950
27863W        W44047  12.776   0.752  14.693 -0.5909 -0.2082  0.1637
27864W        W44048   4.149   1.072   3.100 -0.0199 -0.0285  0.0962
27865W        W44049  17.260   5.845   3.648 -0.3631  0.0041  0.0435
27866W        W44050   2.036   9.526  13.568  0.0073 -0.1628 -0.1621
27867W        W44051   0.674   8.518  10.780 -0.0993 -0.0503 -0.4069
27868W        W44052   7.130   2.024   2.409 -0.2854  0.4268  0.0596
27869W        W44053   6.471   4.623   1.726 -0.2288  0.0990 -0.1512
27870W        W44054   7.683   1.486  12.845  0.1139  0.2747  0.1026
27871W        W44055  12.714  13.203   2.207  0.4959  0.1956 -0.0026
27872W        W44056  14.141   5.217   0.174  0.0118  0.0135 -0.0938
27873W        W44057   9.962  15.841  11.495 -0.1253  0.0987  0.0594
27874W        W44058  13.049   2.497   0.912  0.1146 -0.1256  0.3464
27875W        W44059  17.045   6.298   3.798  0.0677 -0.2135 -0.2180
27876W        W44060  13.463   9.770   3.978  0.0618 -0.2424 -0.1902
27877W        W44061  14.600   8.242   1.732  0.0779 -0.0944 -0.0875
27878W        W44062   9.045  14.130   0.356  0.0204 -0.1366 -0.2721
27879W        W44063   7.443  16.304   3.372  0.0925 -0.1487 -0.0085
27880W        W44064   1.045  10.186   2.222  0.1904 -0.3368 -0.0104
27881W        W44065  19.112  14.827  13.482 -0.3571  0.0023 -0.0884
27882W        W44066   4.854  11.505   0.173  0.0591  0.1488  0.2090
27883W        W44067  16.795  13.659  10.541  0.0085 -0.0123 -0.1494
27884W        W44068   3.864  13.517  14.160  0.1831  0.0480 -0.0523
27885W        W44069  11.800  11.242   3.273  0.0760 -0.1292 -0.0670
27886W        W44070  16.024  17.084  12.335  0.0977 -0.2682  0.0806
27887W        W44071  15.435   0.277  11.994 -0.1438  0.3331 -0.0642
27888W        W44072  15.141  13.933  10.440  0.1562  0.0513 -0.0151
27889W        W44073  18.415   6.505  11.630  0.1278  0.0126  0.0140
27890W        W44074  11.961   6.609   2.808 -0.2004 -0.4312 -0.0169
27891W        W44075   7.638   8.654  13.850 -0.0504  0.0625  0.0095
27892W        W44076  17.292   3.663   2.195  0.2666 -0.0105 -0.0926
27893W        W44077   6.388   8.410   3.879  0.0438  0.0052  0.1903
27894W        W44078   3.587  13.771   4.288 -0.2417 -0.1721 -0.0569
27895W        W44079  13.333   5.512  10.812  0.1338  0.3076 -0.1394
27896W        W44080  17.843  12.083  13.883 -0.1891  0.4250  0.0039
27897W        W44081   6.050  12.367   2.450 -0.2375  0.1498  0.0891
27898W        W44082   4.250   2.080   2.271 -0.2406 -0.3314 -0.1644
27899W        W44083  19.365  11.776  13.714 -0.2648 -0.3846  0.2140
27900W        W44084   2.107  15.009  13.293 -0.1494 -0.2908  0.3904
27901W        W44085  11.578   4.894  13.838  0.1092 -0.2160  0.0189
27902W        W44086   5.577   2.597  10.208  0.1134 -0.3853  0.1432
27903W        W44087   9.825   7.736  12.455 -0.2681  0.0327  0.1421
27904W        W44088   4.647   1.844   2.439  0.2837 -0.0817  0.4159
27905W        W44089  12.119  16.160  14.362 -0.0783  0.1988 -0.1716
27906W        W44090   3.710  15.538  13.725  0.2631 -0.1135 -0.2449
27907W        W44091   5.177  18.885   3.011  0.1496 -0.1034  0.0808
27908W        W44092  16.852  12.874   0.690 -0.0566 -0.0976  0.1540
27909W        W44093   6.943   3.072  10.751  0.1844  0.0950 -0.3566
27910W        W44094  12.461   2.042  11.986 -0.1016 -0.0882  0.3092
27911W        W44095   8.548  11.761  13.543 -0.1104 -0.2339  0.2994
27912W        W44096  16.528  12.604   1.557 -0.0517 -0.0088  0.1508
27913W        W44097  13.042  11.175  13.441  0.1673  0.0242  0.1909
27914W        W44098   3.135   8.156  14.039  0.3812 -0.1543 -0.3767
27915W        W44099   5.016  18.234  12.673 -0.3775  0.0139  0.1393
27916W        W44100   5.551   9.468   5.152  0.2776  0.0764  0.0579
27917W        W44101   0.024   2.049  13.576 -0.1288 -0.2313 -0.1955
27918W        W44102   6.427   5.121  13.406 -0.1414  0.0879  0.1369
27919W        W44103  19.352  13.154   5.187 -0.3286 -0.1375  0.1780
27920W        W44104  15.596  10.458   3.340 -0.2389  0.4040 -0.0228
27921W        W44105  17.037  15.501   4.204 -0.0387 -0.0691 -0.1476
27922W        W44106   0.903  10.187  11.867  0.0707  0.3650  0.1160
27923W        W44107   8.460  11.283  13.847 -0.0442  0.0205  0.2689
27924W        W44108   2.340   5.639   0.505  0.3570 -0.1224 -0.1123
27925W        W44109  17.417   7.695   3.125 -0.0287  0.0481 -0.1790
27926W        W44110  15.737  12.330   3.982  0.0601  0.1933 -0.1269
27927W        W44111   9.424   6.839   3.984  0.1304  0.0967 -0.1105
27928W        W44112   7.085  11.806   3.063  0.1784 -0.2242  0.2645
27929W        W44113   3.841   5.920   4.557 -0.1904  0.3312 -0.3256
27930W        W44114  16.776  16.208  11.975  0.1373  0.1210  0.0199
27931W        W44115   6.400  10.828   6.014 -0.2709  0.0259 -0.3703
27932W        W44116   7.617  13.234  12.722  0.3165  0.0187  0.2455
27933W        W44117   4.640  10.673   4.946  0.0775 -0.1717  0.1711
27934W        W44118   2.553  14.720   3.531 -0.0412 -0.0683  0.1682
27935W        W44119   2.559  15.952  13.855 -0.1361  0.0074  0.4068
27936W        W44120   3.123   4.298  12.672 -0.0711 -0.2119 -0.3426
27937W        W44121  15.717   5.995   1.245  0.1059 -0.0294  0.0897
27938W        W44122  16.358  18.444   0.677 -0.0200 -0.0827  0.0744
27939W        W44123   2.257   4.771  12.323 -0.2042 -0.0698  0.1275
27940W        W44124  16.459  14.371   5.884 -0.1944 -0.2372  0.0636
27941W        W44125   9.675   6.111  12.704 -0.0378  0.0183 -0.0296
27942W        W44126   6.565   5.267   4.586 -0.0008 -0.2225 -0.2076
27943W        W44127  11.621  16.536  14.234 -0.0949 -0.0342 -0.1951
27944W        W44128   6.196   1.199  14.614  0.0385  0.1707 -0.3117
27945W        W44129   3.606  13.154  13.467 -0.3070 -0.1700  0.1636
27946W        W44130   6.052  15.335  14.609  0.2695  0.2648  0.1242
27947W        W44131   6.560   5.324   0.078 -0.0721 -0.0698 -0.0717
27948W        W44132  17.199  12.277   4.116  0.2808  0.1269  0.1049
27949W        W44133   3.631  12.830   2.964  0.0581  0.3612 -0.1237
27950W        W44134   7.620  10.216   2.834 -0.0147 -0.1411  0.0240
27951W        W44135  15.302  11.057  14.195 -0.1924 -0.2031  0.0794
27952W        W44136   3.751   2.265  13.330 -0.1421 -0.1122 -0.1684
27953W        W44137  15.024   3.756  12.530  0.2553 -0.0749  0.0354
27954W        W44138  12.356   8.527   1.902 -0.1841  0.0401  0.1844
27955W        W44139  13.729   6.129   1.145  0.0062 -0.1219 -0.0309
27956W        W44140  13.398  12.179   0.615 -0.1360  0.1377  0.2128
27957W        W44141   5.618  14.389  11.189  0.1079  0.0873  0.1984
27958W        W44142   1.095  10.030   4.455 -0.1993  0.1879  0.0166
27959W        W44143  18.150   6.200  14.024 -0.0685  0.3392 -0.0673
27960W        W44144   8.972  14.901  10.219  0.0168  0.2959  0.0280
27961W        W44145   8.615  11.965   2.348 -0.0711  0.2168  0.1186
27962W        W44146   6.536   0.645  12.908  0.1484 -0.0638  0.0745
27963W        W44147  18.410   2.119   3.688  0.2978  0.0093 -0.2295
27964W        W44148   1.520   6.842   4.966  0.1054 -0.0729 -0.0571
27965W        W44149  17.406   7.685  14.591 -0.1823  0.1356  0.0742
27966W        W44150   5.404  17.073   0.991 -0.0646 -0.0512  0.0951
27967W        W44151  12.308  13.961  14.604 -0.2582 -0.0292  0.0522
27968W        W44152  17.210  11.280   2.178  0.0468  0.4156 -0.0746
27969W        W44153  15.477  15.154  13.891 -0.0697  0.2336  0.3131
27970W        W44154   2.083   6.420   0.080 -0.2350  0.0945  0.0950
27971W        W44155   9.093  10.629   5.682  0.0866 -0.0713  0.1209
27972W        W44156   4.438  17.409  12.563 -0.2711 -0.1172  0.0776
27973W        W44157   1.668   6.684  14.775 -0.3170 -0.3343  0.2571
27974W        W44158   3.349  12.808  14.275  0.2322 -0.0595  0.4806
27975W        W44159   0.755  16.162   2.115  0.0298  0.4122  0.0597
27976W        W44160  16.902  12.476   2.472 -0.0088 -0.0071  0.1682
27977W        W44161  11.322   6.704  11.798  0.2128  0.0213  0.1698
27978W        W44162   2.212  13.195   3.581 -0.0053  0.0491 -0.1949
27979W        W44163  10.654   3.637   1.775  0.0767  0.0649 -0.1948
27980W        W44164   3.282   9.287  13.201  0.2102  0.3630 -0.1224
27981W        W44165   4.196   1.350  11.629  0.0269 -0.0365 -0.0064
27982W        W44166   6.890  12.428  13.922 -0.0242  0.0969 -0.4456
27983W        W44167  14.216   4.518   0.576  0.1179 -0.1722  0.1680
27984W        W44168   0.298   9.381   4.694 -0.3126  0.1664  0.2044
27985W        W44169  16.984  18.296   2.152 -0.1580  0.2963  0.0777
27986W        W44170  10.503   4.885  13.650  0.2381 -0.2618  0.2731
27987W        W44171   4.450   1.998  11.830 -0.1209 -0.2234 -0.0753
27988W        W44172   6.351   8.807   0.210 -0.1240 -0.1896 -0.0362
27989W        W44173  15.652   6.486  11.946  0.2065  0.1427  0.0578
27990W        W44174   8.237   6.599   4.515 -0.0124  0.1453  0.2785
27991W        W44175   7.970   6.842   5.582 -0.1903  0.3767  0.0102
27992W        W44176  16.421   6.987  10.700  0.0042 -0.1666 -0.1871
27993W        W44177   4.356  15.098   1.730 -0.0731 -0.1063  0.1027
27994W        W44178  16.328  16.412   3.433 -0.3190  0.0474 -0.0005
27995W        W44179   6.562   6.146   2.502  0.2214 -0.3522 -0.2263
27996W        W44180   4.669  18.905  12.649  0.1355 -0.3468 -0.0006
27997W        W44181   6.351   5.964   3.542 -0.0673 -0.1466  0.1352
27998W        W44182  12.702   9.894  11.317 -0.0920  0.1354 -0.0202
27999W        W44183   3.575   1.271   0.503  0.0176 -0.1439  0.3637
28000W        W44184   6.117   8.495  12.092  0.1577  0.0679  0.1816
28001W        W44185   3.774  13.299  11.787  0.3009  0.1314 -0.1762
28002W        W44186   1.572  18.698   2.833  0.5409 -0.1112  0.0179
28003W        W44187   8.326   4.219   5.428 -0.0240 -0.0508  0.1471
28004W        W44188   3.086   5.051  12.454 -0.0261 -0.0540 -0.1043
28005W        W44189  15.787   6.992  12.527  0.2713 -0.0805  0.1676
28006W        W44190  14.005  10.947  13.660  0.0569  0.2288  0.2362
28007W        W44191   4.098  12.578  12.988  0.0226  0.0671 -0.1504
28008W        W44192   0.445   6.922   2.917 -0.0908 -0.0470 -0.2490
28009W        W44193   1.606   7.532  13.053 -0.3065 -0.1576  0.1780
28010W        W44194  11.063  11.881  14.267 -0.2481  0.2591  0.0169
28011W        W44195  16.052  11.494   5.070 -0.0945  0.1428 -0.0029
28012W        W44196  17.833  17.252   2.517 -0.2775  0.0578 -0.0490
28013W        W44197  12.889  17.783   1.598  0.0269 -0.1748 -0.1951
28014W        W44198   3.163   5.048  11.950 -0.0287 -0.1993 -0.2383
28015W        W44199   2.024   4.908  10.718 -0.2664 -0.1812 -0.0755
28016W        W44200   1.767   5.254   5.030  0.0317  0.4703 -0.0322
28017W        W44201   0.794  14.760   3.247 -0.2389 -0.0320  0.3002
28018W        W44202   8.180   5.614   5.372  0.0845 -0.1028 -0.1271
28019W        W44203  16.910  18.106   4.681 -0.2573  0.1868  0.0757
28020W        W44204  18.017  17.025   5.129 -0.0625  0.4887  0.2194
28021W        W44205  12.616  18.807  10.292  0.1080 -0.0553 -0.0729
28022W        W44206  11.521   4.123   3.632 -0.2108  0.0141 -0.1983
28023W        W44207  13.179  10.148   4.154 -0.1601 -0.1763 -0.1258
28024W        W44208  10.724   1.085  14.819 -0.2148 -0.0846  0.2646
28025W        W44209   8.006   8.748   2.604  0.0144  0.2816  0.1530
28026W        W44210  19.151   6.048  10.424 -0.2051 -0.1780  0.0713
28027W        W44211  17.751   1.070   5.330  0.0379  0.0103 -0.1896
28028W        W44212   1.171   1.377  13.192  0.2914 -0.1256  0.1782
28029W        W44213   3.764   0.565   1.913 -0.0148  0.1934 -0.0578
28030W        W44214  16.224  19.127   5.131 -0.2535 -0.3423 -0.1021
28031W        W44215  14.989  12.590   2.234  0.1358 -0.0556  0.3161
28032W        W44216  16.762   8.829  10.519 -0.2111 -0.0311  0.1410
28033W        W44217  11.373  11.504  14.108  0.3734 -0.1082  0.0857
28034W        W44218  14.112  13.446  12.817  0.0361  0.0087 -0.3645
28035W        W44219   1.591   6.964   1.742  0.2177 -0.1605  0.3273
28036W        W44220   9.182   6.208   1.444  0.3113 -0.0745  0.3159
28037W        W44221  10.451   8.334   4.024  0.1874 -0.1425  0.0460
28038W        W44222  12.719   6.935   1.558  0.2692  0.0026  0.0617
28039W        W44223  12.257  18.496  10.035 -0.0378  0.0803 -0.2592
28040W        W44224   4.821  11.378   1.056 -0.2840 -0.1991 -0.0613
28041W        W44225   2.337   9.867  12.761 -0.0582  0.0562  0.0711
28042W        W44226  17.058  14.891  13.231 -0.3725 -0.0810  0.1715
28043W        W44227  14.657  14.762   4.145 -0.0196  0.0821  0.1579
28044W        W44228   3.662  14.338   5.048 -0.1209  0.2001 -0.3727
28045W        W44229  16.408   6.822  13.715  0.0527 -0.0057  0.0657
28046W        W44230  10.512  11.016   3.882 -0.1590 -0.0198  0.1872
28047W        W44231   2.517   2.255   4.687 -0.1162  0.3568  0.3084
28048W        W44232  19.201   4.520   4.441 -0.1175  0.3781  0.1337
28049W        W44233   0.113   7.064  12.668 -0.1291 -0.0797 -0.0775
28050W        W44234   9.846   3.961   2.717 -0.1294 -0.0709 -0.0171
28051W        W44235  10.706  16.622  13.043 -0.1973  0.4587 -0.3033
28052W        W44236  13.430  14.904   4.299 -0.0824 -0.3833  0.0434
28053W        W44237   2.340  11.246   1.166  0.2301  0.0250  0.2098
28054W        W44238   2.220  13.368   3.121 -0.2382 -0.0553  0.0918
28055W        W44239   3.079   9.260  12.731  0.2729  0.0290  0.3500
28056W        W44240   4.024  19.099  11.754  0.0374 -0.2001 -0.1292
28057W        W44241   7.391   0.893  14.921  0.1223 -0.0928  0.0653
28058W        W44242  18.558  11.126  13.289  0.1134 -0.1090  0.3495
28059W        W44243   1.472   0.045   9.976  0.1235  0.0353 -0.4006
28060W        W44244   3.915   7.218   2.693  0.2865  0.4615 -0.0237
28061W        W44245   3.416  17.240  13.427  0.3027  0.1379 -0.2416
28062W        W44246  15.824  11.396   0.883  0.1831  0.0661 -0.1097
28063W        W44247   7.456   6.635  11.471 -0.0359  0.0684  0.1021
28064W        W44248   2.987   7.652   5.944  0.0376 -0.1768  0.0680
28065W        W44249   8.457   0.862   3.053  0.1363  0.1354  0.0400
28066W        W44250   5.301  16.655   5.212  0.0667 -0.0761  0.0388
28067W        W44251   4.181   4.017  13.435 -0.2768  0.1560  0.1566
28068W        W44252   4.050   2.576   1.051  0.1271  0.1175 -0.1602
28069W        W44253   6.795  16.910   2.705 -0.0081  0.1635  0.0580
28070W        W44254  16.748  11.308  14.070  0.1029 -0.0247  0.0098
28071W        W44255   8.527   4.434   2.670 -0.1445  0.1740  0.1197
28072W        W44256   2.716  10.849   2.811 -0.0024  0.1259  0.3962
28073W        W44257  17.929  19.361   1.554 -0.2601 -0.0201  0.0047
28074W        W44258  14.375   3.388   3.644 -0.2747  0.0491 -0.2433
28075W        W44259   5.865  17.680  14.060 -0.0684 -0.1112 -0.1957
28076W        W44260  13.581   3.727  12.656  0.4430 -0.1987 -0.0801
28077W        W44261  19.212   6.717   2.464 -0.3283 -0.1005  0.0329
28078W        W44262  13.580   3.679   2.773 -0.0257 -0.4020 -0.0189
28079W        W44263   7.074  18.185   4.483  0.0033 -0.1911  0.1858
28080W        W44264   9.057   6.326  13.592  0.2314  0.4901 -0.0957
28081W        W44265  10.161  14.951   0.320 -0.1385 -0.3380 -0.0261
28082W        W44266   8.943   3.204   3.337 -0.1680 -0.1552  0.0078
28083W        W44267   8.755  14.230   4.821 -0.1093  0.3577  0.1232
28084W        W44268   7.800   1.872  10.705  0.0710 -0.0722  0.1890
28085W        W44269   8.189   2.752  10.395  0.1268  0.1803  0.2067
28086W        W44270   8.040   4.446  12.998  0.1705  0.2108 -0.1137
28087W        W44271   7.441   3.867   2.613  0.0866 -0.0691 -0.1767
28088W        W44272  15.903  18.825  11.944  0.1780 -0.2329  0.5168
28089W        W44273  16.858   8.072   4.154  0.1507  0.0367  0.2960
28090W        W44274  15.429  12.800   3.600  0.0712  0.0788  0.0235
28091W        W44275   7.010   9.124  11.628 -0.0180  0.1963 -0.0700
28092W        W44276   7.342   8.058   1.070 -0.4211  0.0501  0.2002
28093W        W44277   9.845  10.622   4.560 -0.2782 -0.0776 -0.0857
28094W        W44278  17.962  12.237   2.880 -0.1046 -0.0640  0.1197
28095W        W44279   0.411   9.514   3.768  0.2534  0.2763  0.2261
28096W        W44280   8.805   9.685  12.751  0.2635  0.0052 -0.2637
28097W        W44281   6.339  16.256   1.098 -0.1389  0.1846  0.1362
28098W        W44282   6.661  15.873   2.953  0.0360  0.3258  0.2988
28099W        W44283  15.578  10.867   2.897 -0.2504  0.2922 -0.4119
28100W        W44284   5.614   7.952  13.692 -0.1120  0.1820  0.3376
28101W        W44285   1.468  18.394   1.984 -0.5845 -0.0153 -0.2129
28102W        W44286   5.592   2.301   2.285 -0.0164  0.0596  0.0903
28103W        W44287   6.577  18.077   4.624 -0.1710  0.4069  0.0830
28104W        W44288  16.797   3.934  14.860 -0.2175  0.4058  0.0906
28105W        W44289   8.624  15.700   3.864 -0.4167 -0.1415 -0.0472
28106W        W44290  13.225   2.581  14.675 -0.2004  0.1895  0.1276
28107W        W44291   9.802  10.830  11.390 -0.1823 -0.4883 -0.2668
28108W        W44292   2.038  16.460  12.911  0.5015 -0.2294 -0.0122
28109W        W44293   5.336   9.869   3.864 -0.0161 -0.2282 -0.4739
28110W        W44294  18.922   5.870   0.653  0.3563 -0.2134 -0.2677
28111W        W44295   3.636   5.395   0.663  0.0507  0.0348  0.1710
28112W        W44296   5.496   1.816  10.704 -0.0925  0.1659  0.2739
28113W        W44297   2.792  16.154  14.947 -0.2386 -0.0175  0.4813
28114W        W44298   1.060  19.134   9.905 -0.0714 -0.0501 -0.0430
28115W        W44299  10.650  10.985   4.378  0.2561 -0.1468 -0.2062
28116W        W44300  13.323  12.632   3.987  0.0515  0.2058 -0.0128
28117W        W44301   1.472  16.789   3.833 -0.0303  0.0254 -0.1585
28118W        W44302   6.949   3.755   0.459 -0.4043 -0.0130 -0.1218
28119W        W44303   3.886   6.041  14.854 -0.0553  0.4184  0.1937
28120W        W44304   9.615   2.855   1.093  0.1281  0.0255  0.3038
28121W        W44305  17.609   1.150   0.625  0.3491 -0.0937  0.0825
28122W        W44306   1.705  19.185   2.645 -0.3739 -0.0597 -0.1113
28123W        W44307  10.788  12.560   2.558 -0.5056  0.3985  0.1018
28124W        W44308  10.917  12.905  11.194  0.0952 -0.3161  0.4862
28125W        W44309  13.398   0.718   2.032 -0.0204 -0.2196 -0.2726
28126W        W44310   5.743  13.542   0.823  0.0116  0.3833 -0.0747
28127W        W44311   0.318   6.365   3.804 -0.0236 -0.1019  0.3926
28128W        W44312  14.502   6.139  14.112  0.2292 -0.0911 -0.0943
28129W        W44313  18.848  14.045   1.569 -0.0254 -0.0060  0.1893
28130W        W44314  15.441  16.573   4.444 -0.0929 -0.0079 -0.1852
28131W        W44315  18.951  14.205   0.261  0.0666  0.3782  0.0743
28132W        W44316   6.394  16.940  13.688 -0.0684  0.0534 -0.1746
28133W        W44317  16.757  18.643   0.441 -0.2659 -0.3261 -0.0275
28134W        W44318  17.320  15.588  14.660 -0.1382  0.0768  0.0993
28135W        W44319   2.512   5.704  14.763  0.0125  0.0700 -0.0177
28136W        W44320  16.481  12.294  10.490  0.1596 -0.1627  0.0163
28137W        W44321  12.949  12.462   0.671 -0.3658 -0.0442 -0.4560
28138W        W44322  18.300   4.064   4.339  0.0312 -0.0610  0.3060
28139W        W44323   2.154   2.873   5.512 -0.1201 -0.1588  0.0405
28140W        W44324  13.402   2.564   3.338  0.1851 -0.1781  0.1067
28141W        W44325   9.112  14.392  10.238 -0.1920 -0.0845  0.0106
28142W        W44326   2.594   6.840  14.493  0.0827  0.2411  0.3055
28143W        W44327   1.037   6.255   0.084 -0.0381 -0.2912 -0.0280
28144W        W44328  18.466   9.114  12.229  0.0941 -0.1886 -0.0664
28145W        W44329   0.602  13.302  10.553 -0.1103  0.1113 -0.0034
28146W        W44330   0.969   2.667  13.011  0.0773 -0.1388 -0.1715
28147W        W44331   5.466  16.036  11.557 -0.2602  0.1072 -0.0386
28148W        W44332   9.836  15.354  11.608  0.0279  0.1200 -0.2874
28149W        W44333   8.692   7.268   2.957 -0.1936 -0.0352  0.0347
28150W        W44334   5.669   2.855   4.696  0.0934 -0.5088 -0.1072
28151W        W44335   3.898  16.958  10.082 -0.2320  0.3309  0.1524
28152W        W44336   1.914   9.318   0.021 -0.2795  0.0956 -0.1537
28153W        W44337   3.134   0.117   3.453 -0.2282  0.0849  0.2760
28154W        W44338  10.456   2.402  12.329 -0.0219 -0.2545  0.4477
28155W        W44339  12.189   4.478   0.619 -0.0458  0.2072  0.0959
28156W        W44340   5.746   8.987   3.562 -0.0760 -0.0554 -0.1284
28157W        W44341  12.116  18.187   0.931  0.1001 -0.2204  0.1644
28158W        W44342   2.518   3.038  13.649 -0.4348 -0.2407  0.0954
28159W        W44343   8.434   8.011   0.881 -0.2607 -0.0882 -0.0906
28160W        W44344  15.559   3.656  11.316  0.1688 -0.2153  0.1608
28161W        W44345   0.728  18.551  12.162 -0.0212  0.0458 -0.4564
28162W        W44346  19.309   5.126  11.653  0.0095  0.1424  0.0110
28163W        W44347  17.957   9.570   4.426 -0.3380 -0.3103  0.0728
28164W        W44348   1.619   2.659  12.225  0.1865 -0.1347 -0.2015
28165W        W44349  15.859  10.301   1.141  0.2511  0.0791  0.2067
28166W        W44350  17.401  18.472  12.218 -0.1425  0.3134  0.0694
28167W        W44351  10.725   5.029   2.971  0.0183  0.0444 -0.0224
28168W        W44352  16.068  16.309   0.216 -0.0404  0.2138  0.0887
28169W        W44353   4.952   9.166   2.171  0.0421 -0.1503  0.1000
28170W        W44354   4.813   5.420   3.248  0.1445  0.2661  0.0369
28171W        W44355  14.422   0.825   9.561 -0.2738  0.0461  0.0185
28172W        W44356  13.475   4.785   0.940 -0.1189 -0.1660 -0.0965
28173W        W44357   8.612  15.323  14.693 -0.5682  0.1405 -0.0789
28174W        W44358  10.380   0.709   2.582 -0.2110 -0.0844 -0.0426
28175W        W44359  11.383   4.894   2.358  0.1903 -0.1995  0.2377
28176W        W44360  13.609  18.457   2.644 -0.1243  0.1235  0.1713
28177W        W44361  15.171  14.300  14.096 -0.0286  0.0401 -0.3365
28178W        W44362   0.256   1.811   3.170  0.0763  0.0894  0.1235
28179W        W44363  17.339   1.988   1.016 -0.1773 -0.3122 -0.0956
28180W        W44364   5.820  14.698   1.028  0.0444  0.0868  0.0524
28181W        W44365   3.154   9.450   1.776  0.2387 -0.2258 -0.0882
28182W        W44366   4.626  12.309  12.496 -0.1517 -0.3962  0.3146
28183W        W44367  10.583   9.259   3.903  0.3096  0.2731 -0.0939
28184W        W44368  13.108   3.845   1.360 -0.0562 -0.1535 -0.1048
28185W        W44369   6.232  14.930   2.908  0.3361  0.0850 -0.0651
28186W        W44370   6.625   5.291   4.115 -0.1758  0.1607  0.4466
28187W        W44371  14.880   3.024   0.641  0.3610  0.1013  0.1767
28188W        W44372  11.750  11.416  11.827 -0.2487  0.1750  0.0371
28189W        W44373   1.557  18.454  13.470 -0.1005  0.4436  0.3117
28190W        W44374   6.249  11.857   2.275 -0.1664  0.0156  0.1076
28191W        W44375   8.505   6.152  10.822 -0.0867  0.1598 -0.3935
28192W        W44376  13.042  16.804   4.631  0.0564  0.1285  0.1566
28193W        W44377   2.308  18.537   1.769  0.5144 -0.1377  0.2356
28194W        W44378   1.748   3.111  11.411  0.2233 -0.1251  0.0784
28195W        W44379   9.925  13.593   3.226 -0.0882  0.3714  0.1818
28196W        W44380  19.081  18.171   4.444  0.0160  0.0984 -0.1580
28197W        W44381   8.421   0.272   4.227 -0.0030  0.1117  0.1978
28198W        W44382   1.687  13.421   5.027 -0.1849 -0.2396 -0.3003
28199W        W44383   7.465   3.700   0.289 -0.0130  0.1685 -0.0380
28200W        W44384  18.385   4.883  12.044  0.1360 -0.0812  0.0332
28201W        W44385  10.987  10.315   1.489 -0.0232 -0.2449  0.1253
28202W        W44386   3.255  15.752  13.133 -0.0220 -0.0375 -0.1326
28203W        W44387   9.509  13.965  12.617 -0.2754  0.3179 -0.1431
28204W        W44388  13.744   5.270   2.397  0.1462  0.0562 -0.0146
28205W        W44389   8.239  17.663   4.451 -0.3131 -0.0682  0.0019
28206W        W44390  11.547   8.433  14.236 -0.0973 -0.0676 -0.3672
28207W        W44391  16.660   4.518   0.670  0.0209 -0.1933 -0.2490
28208W        W44392   5.711  16.947   0.277  0.2594  0.2528  0.5446
28209W        W44393   6.898  17.931  14.755  0.2548  0.1743 -0.3465
28210W        W44394  16.461  16.663  14.401  0.0581 -0.0588  0.2215
28211W        W44395  10.887  17.979  12.876  0.0728 -0.0802 -0.1477
28212W        W44396   6.743   7.191  12.813  0.1014 -0.0350  0.1269
28213W        W44397  11.719   0.746   2.182  0.1979  0.0888 -0.1271
28214W        W44398   4.450   7.296  13.886 -0.0568 -0.1885 -0.0220
28215W        W44399   0.443   3.628   0.327 -0.0951  0.2050  0.2520
28216W        W44400   4.385  17.299   1.526 -0.1055 -0.2218 -0.2475
28217W        W44401   1.292   9.435   0.973  0.0395 -0.1160 -0.2061
28218W        W44402  15.469  14.453  10.512 -0.4166 -0.0287 -0.2413
28219W        W44403  14.965  13.451   1.802 -0.0690 -0.1386  0.1049
28220W        W44404   6.944   3.185  12.110  0.0042  0.4486  0.0816
28221W        W44405  12.556   5.372  11.472 -0.1121 -0.2139  0.2863
28222W        W44406  14.128   0.382  12.378 -0.1108 -0.1871 -0.0738
28223W        W44407  10.426   4.438  12.987  0.0124 -0.1833 -0.1143
28224W        W44408   4.271   9.903  14.239  0.0898 -0.1951 -0.5059
28225W        W44409   7.203   6.366  11.921 -0.1618  0.0864 -0.1961
28226W        W44410   7.274   6.876  12.112  0.0193  0.0533  0.2482
28227W        W44411   4.161   9.784  13.755 -0.2030  0.0279 -0.2916
28228W        W44412  15.874   1.034   2.384  0.1053 -0.1266 -0.0617
28229W        W44413   9.407   6.433   1.866 -0.0843  0.1084  0.2115
28230W        W44414  19.359  12.508   1.271  0.1879 -0.2071 -0.2075
28231W        W44415  15.522   9.741   3.544 -0.1531 -0.0072  0.0059
28232W        W44416  14.475   4.289   1.205  0.0691  0.1092  0.2325
28233W        W44417   9.786   7.695   9.563 -0.0033  0.2274  0.2050
28234W        W44418   6.312  11.394   2.638  0.1697  0.5756 -0.1290
28235W        W44419  18.744   1.413  10.887  0.1797  0.0324 -0.3188
28236W        W44420   8.900  18.856   0.261  0.3567 -0.1583 -0.0359
28237W        W44421  13.676  13.246  10.984 -0.0370  0.1827 -0.0539
28238W        W44422  18.281   0.016   2.859 -0.1157  0.0532 -0.0110
28239W        W44423   6.265   6.600  14.719  0.2295  0.3209  0.3199
28240W        W44424  13.823  12.716   1.905 -0.2970 -0.1900 -0.4296
28241W        W44425  17.875   0.913   1.213  0.1967 -0.3846  0.1770
28242W        W44426  12.953   0.515   2.115  0.3452 -0.2762  0.2581
28243W        W44427  17.100   5.153  10.586 -0.1737  0.1697 -0.2275
28244W        W44428  15.923  13.730  12.714 -0.0993 -0.0428 -0.1402
28245W        W44429  16.923  14.580  12.336 -0.4295  0.0936 -0.0221
28246W        W44430   3.709  11.498  14.427  0.0180 -0.1332  0.0660
28247W        W44431  17.490  18.568  10.974 -0.1221  0.2173  0.1193
28248W        W44432  16.860  14.156  10.558  0.2651  0.2487 -0.0159
28249W        W44433  14.348  12.104   0.326 -0.2300  0.0353 -0.2036
28250W        W44434   1.060  18.912   3.400  0.2690  0.0354 -0.0400
28251W        W44435  16.988   6.880  14.829 -0.1525  0.1933 -0.0564
28252W        W44436   6.477  10.758  14.078  0.4528 -0.0807 -0.0346
28253W        W44437  18.278  17.085  13.920  0.0121 -0.1399 -0.0744
28254W        W44438  15.734  15.452   1.194  0.2675  0.0616 -0.0535
28255W        W44439  11.388   7.536   1.435  0.0042  0.0877 -0.3011
28256W        W44440   7.046   1.291   0.088  0.1090 -0.2160  0.0220
28257W        W44441  15.543  18.222   2.072 -0.0061  0.0337  0.1313
28258W        W44442  16.302  16.193   4.504 -0.0236  0.2109 -0.3311
28259W        W44443  13.021  11.753  13.812 -0.1631  0.1557  0.2318
28260W        W44444   5.082  18.421   3.516 -0.1719  0.0974 -0.2420
28261W        W44445  17.520   8.545  12.730  0.1933 -0.0635 -0.0538
28262W        W44446   5.253  15.888   1.729  0.2975 -0.0988 -0.0459
28263W        W44447  15.377   1.019  12.820  0.2551 -0.0739  0.1959
28264W        W44448   4.058   1.705  14.332 -0.2088  0.3717  0.1975
28265W        W44449  14.048  10.956   1.612 -0.2092 -0.1286 -0.1175
28266W        W44450  18.445  16.513   3.657  0.0012  0.0520  0.3552
28267W        W44451   8.910  13.105  14.350  0.3699  0.2336  0.0434
28268W        W44452  15.185  17.690  13.579  0.0339 -0.0839  0.3676
28269W        W44453  15.577  17.263   2.064  0.2026  0.0965 -0.0067
28270W        W44454  15.965   5.552   5.190  0.0224  0.0600  0.0991
28271W        W44455  10.575   7.614   0.569 -0.1591  0.0066  0.2515
28272W        W44456   7.089  19.020   4.889  0.3162 -0.0199  0.0270
28273W        W44457  10.172  13.206   5.209  0.2299  0.2425  0.0019
28274W        W44458  19.381   5.338  14.506  0.0825 -0.2746  0.0327
28275W        W44459  17.905  11.236   3.727 -0.3697  0.0351 -0.3515
28276W        W44460  16.874   6.020   4.577 -0.3255 -0.0132 -0.1446
28277W        W44461   0.994  11.939  14.731  0.3250  0.0020  0.0961
28278W        W44462  16.611  18.002  12.726 -0.0753  0.0230 -0.2464
28279W        W44463  13.443   2.716  14.180  0.1520  0.0432  0.0725
28280W        W44464   4.186   4.820   3.268 -0.0416  0.1318  0.0251
28281W        W44465   3.302  19.020  14.545 -0.0880  0.0677 -0.0377
28282W        W44466   4.620   8.767   0.303  0.2335  0.1463  0.1316
28283W        W44467  10.064   2.690   9.262 -0.2102  0.0489 -0.1611
28284W        W44468  14.123  13.919  12.559 -0.0395 -0.0477  0.0046
28285W        W44469   6.977   1.696  14.624  0.0659  0.1236 -0.0796
28286W        W44470  10.095  18.574  10.942  0.0717  0.0232  0.0879
28287W        W44471  16.739  18.934   9.636 -0.1743 -0.1310 -0.3722
28288W        W44472  16.418   2.854  12.210 -0.0072  0.0056  0.1793
28289W        W44473   5.389   9.423  12.444  0.1025 -0.2269 -0.1027
28290W        W44474   5.189  11.141   2.202 -0.1237  0.1963  0.1391
28291W        W44475  10.314   4.697  14.163  0.1811 -0.0633  0.1258
28292W        W44476   7.197   2.244   5.058 -0.1957 -0.1306 -0.2565
28293W        W44477   6.448  11.044   4.960 -0.0883  0.2426 -0.2186
28294W        W44478  13.363   6.709  13.182 -0.1572  0.1017 -0.0716
28295W        W44479   9.170   8.506   5.260 -0.4322 -0.2054 -0.0830
28296W        W44480  12.458   9.759   1.043  0.2042 -0.0615  0.3760
28297W        W44481   5.635   4.347  11.106  0.2482 -0.1347  0.1426
28298W        W44482   8.857   2.893   1.847 -0.0287  0.1529  0.0449
28299W        W44483   4.725  10.925   0.188 -0.2204 -0.2778  0.0892
28300W        W44484   0.806   8.094   3.146 -0.0718 -0.2066  0.1729
28301W        W44485   7.268   8.964   1.052 -0.2302 -0.1672 -0.1116
28302W        W44486  16.858   9.448  14.659  0.0252  0.0692  0.2156
28303W        W44487   1.156   2.752   2.928  0.0551 -0.1078 -0.1358
28304W        W44488   3.267  12.395   1.330  0.0732 -0.2798  0.2889
28305W        W44489   2.975  16.314  12.469  0.1016  0.1730  0.0066
28306W        W44490  18.779   9.610  13.070  0.0283 -0.4534  0.0169
28307W        W44491   6.922   2.496   9.911  0.0177 -0.1091 -0.0701
28308W        W44492  12.889   9.965  12.340 -0.1411 -0.0283 -0.1764
28309W        W44493  14.045   8.122  13.222 -0.0194  0.1975 -0.0776
28310W        W44494  18.410  16.525   0.228  0.0653  0.0482 -0.2714
28311W        W44495   1.809  18.068   2.753  0.0780 -0.2339 -0.2990
28312W        W44496   1.961   7.531   3.782 -0.1559 -0.0039 -0.1839
28313W        W44497   6.208  12.296   0.695  0.2827  0.2001 -0.0113
28314W        W44498   0.286   3.423  11.952  0.2383 -0.0367 -0.1333
28315W        W44499  13.971   0.842  12.307 -0.1891 -0.3330 -0.0622
28316W        W44500   5.662  11.830   2.091 -0.0239 -0.1155  0.0048
28317W        W44501   4.899   0.311   3.891  0.0443 -0.0453  0.0952
28318W        W44502   4.073   9.440   1.586 -0.1384 -0.0733  0.2180
28319W        W44503   9.233  11.329   5.831  0.3247 -0.0745 -0.3547
28320W        W44504  18.191  12.032   2.352  0.2616  0.1381  0.0483
28321W        W44505   9.032  13.837  14.622 -0.0271  0.0734 -0.2207
28322W        W44506  16.452   9.699  11.612 -0.0367 -0.0265  0.2421
28323W        W44507   7.912  15.246  14.780  0.0878 -0.0484 -0.0782
28324W        W44508  16.457   7.999  13.812  0.1476  0.1464  0.0761
28325W        W44509  10.730   8.290   1.661  0.0727 -0.0948  0.0116
28326W        W44510   2.279   9.598   0.352 -0.2379 -0.0727 -0.2431
28327W        W44511   3.878  17.216  13.392  0.0639  0.2448  0.3201
28328W        W44512   0.327  11.492  11.934  0.1845  0.0858 -0.4287
28329W        W44513   1.242   5.185  10.847 -0.0569 -0.0997 -0.2449
28330W        W44514  12.338   0.718  12.225 -0.0502  0.1296  0.1153
28331W        W44515   1.677   8.466   2.891 -0.4020  0.2197 -0.1538
28332W        W44516   4.258  14.488   3.166  0.2238 -0.2376 -0.1700
28333W        W44517  15.677   4.931  13.318  0.1259 -0.0831  0.1854
28334W        W44518   9.429   4.051   3.520 -0.2099 -0.0025  0.1960
28335W        W44519   6.055   3.373  14.683  0.0177  0.2794  0.0597
28336W        W44520   0.593   4.541   3.467  0.2766 -0.2266  0.1245
28337W        W44521   5.558  14.880  12.453  0.0336  0.2291  0.1655
28338W        W44522   9.800   5.961   1.962  0.1150  0.1538  0.2339
28339W        W44523   2.287  11.457  14.739 -0.0567 -0.2174 -0.1456
28340W        W44524   8.954  15.836  11.529 -0.3276  0.0400  0.0859
28341W        W44525   9.667  11.270   3.179  0.1462 -0.3410 -0.2684
28342W        W44526  19.171   2.608  10.349  0.2977 -0.0441 -0.1724
28343W        W44527   8.392  11.280   1.629  0.0936  0.1952  0.1888
28344W        W44528  14.828   3.314   3.975 -0.0744 -0.0689  0.1086
28345W        W44529  17.419   3.704   3.302  0.1184  0.1688  0.0340
28346W        W44530  15.937   5.514   3.975  0.0245 -0.2027 -0.4409
28347W        W44531  12.416   2.606   2.563 -0.3681  0.0555  0.0801
28348W        W44532  17.092  16.425  11.636 -0.0568  0.0144  0.1503
28349W        W44533   0.365   6.788   0.941 -0.2811 -0.1160  0.0722
28350W        W44534  17.021  17.706   0.062 -0.5567 -0.1776  0.0490
28351W        W44535   5.393  15.714   0.254 -0.0012  0.3548 -0.1862
28352W        W44536   9.321  18.552  13.400 -0.1066  0.1635  0.0992
28353W        W44537   4.112  16.319  13.164  0.2141 -0.1568 -0.1521
28354W        W44538   2.489   7.187   1.393 -0.0066 -0.0350  0.1447
28355W        W44539   7.604  10.197  12.829 -0.1718 -0.3225  0.1700
28356W        W44540   1.328   6.783   6.105  0.0689  0.1282  0.1253
28357W        W44541  18.416   0.497  13.524 -0.0780 -0.2429  0.0081
28358W        W44542   6.517  11.287  14.911 -0.0655 -0.1315 -0.2325
28359W        W44543  14.231  15.490   4.435 -0.1747 -0.0318  0.3186
28360W        W44544   7.922  16.617   2.711  0.0927  0.0975  0.0266
28361W        W44545   8.872   6.272   0.975 -0.1094  0.2357  0.1747
28362W        W44546   9.372  18.100   5.270  0.0486 -0.1295 -0.2317
28363W        W44547   3.190  15.351   3.848  0.1952 -0.0097  0.1975
28364W        W44548  16.915  17.244  11.329  0.4059  0.0172 -0.0116
28365W        W44549   1.108   3.847   3.764  0.4250  0.0107  0.3190
28366W        W44550  19.120   1.263   0.213 -0.0573 -0.2902  0.2485
28367W        W44551   5.666   6.088   5.163  0.2299  0.0778 -0.2696
28368W        W44552  11.070   2.538  10.597 -0.0904  0.1415 -0.2487
28369W        W44553  18.180  17.557  13.865  0.1492  0.0037 -0.1411
28370W        W44554  18.356  16.517  11.241  0.3053  0.2658  0.0429
28371W        W44555   1.923  15.848  14.440  0.2011  0.1621 -0.1937
28372W        W44556   2.524   7.176   5.134  0.0960  0.3318  0.0770
28373W        W44557  19.387   8.092   1.760 -0.2109  0.1057  0.2618
28374W        W44558  10.872  12.522   3.073 -0.0343  0.2838 -0.1014
28375W        W44559  17.534   9.641   3.455  0.2412 -0.1127 -0.3046
28376W        W44560  11.846   8.570   1.887  0.0800 -0.1732 -0.2432
28377W        W44561   6.102  14.041   3.716  0.3477 -0.0575 -0.0221
28378W        W44562   7.954   1.553   3.664 -0.6377 -0.0617  0.1326
28379W        W44563  18.015   1.806   0.297  0.0982  0.0047 -0.2025
28380W        W44564  13.067   7.117  11.478  0.0085 -0.2439  0.0263
28381W        W44565   5.706  13.278   9.896 -0.2238  0.2337 -0.1461
28382W        W44566   5.816  14.984   0.648 -0.1328  0.1354  0.0562
28383W        W44567  11.135   5.996   5.306  0.2104  0.2361  0.2243
28384W        W44568  18.670  16.731   0.651  0.2464 -0.3290 -0.1368
28385W        W44569   6.863   2.264  13.294  0.0125 -0.1901 -0.1525
28386W        W44570   8.948  10.593  12.005 -0.1481 -0.5425 -0.1993
28387W        W44571   0.716  14.385  13.223 -0.1462 -0.2920 -0.0617
28388W        W44572  11.389   2.507  13.088 -0.1136 -0.0049  0.0673
28389W        W44573  14.733   5.596  11.854  0.0398  0.0529 -0.0261
28390W        W44574  14.623   5.399   0.960  0.0195 -0.1282  0.3577
28391W        W44575  14.063  12.062   0.774  0.1082 -0.1530 -0.1896
28392W        W44576   6.308  12.917  14.297  0.2192  0.1692  0.0577
28393W        W44577  10.246   1.570   1.872 -0.0305  0.0766 -0.1851
28394W        W44578   6.587   9.319   3.294  0.1321 -0.1598 -0.1677
28395W        W44579   2.407  17.475  13.558 -0.2291  0.1207  0.4191
28396W        W44580   4.703   4.483   2.256 -0.1614  0.0451 -0.1530
28397W        W44581   2.041   9.988   6.249  0.0118 -0.3272  0.2233
28398W        W44582  14.988  16.435   4.540 -0.2687  0.3451 -0.2142
28399W        W44583  19.178  15.254   2.951  0.0240 -0.1378 -0.5346
28400W        W44584   5.672  17.728  10.876  0.0576 -0.1388 -0.3295
28401W        W44585   4.700  16.750   0.854  0.0227  0.1856  0.2227
28402W        W44586  13.133  11.073  11.154  0.1133  0.1283 -0.1120
28403W        W44587  18.907  17.813   2.330  0.1769  0.2335 -0.2328
28404W        W44588   1.591  16.533  12.145  0.0238 -0.1370  0.3607
28405W        W44589  12.202  14.282   2.961 -0.0516  0.1231  0.0711
28406W        W44590   7.554   3.483   4.674 -0.0233 -0.2783  0.1702
28407W        W44591  18.090   9.254  11.945 -0.0181 -0.3321  0.1297
28408W        W44592   2.793   6.348   5.355 -0.1380  0.1402 -0.1788
28409W        W44593   7.153  10.082  13.046  0.0086  0.2207  0.0430
28410W        W44594   7.223   5.726   5.044 -0.4925  0.0196  0.0855
28411W        W44595   0.404  11.120   0.559  0.2811 -0.0473 -0.0718
28412W        W44596   6.925  10.700  13.797  0.2599 -0.0303  0.2149
28413W        W44597   6.930   1.663  10.478  0.1529 -0.0487 -0.2747
28414W        W44598  11.798   2.622  12.822 -0.4493  0.0641 -0.4781
28415W        W44599   0.235  18.111   3.805 -0.1346 -0.1029  0.1214
28416W        W44600   4.127   6.170   2.674 -0.4187 -0.0274  0.3005
28417W        W44601  17.536  16.150  11.472  0.0801  0.1198 -0.3833
28418W        W44602   2.306  13.306  12.663 -0.1583  0.0199  0.2226
28419W        W44603   5.114   9.641   2.493 -0.0115  0.2638  0.0611
28420W        W44604  12.347   0.505  12.747  0.1436  0.1759  0.2179
28421W        W44605   4.736   2.438   5.586  0.0583  0.0745  0.0898
28422W        W44606   2.831   4.379   1.924  0.1595  0.0312 -0.0535
28423W        W44607   1.531   4.348  11.236  0.0650  0.1139 -0.0657
28424W        W44608  16.785  19.166  13.651 -0.1011  0.0329 -0.0239
28425W        W44609  11.208  15.530  13.344  0.1912 -0.0522  0.2167
28426W        W44610   0.398  17.002  13.794  0.1457  0.2910  0.1783
28427W        W44611   6.085   1.096   4.620 -0.3448  0.1139 -0.0330
28428W        W44612   3.912  11.066   3.799  0.1690 -0.0220 -0.0596
28429W        W44613  14.083  13.342   1.012  0.0389  0.1397 -0.2136
28430W        W44614  12.828  11.376   3.934 -0.0067  0.1110  0.2204
28431W        W44615   2.683  11.691   0.043  0.1793 -0.2579  0.1503
28432W        W44616  17.203  11.234  11.097 -0.1027  0.2265  0.0585
28433W        W44617  13.164   8.779  12.154  0.3366  0.3715  0.0826
28434W        W44618  16.027   9.915  11.574  0.1646 -0.1831 -0.0351
28435W        W44619   7.660   6.663  12.805 -0.0695  0.0541  0.2984
28436W        W44620   4.981  11.417  12.399  0.0161  0.1520 -0.0777
28437W        W44621  10.171  16.055   4.632 -0.2204 -0.1116  0.0490
28438W        W44622  13.498   9.729  13.853  0.1737  0.0772 -0.0578
28439W        W44623   1.843  11.442  11.377  0.1728  0.1044  0.1951
28440W        W44624  15.215   9.785   5.263 -0.1782  0.2111 -0.0092
28441W        W44625  19.366  18.840  11.034  0.0867  0.4094  0.2144
28442W        W44626   4.933   5.310   0.095 -0.0463 -0.2708 -0.0443
28443W        W44627  10.224   6.609   0.571 -0.2329  0.0329 -0.2498
28444W        W44628  15.083   8.501  10.100  0.0350 -0.0171  0.1715
28445W        W44629  19.188  15.478   1.908  0.1922 -0.2893 -0.1267
28446W        W44630  17.968  14.029   3.643 -0.2558  0.1699  0.0686
28447W        W44631  12.375   1.506  12.897 -0.2053 -0.1915 -0.2288
28448W        W44632  11.015   8.367  11.073  0.0720  0.3345 -0.1765
28449W        W44633   7.797  16.505   9.157 -0.0708  0.2507 -0.1702
28450W        W44634  12.514  15.382   2.853 -0.2110 -0.2579  0.0559
28451W        W44635   3.073  18.911  12.066 -0.0661  0.0714  0.1593
28452W        W44636  14.355  16.819   4.935  0.0928  0.0304 -0.1790
28453W        W44637   0.741   9.582  13.914 -0.2416  0.0355 -0.3672
28454W        W44638  12.338  16.129   0.940 -0.1030 -0.1771  0.0919
28455W        W44639  18.337   6.584   3.511 -0.5512  0.1066 -0.0501
28456W        W44640   1.489  15.721  12.370  0.0724  0.0399 -0.2322
28457W        W44641  15.041  13.067   0.978  0.0437  0.1810 -0.1265
28458W        W44642  10.742   6.276  11.618 -0.0809 -0.0858  0.2732
28459W        W44643  10.289  10.729  12.696 -0.2906 -0.0960  0.1002
28460W        W44644  18.932   6.600   0.785 -0.3642  0.2978 -0.1189
28461W        W44645  10.064   7.949  12.807  0.1582 -0.1772 -0.3876
28462W        W44646   5.312   4.187   4.218 -0.0065  0.0336  0.1473
28463W        W44647  19.054   0.922   5.792  0.2404  0.0847  0.0606
28464W        W44648  12.296  14.371   0.433  0.3055 -0.0332  0.0865
28465W        W44649   6.152  10.592  11.306 -0.2254 -0.1896 -0.1346
28466W        W44650   6.014  12.988  11.234 -0.0441 -0.0912  0.1918
28467W        W44651  17.712   2.235  10.695  0.2888  0.1078 -0.1115
28468W        W44652   3.527   2.440  12.715 -0.1211  0.3013 -0.0799
28469W        W44653   3.236   8.261  11.289  0.3065  0.2494 -0.0878
28470W        W44654   0.116   9.350   2.614 -0.2916 -0.1175 -0.2872
28471W        W44655   1.932  10.951   0.448  0.0801  0.5439  0.0942
28472W        W44656  14.083   9.563   2.717  0.0714 -0.0779  0.2619
28473W        W44657  11.819  14.142   3.709 -0.1103 -0.1239  0.1852
28474W        W44658  13.986  18.867  13.336  0.0987 -0.1841 -0.0866
28475W        W44659   7.676  16.879   3.611  0.1740  0.0484  0.2340
28476W        W44660   8.914   0.479   0.874 -0.0764  0.2701 -0.2970
28477W        W44661  15.926   6.140   4.044  0.0225 -0.2902  0.2220
28478W        W44662  16.555  14.998  13.776  0.0998 -0.0450  0.2984
28479W        W44663  18.310   3.425  10.652 -0.2299 -0.0907 -0.1051
28480W        W44664   4.409  18.046   1.988  0.3400 -0.0104 -0.0620
28481W        W44665   1.107   7.692  12.241  0.1044 -0.1163 -0.1970
28482W        W44666  17.448   2.962   3.176  0.0894 -0.1478  0.0035
28483W        W44667  13.724  17.082   1.902 -0.1225 -0.0582 -0.1372
28484W        W44668  14.934   6.055  10.971  0.1436  0.1823 -0.0358
28485W        W44669  11.743  16.580  11.656 -0.0621  0.2299 -0.3649
28486W        W44670   0.613   1.021   0.093 -0.3796  0.1794 -0.2275
28487W        W44671   8.308   8.359   5.276  0.0824 -0.0272 -0.0095
28488W        W44672  11.536  11.149  14.396 -0.2916 -0.0569 -0.3776
28489W        W44673   6.600  10.017   4.030 -0.0287 -0.0592  0.2206
28490W        W44674  18.820  18.956  12.306 -0.0454  0.3360  0.0757
28491W        W44675   1.176   2.434  11.529  0.0160  0.1008  0.0071
28492W        W44676  17.092  11.243   1.089 -0.0295  0.1667  0.2144
28493W        W44677   9.738   0.851  12.949 -0.3355 -0.1527 -0.2661
28494W        W44678  18.550   9.477  10.983  0.1570 -0.1697 -0.2486
28495W        W44679  17.746   8.441  12.218 -0.1644  0.0958  0.1416
28496W        W44680   4.735  16.344   5.253  0.0150  0.1039 -0.3640
28497W        W44681  12.768  14.637  12.216  0.0785  0.0022 -0.0210
28498W        W44682  13.865  11.183   4.139  0.1386  0.1980 -0.4570
28499W        W44683  17.452   9.031  14.493 -0.0639 -0.1362 -0.2104
28500W        W44684  14.701  13.572   1.377  0.1649 -0.1113  0.0805
28501W        W44685  17.480   8.880   4.107 -0.1458  0.4073  0.3371
28502W        W44686  18.897  18.488   3.822 -0.0038 -0.2675 -0.2072
28503W        W44687   8.999  14.720   2.951 -0.0580 -0.0902  0.0901
28504W        W44688  15.004  15.013   3.798 -0.3786 -0.2242  0.2203
28505W        W44689   8.182   3.602   3.030  0.0913  0.0079  0.0061
28506W        W44690   2.822   2.511  14.320  0.2501 -0.1843  0.0022
28507W        W44691  18.913  10.385  13.867  0.0402  0.1892 -0.0514
28508W        W44692   4.792  13.636  13.538 -0.1912  0.1719  0.0295
28509W        W44693  13.221  17.984  13.686  0.2500  0.0310  0.0710
28510W        W44694   9.256  16.190   2.061 -0.0781  0.0562  0.0625
28511W        W44695  18.907   3.440  10.588 -0.2614  0.0749  0.2314
28512W        W44696   7.895   0.051   4.338  0.1853  0.0853  0.0493
28513W        W44697   7.587   3.265  12.625  0.1522 -0.1050 -0.0001
28514W        W44698   5.935   3.277   3.146 -0.3291 -0.2541  0.3071
28515W        W44699  14.387  11.894   1.584 -0.0387  0.0530 -0.3354
28516W        W44700  18.056   7.759   1.188 -0.1996 -0.3209  0.0404
28517W        W44701   0.710  16.175  14.535 -0.1413 -0.0988 -0.2756
28518W        W44702  15.585   1.234   1.987  0.1659 -0.0840 -0.0079
28519W        W44703   8.287  13.767  13.806 -0.2482  0.1725  0.1553
28520W        W44704   3.033   9.355  11.730 -0.0301  0.0363 -0.0159
28521W        W44705  19.249   8.640  11.145  0.1605 -0.0618 -0.1791
28522W        W44706  12.743  10.915   4.818  0.0413  0.0257 -0.0239
28523W        W44707   9.005  14.432  12.031  0.0168 -0.3799  0.0583
28524W        W44708   9.270   9.011  14.197 -0.0101  0.2066 -0.1555
28525W        W44709  18.179  17.977   4.903  0.0405 -0.0463 -0.4971
28526W        W44710  18.442   9.028   5.589  0.2681  0.0192  0.0274
28527W        W44711  15.889   0.980  13.515 -0.1071 -0.2008 -0.0470
28528W        W44712   5.481  16.203   0.564  0.1273 -0.0237 -0.0483
28529W        W44713   3.172  18.186  14.680  0.0660  0.1078 -0.0723
28530W        W44714  12.332  16.863   1.978  0.0481 -0.0419 -0.0109
28531W        W44715  11.950  12.284   5.165 -0.1369 -0.0996  0.0359
28532W        W44716   2.564   2.458  12.459 -0.0263  0.0041 -0.0926
28533W        W44717  14.852  16.737  11.731 -0.1203 -0.0653 -0.1293
28534W        W44718  11.283  10.299  13.052 -0.1269 -0.2509 -0.0363
28535W        W44719  10.253   3.348  11.493 -0.1663 -0.4094 -0.1143
28536W        W44720  17.892   0.333  11.177 -0.1556  0.0433 -0.0125
28537W        W44721  11.280  19.164  14.388 -0.0488  0.1464  0.4834
28538W        W44722  16.762   5.545  12.015 -0.2131  0.1950 -0.1785
28539W        W44723   6.753   3.103   1.488 -0.1655  0.2097 -0.2443
28540W        W44724   3.732   5.463  11.586 -0.1428 -0.2206  0.1353
28541W        W44725   5.311   4.103   0.967  0.2768 -0.2569 -0.1832
28542W        W44726  12.748   7.255  13.351  0.0047 -0.0029 -0.0696
28543W        W44727   9.157   5.842  13.402 -0.0276  0.0469  0.1982
28544W        W44728  19.152   9.329  14.094 -0.0032 -0.2889  0.0477
28545W        W44729  19.286   8.832   5.827  0.1585  0.3368  0.0640
28546W        W44730  13.655   8.376  13.329 -0.2657 -0.0281 -0.3249
28547W        W44731   2.460  12.159   3.619 -0.0267 -0.0255 -0.1163
28548W        W44732  16.744  15.294   2.119 -0.1238 -0.0222  0.3055
28549W        W44733  11.509   0.267  13.022 -0.0180  0.0693  0.4247
28550W        W44734  14.707   1.292   0.839  0.3341  0.0725  0.1460
28551W        W44735   9.601  11.039   4.617 -0.2621 -0.1511  0.3541
28552W        W44736   5.523  13.583   3.961 -0.1493  0.0072 -0.4049
28553W        W44737  18.772   0.318  13.868 -0.0771  0.0990  0.0700
28554W        W44738   6.502  11.244  12.811 -0.0010 -0.3957  0.2846
28555W        W44739   4.802   5.203   9.752  0.0754 -0.0818 -0.3515
28556W        W44740  18.863   4.992   2.907  0.1198  0.1208 -0.0631
28557W        W44741   0.640  16.972   2.875 -0.0942 -0.1494 -0.5085
28558W        W44742  10.160  14.664   4.854  0.2418  0.0586  0.0859
28559W        W44743   7.923  14.882   4.289  0.1806  0.1757  0.1102
28560W        W44744  17.635  13.577  14.495  0.0413 -0.4357  0.0320
28561W        W44745  16.218   6.655  12.069 -0.0821  0.0249  0.1709
28562W        W44746   9.626  13.187  10.419  0.2616  0.0318  0.4112
28563W        W44747  10.091  19.225  13.265  0.0366 -0.1824  0.0433
28564W        W44748  13.030   9.540  12.680 -0.0879  0.1325 -0.2119
28565W        W44749  17.090  14.438   1.679  0.1766  0.0628  0.1576
28566W        W44750   7.134   5.761  12.715  0.3493 -0.1181 -0.2371
28567W        W44751   5.588  18.897   1.809 -0.1362 -0.0810 -0.1025
28568W        W44752  11.787  18.932   3.453  0.3467 -0.2423  0.0499
28569W        W44753  15.072   7.938  13.737 -0.0518  0.1562  0.2485
28570W        W44754   2.161   0.938  13.413 -0.2128  0.0841 -0.1781
28571W        W44755  12.874   5.248   0.579  0.1279  0.2533 -0.0800
28572W        W44756   2.354   3.637  11.393  0.1967  0.1918 -0.1646
28573W        W44757   8.847  17.073  11.763  0.2455  0.3599 -0.1102
28574W        W44758  17.078  10.806  13.611  0.2055 -0.0839 -0.0513
28575W        W44759  19.169   3.457  12.777 -0.1502  0.1787  0.0929
28576W        W44760   1.110   5.248  14.732 -0.1149  0.0294  0.0031
28577W        W44761  15.708  15.076   0.213 -0.0786 -0.1377 -0.0393
28578W        W44762   9.885  15.246  13.105 -0.1028  0.4576 -0.0870
28579W        W44763   8.650   0.176   0.629  0.3112  0.0579 -0.1484
28580W        W44764   9.464  12.417  13.024 -0.3651  0.0053 -0.0321
28581W        W44765  11.080  17.226  11.049  0.1834  0.0636  0.1838
28582W        W44766  12.674   1.533  12.490 -0.0076 -0.1026  0.2505
28583W        W44767  15.378  19.170   4.334 -0.0588  0.4471 -0.0332
28584W        W44768   7.633  16.603   0.489 -0.0018  0.0365  0.0016
28585W        W44769   0.390  17.385  13.438  0.1227 -0.3287  0.3455
28586W        W44770   7.760  13.232  12.250 -0.0697 -0.0765  0.1140
28587W        W44771  13.612  17.799  13.367  0.2302  0.2404 -0.1446
28588W        W44772   2.765   5.805  11.085 -0.0143  0.1035 -0.3490
28589W        W44773   4.375   7.238   3.198 -0.7336 -0.0021  0.1341
28590W        W44774  14.050   2.560   3.820 -0.0038  0.0744  0.0806
28591W        W44775   4.224  11.238   0.073  0.0355  0.0127  0.1114
28592W        W44776   5.072   1.106   3.259  0.0911  0.0610  0.2014
28593W        W44777  18.692   2.737  10.705 -0.1858 -0.0401  0.0090
28594W        W44778   3.568   5.934  13.940  0.0366  0.0681 -0.1461
28595W        W44779  12.374  11.815   4.566  0.0142  0.0626  0.2314
28596W        W44780  10.524  12.912  11.699 -0.0607  0.1463  0.3141
28597W        W44781   6.227  11.081   2.192 -0.2691 -0.1725 -0.0603
28598W        W44782   3.117  11.722   2.744  0.1656  0.1997 -0.1221
28599W        W44783  14.935   5.500   3.600 -0.4041  0.0891 -0.0035
28600W        W44784  17.021   4.668  13.967 -0.4104  0.1508  0.3691
28601W        W44785  16.742   9.466  12.378 -0.2691 -0.2391  0.0164
28602W        W44786  13.869   2.112   3.736  0.2999  0.0796 -0.1928
28603W        W44787   1.294  11.900   2.081 -0.1221 -0.0215 -0.2602
28604W        W44788  19.196   0.067  10.789  0.1209  0.1339 -0.1419
28605W        W44789  10.483  16.113   0.195  0.4253  0.2944  0.2858
28606W        W44790  18.966   7.190   1.058  0.1518 -0.0988 -0.0009
28607W        W44791   4.133  15.664   3.679 -0.0084 -0.1958  0.1569
28608W        W44792   4.501  12.020   3.605  0.3005 -0.1193  0.0900
28609W        W44793   8.470  10.596   2.464  0.0152 -0.0038 -0.1963
28610W        W44794  18.170   2.225  12.933  0.0327  0.0908 -0.3723
28611W        W44795   3.015   1.159  12.961  0.1957 -0.0627 -0.1881
28612W        W44796  18.346   2.587   3.599  0.3774 -0.2569  0.1283
28613W        W44797  19.032  16.112  11.584 -0.1885 -0.1752  0.2262
28614W        W44798  10.664  14.797   1.985 -0.0615  0.0176 -0.1116
28615W        W44799   9.545  18.311   3.726  0.1633 -0.0052  0.2291
28616W        W44800   6.078  14.623  11.080  0.0952  0.1105  0.0137
28617W        W44801   1.423  13.577   1.544 -0.1455  0.1011  0.0420
28618W        W44802  13.325   9.071  13.119  0.3261 -0.1830 -0.1984
28619W        W44803  16.258  16.190  10.747  0.0445 -0.0404 -0.2452
28620W        W44804   1.358  10.627  12.298 -0.0446  0.0270  0.2092
28621W        W44805   7.537   7.863   5.152 -0.2356  0.1748 -0.1545
28622W        W44806  10.094  18.390   2.954 -0.0399  0.0366  0.0332
28623W        W44807   1.097   3.179   0.688  0.2889  0.0241  0.0428
28624W        W44808  19.386   5.824   1.397 -0.3285  0.1068  0.0487
28625W        W44809   8.093  18.192  13.344  0.0277  0.2725  0.1025
28626W        W44810   1.979  11.949  12.241  0.0540  0.3666  0.2520
28627W        W44811   7.371  17.194  13.717 -0.1484  0.0027 -0.1691
28628W        W44812   7.168   2.790  12.384  0.0834  0.3832  0.3659
28629W        W44813  15.314   2.297  11.068  0.2084  0.0522  0.2910
28630W        W44814   6.059   0.396   4.368 -0.1407 -0.2972  0.2008
28631W        W44815   4.583  14.149  13.653  0.1132 -0.0953  0.1853
28632W        W44816   8.758   5.977   1.435  0.1810  0.1620 -0.0229
28633W        W44817   2.021   0.526   1.936 -0.2453 -0.2414 -0.1507
28634W        W44818   2.139  18.993  14.717 -0.3217  0.0253  0.3617
28635W        W44819   6.425  10.436  11.769 -0.3219 -0.1439 -0.1921
28636W        W44820   8.709  14.042  10.261 -0.1164 -0.3147  0.0344
28637W        W44821   3.416   6.959  14.747 -0.1988 -0.0788  0.4734
28638W        W44822  10.589  15.791   0.669  0.1050 -0.1610  0.3745
28639W        W44823   3.604  17.947  10.081  0.0296  0.1596  0.1974
28640W        W44824   3.719   5.001   4.621 -0.2846  0.1218 -0.1024
28641W        W44825  13.244   6.875  12.458 -0.2044  0.0305 -0.1510
28642W        W44826  13.068   5.671   4.494  0.1959  0.2309  0.1190
28643W        W44827  18.804  12.043  14.304  0.0188  0.1927  0.0340
28644W        W44828  10.221   0.288   5.034  0.1723 -0.0308  0.1151
28645W        W44829  10.332   4.241  10.504  0.2422  0.1788 -0.3804
28646W        W44830   2.088  18.093   1.459  0.0341  0.1016 -0.0299
28647W        W44831  13.846  14.137  10.284  0.0328  0.3081  0.2359
28648W        W44832  15.552  10.555  11.658 -0.3331 -0.2129 -0.0410
28649W        W44833  16.347  15.437   3.623  0.1443 -0.1523  0.1686
28650W        W44834  15.839   0.105  10.091 -0.0183  0.0631  0.0738
28651W        W44835  18.016  10.868   0.096 -0.1119  0.0519  0.1200
28652W        W44836   7.872   9.271  11.549 -0.0947 -0.0912  0.0715
28653W        W44837   9.795   6.654  14.401 -0.1468 -0.0733  0.1349
28654W        W44838   7.296   2.630   1.887  0.1200 -0.4370  0.0424
28655W        W44839  17.443   1.010   0.192  0.0248  0.1988  0.2311
28656W        W44840   3.047   2.348   0.296  0.1826  0.1248 -0.2069
28657W        W44841   6.869   1.325  12.328  0.4323  0.2484 -0.1131
28658W        W44842   2.096  10.268  14.762 -0.1263 -0.1572 -0.0179
28659W        W44843  11.781  18.572  12.348  0.0527 -0.1192 -0.2934
28660W        W44844  12.030   8.413  14.265 -0.0777 -0.0774 -0.0856
28661W        W44845  10.711  15.079  13.072 -0.1741 -0.0721  0.3251
28662W        W44846  12.967   4.064  14.312  0.0244 -0.0280 -0.0222
28663W        W44847   6.215  15.071  11.781 -0.2599 -0.0302  0.1674
28664W        W44848   9.773   6.760   2.437  0.1845  0.0942  0.1290
28665W        W44849   1.396  15.989  11.194  0.2302 -0.0224 -0.1224
28666W        W44850   2.605  15.437   4.921 -0.0868  0.3165  0.0589
28667W        W44851  14.005   2.742  13.272  0.0724 -0.0008 -0.0054
28668W        W44852  14.623   9.932  12.927 -0.4390 -0.0252  0.1994
28669W        W44853   5.955   8.110   2.892  0.3199  0.6281  0.3552
28670W        W44854   7.146   2.630   4.742 -0.2525 -0.0895  0.2080
28671W        W44855  18.180   1.255  11.837  0.3422  0.1881 -0.0362
28672W        W44856   9.358   1.631   4.060 -0.2509  0.0675  0.2282
28673W        W44857   9.586   9.795   4.456 -0.0715 -0.0810 -0.2693
28674W        W44858   7.304  13.845   4.569  0.2320  0.0883  0.1202
28675W        W44859  18.740   0.317   5.461  0.1462  0.0294 -0.2652
28676W        W44860   9.733  16.125   2.874  0.3178  0.4195  0.0095
28677W        W44861   1.150   0.431  12.925 -0.2895 -0.1214 -0.4272
28678W        W44862  16.635  14.538  11.419  0.0704 -0.0106 -0.0211
28679W        W44863   6.913  12.920   2.093  0.1939 -0.2081 -0.3979
28680W        W44864  18.045   5.521   2.021  0.1085 -0.1171 -0.1462
28681W        W44865  15.202  14.200   4.051  0.0395 -0.2420 -0.1726
28682W        W44866  15.896  13.495  10.801 -0.2595 -0.2826  0.0947
28683W        W44867   1.362   8.848  12.308  0.1590 -0.1026  0.0477
28684W        W44868   7.424  12.512   9.878  0.0716 -0.0140 -0.0965
28685W        W44869  15.349  14.638  12.766  0.0022  0.3216 -0.2593
28686W        W44870  13.930   1.616  12.764 -0.0321  0.0477 -0.1146
28687W        W44871  10.191   9.891  11.354  0.1860 -0.0936 -0.1428
28688W        W44872   7.967   9.267   1.690  0.3352 -0.1424 -0.1424
28689W        W44873   8.252  11.729   2.684 -0.2347  0.2333 -0.1907
28690W        W44874  16.391  14.093  10.343 -0.1614  0.2729 -0.0275
28691W        W44875   7.405   8.863  13.296 -0.1057 -0.0812 -0.2592
28692W        W44876  14.526   8.440  13.150 -0.0131  0.0522 -0.2823
28693W        W44877   7.944  11.205   0.868  0.4575  0.3797  0.0857
28694W        W44878  18.371   4.198  11.583 -0.0739  0.1402  0.0332
28695W        W44879  10.666  11.604  14.072 -0.2268  0.0503  0.0023
28696W        W44880  12.052   6.413  12.848 -0.0392  0.1018  0.1896
28697W        W44881   3.130  12.219   2.680 -0.0289  0.5000  0.0375
28698W        W44882   1.401   6.678  13.900 -0.0390 -0.3902  0.2646
28699W        W44883   0.672  17.126   3.646 -0.4073  0.3629  0.0003
28700W        W44884   4.098   6.317   5.352  0.1333  0.4347 -0.1952
28701W        W44885   3.527  13.602  14.596  0.0004  0.2719 -0.0452
28702W        W44886   8.527   3.693  10.124  0.0590 -0.1770  0.0695
28703W        W44887   5.270   8.128   4.729  0.1515 -0.2456  0.0135
28704W        W44888   3.428   5.358   3.958  0.3110 -0.4699  0.1485
28705W        W44889   0.888   3.658   0.575  0.1827  0.2873  0.0111
28706W        W44890   6.597  15.397  10.934 -0.0716  0.0634  0.0501
28707W        W44891  13.425  16.915  11.194 -0.1653  0.0985  0.2872
28708W        W44892  15.716   8.118   1.271 -0.3173 -0.0204 -0.0843
28709W        W44893   2.045   8.921  13.499 -0.2822  0.0622 -0.1517
28710W        W44894  14.495  16.632   3.610 -0.2436 -0.1318  0.0677
28711W        W44895   9.569  19.187   2.945  0.1722  0.2547  0.1006
28712W        W44896   5.567   0.393   2.007  0.0536 -0.1567  0.2062
28713W        W44897   0.476  11.594   4.575  0.1527 -0.0253 -0.0394
28714W        W44898   6.795   7.768  10.496 -0.0784  0.1150  0.3281
28715W        W44899  17.740  14.341   2.254  0.1241 -0.1265 -0.0324
28716W        W44900   5.143   9.023  13.114  0.0265  0.0215  0.1767
28717W        W44901  17.198  18.988  13.404  0.1109  0.1313 -0.0989
28718W        W44902   0.684   8.550   2.221  0.1859 -0.1729  0.0573
28719W        W44903  18.147   3.429   3.770  0.1092 -0.3380  0.0332
28720W        W44904   1.102  16.498   2.014  0.1160 -0.0887  0.2322
28721W        W44905   0.808   3.838  13.079 -0.0556 -0.2416  0.2080
28722W        W44906  15.778  14.354   1.035  0.0052 -0.2628 -0.2283
28723W        W44907   4.370   0.469  10.495  0.2282  0.0129  0.0715
28724W        W44908   2.490   3.441   1.092  0.0236  0.0776  0.1901
28725W        W44909   6.438   1.157  12.645  0.2297 -0.1216 -0.1114
28726W        W44910   1.868   3.058   0.063 -0.0593  0.1905  0.0870
28727W        W44911  10.048  18.697   2.111  0.2028  0.1714  0.0362
28728W        W44912  10.294  17.166  14.937  0.3486 -0.1686 -0.1441
28729W        W44913  19.285  12.227   1.720 -0.1153  0.0346 -0.0038
28730W        W44914   6.160  18.864  11.587 -0.2091  0.1229 -0.0186
28731W        W44915  11.148  11.579   1.384  0.1116 -0.1571  0.1675
28732W        W44916   2.667   7.092   2.532 -0.1039 -0.1964 -0.2781
28733W        W44917   4.225   3.713  12.189 -0.0975  0.0304  0.0029
28734W        W44918  16.268  11.577   5.620 -0.2993  0.1473  0.2154
28735W        W44919  15.067  11.051   3.825  0.2878 -0.0461 -0.0528
28736W        W44920   0.960   0.670  11.049 -0.2519  0.1680  0.2273
28737W        W44921  11.677   2.494   0.643 -0.0194 -0.2411 -0.1187
28738W        W44922  12.545  16.792   3.846 -0.0579  0.1137  0.2932
28739W        W44923  15.808  12.013   4.995  0.2771  0.0583  0.3334
28740W        W44924  14.566   9.298  11.865 -0.1618 -0.2534  0.0347
28741W        W44925   8.289  11.092  12.395 -0.0690 -0.0496  0.0971
28742W        W44926  10.443  13.992   1.660 -0.0991 -0.1430  0.4237
28743W        W44927  18.134   9.814  12.883  0.1113  0.3467  0.3133
28744W        W44928   0.702   2.960  12.651 -0.2851 -0.1371 -0.0646
28745W        W44929   9.040   1.188   4.764  0.1689  0.0103 -0.1472
28746W        W44930   5.423   0.212   3.854  0.1541  0.1597  0.0994
28747W        W44931   6.742  10.664   0.984  0.2009  0.2095  0.0478
28748W        W44932  11.163  11.383  11.554 -0.0080  0.0472 -0.2583
28749W        W44933  14.519   4.284  11.388 -0.1186 -0.0070 -0.0437
28750W        W44934   6.245  17.415  14.305 -0.2243  0.0741  0.1123
28751W        W44935   2.230   8.666   0.677 -0.2455  0.3496 -0.1785
28752W        W44936   6.483   9.984   1.399  0.1334  0.0356  0.0870
28753W        W44937  16.022   5.726  14.826 -0.0415  0.3125  0.4228
28754W        W44938   4.175  15.232   0.866  0.2663  0.0209 -0.3499
28755W        W44939   8.919  15.662  14.241 -0.4475  0.3108 -0.0394
28756W        W44940  14.366  17.691  10.527 -0.1055 -0.3467 -0.0361
28757W        W44941   5.551  13.012   1.931 -0.3244  0.0322 -0.1007
28758W        W44942  16.016  12.751   0.824 -0.1097 -0.0024 -0.2219
28759W        W44943   6.755  11.822   4.927 -0.2516  0.1175  0.1350
28760W        W44944  15.635  13.712  14.790  0.3289  0.2542  0.0729
28761W        W44945   6.265   2.833   1.660  0.2596  0.0744  0.1540
28762W        W44946   1.113   4.514   0.358  0.1534  0.0446 -0.0900
28763W        W44947  14.502   9.654   1.759 -0.1403  0.0837  0.2236
28764W        W44948  13.111  14.944  11.968 -0.0426  0.1241 -0.0251
28765W        W44949   4.106   7.636  11.733  0.0037  0.2348  0.3114
28766W        W44950   7.115   9.502   3.917 -0.1174 -0.1729  0.2134
28767W        W44951   8.689   2.898   4.621  0.3419  0.0950  0.0381
28768W        W44952  11.608   0.576  13.952 -0.0315  0.0027  0.1935
28769W        W44953   7.118  17.173   1.958 -0.2538  0.2693 -0.0606
28770W        W44954  16.245  16.158   2.954  0.1049  0.0003 -0.1897
28771W        W44955   8.997  12.429   3.024 -0.0080 -0.1266 -0.1312
28772W        W44956  19.062   0.223   0.134 -0.1436  0.1950 -0.1370
28773W        W44957  13.311  14.165  13.802  0.1263 -0.0553  0.0377
28774W        W44958   9.957  15.900   0.436 -0.1124 -0.3416  0.2135
28775W        W44959  11.628   7.338  11.917 -0.2455 -0.0132 -0.1839
28776W        W44960  14.393   8.296  14.097 -0.1556 -0.0688  0.1147
28777W        W44961  14.748   0.360   4.750 -0.0261 -0.3063  0.1229
28778W        W44962  15.523  11.690  11.417 -0.1114  0.0119  0.0035
28779W        W44963   2.536  11.231  12.147 -0.2389  0.1959 -0.0734
28780W        W44964  18.346   4.329  13.915  0.0324  0.3044 -0.1088
28781W        W44965   9.400  15.334  10.203  0.1641  0.1667  0.1690
28782W        W44966  15.551  14.796  13.451 -0.2785  0.1842  0.0308
28783W        W44967   0.124   0.381   3.440 -0.1730  0.1210  0.3091
28784W        W44968   5.647  10.327   5.104 -0.4076  0.2704 -0.2131
28785W        W44969   1.236  12.254   2.981  0.0666  0.0175 -0.1497
28786W        W44970  10.572   1.234  12.073 -0.5588 -0.1949 -0.0875
28787W        W44971   7.782  14.569  13.316  0.0865  0.1091  0.3096
28788W        W44972  10.343  15.108   3.810 -0.1064 -0.0915 -0.0609
28789W        W44973   2.516  14.513  10.558 -0.2962 -0.1545  0.0878
28790W        W44974  12.606   6.054   3.782 -0.0614  0.0433 -0.0065
28791W        W44975  12.051   9.818   2.138 -0.0529 -0.1052  0.0141
28792W        W44976   6.126   9.574   9.906 -0.0924  0.2335 -0.3598
28793W        W44977  13.539   2.068  13.475 -0.4303  0.4190 -0.0961
28794W        W44978   1.657   7.105  13.904 -0.2121  0.2200 -0.1520
28795W        W44979   2.321   4.789   3.135 -0.0015 -0.3072  0.2812
28796W        W44980   5.109   6.381  10.805 -0.0522 -0.1643 -0.3409
28797W        W44981  18.662   5.463  11.773  0.2331  0.2218  0.4957
28798W        W44982   1.669  15.953   0.125  0.1884 -0.0829 -0.3241
28799W        W44983  13.434   2.533   5.114  0.0309  0.1518  0.1889
28800W        W44984  15.617   7.003   5.301  0.1157 -0.0570  0.1005
28801W        W44985  13.156   9.352  12.109  0.0301  0.0096  0.5485
28802W        W44986   2.239   6.052   3.799  0.2013  0.2027  0.0239
28803W        W44987  18.090   9.115   3.873  0.0036  0.2301  0.0050
28804W        W44988   5.256  14.845   3.065 -0.2235 -0.1312 -0.1366
28805W        W44989  10.167   9.675   2.530 -0.0593 -0.1662 -0.1065
28806W        W44990   6.587  18.775   2.908  0.2047  0.1319 -0.0690
28807W        W44991   0.298  17.575   0.349 -0.0907 -0.1237  0.3156
28808W        W44992   3.094   3.521  11.024 -0.1805 -0.0754 -0.1800
28809W        W44993   8.332   2.346  13.094  0.0925  0.2702  0.0869
28810W        W44994   1.797   2.592   5.626 -0.4756  0.2815 -0.2361
28811W        W44995   3.782  10.595  12.056  0.2457  0.2287  0.0784
28812W        W44996   3.384  13.311   1.210  0.0896 -0.0030  0.0306
28813W        W44997   4.724   2.916   0.532 -0.3173  0.4384  0.1657
28814W        W44998  17.946   1.922   4.384  0.1213 -0.0430 -0.1310
28815W        W44999   2.257  19.129  11.290  0.0231 -0.2910 -0.0620
28816W        W45000  11.721   0.429   0.185 -0.1106  0.0137  0.0693
28817W        W45001  15.565   7.404  12.683  0.0266  0.1943 -0.0344
28818W        W45002  16.697  12.963   2.600 -0.0299 -0.2086 -0.1738
28819W        W45003   8.518   7.928   3.525  0.0080 -0.2679 -0.3037
28820W        W45004   2.742   4.153   3.813  0.3390 -0.1441  0.0542
28821W        W45005   1.429   1.777  14.243 -0.0595  0.1725 -0.4212
28822W        W45006  13.767   0.340   3.129  0.1296  0.2396 -0.1561
28823W        W45007   0.360   2.900   4.074 -0.2207 -0.0413 -0.2265
28824W        W45008   2.321  14.072  10.409 -0.2901 -0.3513  0.0026
28825W        W45009  12.253  13.163  13.938  0.1419 -0.2090 -0.1991
28826W        W45010   3.355   7.808   1.342 -0.3508 -0.2493 -0.0562
28827W        W45011  17.812  13.293  12.605  0.0633  0.1259  0.1489
28828W        W45012  15.157  18.642   1.752  0.0040 -0.1504  0.1331
28829W        W45013  14.447  16.443   1.963  0.3221 -0.1453 -0.0548
28830W        W45014  18.982   7.956  13.085  0.1110 -0.2272  0.1526
28831W        W45015   3.035  16.015  14.511  0.1041  0.5704 -0.1081
28832W        W45016   5.784   3.057  11.083 -0.2694  0.1354  0.3105
28833W        W45017  10.831   4.517   2.945  0.1626  0.1959 -0.0205
28834W        W45018   9.484   0.491   1.033 -0.5686 -0.1266 -0.1404
28835W        W45019   5.439  15.240   0.460 -0.0817 -0.1001  0.3298
28836W        W45020  18.199   3.605   0.982 -0.3250 -0.0185 -0.0984
28837W        W45021  18.725  13.033  11.863  0.0387  0.0669  0.1457
28838W        W45022  10.389  19.164  11.913  0.0553 -0.3451 -0.0606
28839W        W45023  16.100   0.032   1.071 -0.1032 -0.1200  0.2370
28840W        W45024  10.502  19.247  12.487 -0.1093 -0.1117  0.0364
28841W        W45025  18.987  19.094   4.364  0.1797  0.1132 -0.0595
28842W        W45026  10.434  10.282  14.708 -0.0485 -0.0892  0.1698
28843W        W45027   6.005  15.261   5.786 -0.0073  0.0400 -0.0295
28844W        W45028   1.621   5.318   3.513  0.1713 -0.1391 -0.0540
28845W        W45029   1.845  14.529   2.394 -0.1626 -0.0075 -0.0165
28846W        W45030   0.024  11.026   0.236  0.0033  0.3203  0.0017
28847W        W45031  17.864  13.882   1.576 -0.0963  0.0060  0.2241
28848W        W45032  19.159  12.727   6.103  0.1153 -0.0142 -0.1677
28849W        W45033  18.609   3.679   9.632 -0.1374  0.1363 -0.3028
28850W        W45034  17.449  12.513  14.916  0.0890 -0.1315 -0.5086
28851W        W45035   8.047   4.225   3.875 -0.1028 -0.0657 -0.0163
28852W        W45036  18.634  18.351   4.209 -0.0170  0.1453 -0.1512
28853W        W45037  15.360  17.855   1.420  0.0622  0.5167 -0.3222
28854W        W45038  15.482  10.330   1.989  0.0015 -0.1486  0.1291
28855W        W45039   8.265  10.494  13.453  0.4073  0.0880 -0.0952
28856W        W45040   9.101   6.829  10.791  0.0571 -0.2544  0.0748
28857W        W45041  17.342  16.687  13.068 -0.3535  0.1501 -0.1596
28858W        W45042  13.455   1.633  12.041  0.1659  0.0838 -0.2730
28859W        W45043  18.276   2.512  11.501 -0.1012  0.2984  0.0357
28860W        W45044   1.649   8.899  12.726  0.1469  0.1809 -0.1571
28861W        W45045  15.498   0.531  12.836  0.2679  0.0787  0.1432
28862W        W45046   6.661  18.386   4.236  0.0675 -0.1726  0.2544
28863W        W45047   2.494   7.785   2.205  0.2055  0.1472  0.1739
28864W        W45048   1.809   3.630  13.688 -0.1651  0.3290 -0.0182
28865W        W45049   9.042   9.579   3.541  0.2577  0.0473  0.2410
28866W        W45050  18.412  12.994   4.364  0.0679  0.2995 -0.1071
28867W        W45051   9.688  15.228   3.215  0.1191 -0.0880  0.0253
28868W        W45052  18.607   8.489  14.620  0.1617 -0.0223 -0.1291
28869W        W45053   3.810   1.343   2.096  0.2302  0.3645 -0.3580
28870W        W45054   0.855  13.881   3.531  0.2065  0.0806  0.2100
28871W        W45055   4.671  18.691   0.811  0.0391  0.1063 -0.1559
28872W        W45056  12.602   1.414   0.316  0.0832 -0.1154 -0.1767
28873W        W45057   2.490   6.404  14.721  0.0897 -0.2166 -0.1826
28874W        W45058   1.701   5.589   1.670 -0.1758 -0.0723  0.1249
28875W        W45059   4.749   2.785   2.552  0.1864  0.1346  0.2058
28876W        W45060  16.146   6.866   0.369  0.3141  0.0243 -0.1702
28877W        W45061   4.034   6.868   6.021 -0.0891 -0.4887 -0.0081
28878W        W45062   8.021  18.822   1.037 -0.3280 -0.0007 -0.0424
28879W        W45063   3.729   7.498   4.344 -0.2068 -0.0699 -0.2538
28880W        W45064  17.685   5.248   2.175  0.0884  0.1887  0.0222
28881W        W45065  18.963  15.297  12.100  0.0524  0.3556 -0.2857
28882W        W45066  13.298   5.463   0.309 -0.2099 -0.0402  0.1541
28883W        W45067  11.375  12.848   3.152  0.0186 -0.3303 -0.4370
28884W        W45068  15.971  18.752  12.667  0.1822 -0.3191  0.0602
28885W        W45069   0.243  14.425  13.929  0.3500  0.0140 -0.0934
28886W        W45070  10.214   7.155  11.791  0.3026 -0.2057 -0.0093
28887W        W45071   8.952  11.074  10.906 -0.2819  0.3609  0.0251
28888W        W45072   2.940  12.883  11.356 -0.0947 -0.1201 -0.1295
28889W        W45073  16.180  19.304   1.568 -0.3329  0.0130 -0.1171
28890W        W45074  15.007   8.877   5.151  0.2142  0.1392 -0.1889
28891W        W45075  13.870   6.731  11.290 -0.0401  0.2731 -0.0415
28892W        W45076  15.065   2.656  14.176 -0.1397  0.0325 -0.1621
28893W        W45077  17.240  19.215  13.884 -0.0308 -0.0216  0.0058
28894W        W45078   3.757   8.038  11.300 -0.0320 -0.2402  0.0874
28895W        W45079   1.390   8.189  11.614 -0.2201 -0.3257  0.0983
28896W        W45080  10.692  11.637   1.177  0.0285 -0.0425  0.2375
28897W        W45081   0.408  14.121  13.568 -0.3420  0.2095 -0.1971
28898W        W45082   9.021  17.314  10.513 -0.1954 -0.1339  0.3553
28899W        W45083   5.907  18.732  12.785  0.2761  0.2062  0.0309
28900W        W45084  13.259  13.130  12.868  0.1759  0.3298  0.0534
28901W        W45085   8.052  10.988  13.929 -0.2445 -0.1026 -0.0789
28902W        W45086  14.761   4.061   4.989  0.1951  0.2480  0.0701
28903W        W45087  12.235  12.186  11.405  0.1213  0.0296  0.2144
28904W        W45088  14.815  14.357   1.762 -0.0565  0.0898  0.1406
28905W        W45089   0.659   8.189  14.136 -0.0581  0.1299  0.0099
28906W        W45090   6.274  11.033  12.407 -0.0802 -0.2540 -0.1140
28907W        W45091  12.166  12.483   4.761 -0.1421 -0.1254  0.1360
28908W        W45092   1.817  17.110   4.764 -0.1130  0.4265 -0.1815
28909W        W45093  12.885  15.817  13.092  0.2429  0.4638  0.0536
28910W        W45094   9.801  16.903   1.655 -0.0498  0.2149 -0.0655
28911W        W45095  11.092  18.215   4.764 -0.1435 -0.2879 -0.2644
28912W        W45096  14.977   2.037  14.047  0.1452 -0.0025 -0.0488
28913W        W45097   7.548  17.589   2.733 -0.0613  0.2135 -0.2411
28914W        W45098   1.587   6.506  12.904  0.2284 -0.2227  0.0352
28915W        W45099  17.406  15.082   1.678 -0.0893 -0.0066  0.1466
28916W        W45100  15.093   9.568  14.598 -0.1060 -0.0568  0.0047
28917W        W45101  17.310  17.484   5.034 -0.0100 -0.1247  0.4068
28918W        W45102  18.146   8.119   3.528 -0.2122 -0.2140  0.1801
28919W        W45103  10.693  13.379  14.736 -0.3231 -0.1540  0.1320
28920W        W45104   2.547   4.740   0.478 -0.1721 -0.1223 -0.2257
28921W        W45105   2.117  13.697  12.092 -0.0798  0.0268 -0.1489
28922W        W45106   2.236  16.646  11.765  0.0628 -0.3620  0.7143
28923W        W45107  16.446  10.178   4.026 -0.1332 -0.1491 -0.2699
28924W        W45108  12.410   6.813  10.354  0.1419 -0.2078  0.0872
28925W        W45109  17.090  11.272  13.710 -0.1309 -0.2386  0.1563
28926W        W45110  18.556   5.568   4.758  0.0481  0.0690 -0.0648
28927W        W45111  11.076   2.383   3.443 -0.2178  0.1287 -0.2051
28928W        W45112   5.802  17.898   2.626  0.1895  0.1458  0.0694
28929W        W45113   8.844   0.160   3.266 -0.2859 -0.1206  0.0158
28930W        W45114  10.645  13.019   5.601 -0.0746  0.2011 -0.0100
28931W        W45115   6.391   6.540  14.081 -0.1913 -0.3840 -0.1738
28932W        W45116   4.190   4.178  11.913 -0.1399 -0.1098 -0.3432
28933W        W45117  17.357  15.849  13.369  0.0499  0.0461  0.1821
28934W        W45118   3.489  10.005   1.719  0.2734 -0.1956 -0.1084
28935W        W45119   7.320  17.796   4.720  0.1246  0.2070 -0.2162
28936W        W45120  13.536  19.263  14.200 -0.0825 -0.3647  0.1133
28937W        W45121   9.599   3.252  12.873  0.0548 -0.2255 -0.3588
28938W        W45122  17.374   1.127   2.408 -0.0176  0.2189 -0.1628
28939W        W45123   4.989   6.843   4.873 -0.0431  0.1383  0.0966
28940W        W45124   2.465   2.603   3.838  0.0122 -0.4080  0.0431
28941W        W45125   1.913  14.120  11.155  0.0366  0.1030 -0.0581
28942W        W45126  13.484   3.085  14.547 -0.0159  0.2190  0.0150
28943W        W45127   1.651   8.667   0.730  0.2112  0.2257  0.0458
28944W        W45128   6.540   6.777  12.517  0.1051 -0.3451 -0.1453
28945W        W45129   9.620  13.275   3.543  0.1208  0.1856  0.2333
28946W        W45130  13.765  17.355  11.878  0.0662  0.1535  0.0260
28947W        W45131   2.139   3.206  11.091 -0.1133 -0.1000  0.0314
28948W        W45132   0.831   6.351  11.857  0.1567 -0.0717  0.0557
28949W        W45133   3.527   3.542  11.301  0.0655  0.0486  0.1272
28950W        W45134   8.355  18.676  13.808  0.1985 -0.1255  0.1410
28951W        W45135   6.612   0.470  11.836  0.1353  0.0949  0.1355
28952W        W45136   9.645  12.874   2.354  0.0836 -0.2440  0.0201
28953W        W45137  18.076   3.749  10.337 -0.1891  0.0688  0.0539
28954W        W45138   5.562   6.998  10.802  0.2304  0.0352 -0.1606
28955W        W45139  14.140  18.936   2.592 -0.0600  0.0482 -0.1128
28956W        W45140   9.774   7.112  12.549 -0.2719 -0.1325 -0.1147
28957W        W45141  13.813  11.166   2.503 -0.1433 -0.1334 -0.2447
28958W        W45142  12.408   9.129   1.066 -0.0727  0.0776 -0.1189
28959W        W45143   6.197   7.307   3.457  0.0337 -0.0277 -0.1906
28960W        W45144  16.544   9.075   4.557 -0.0561 -0.0304  0.1200
28961W        W45145  13.990  13.558   3.874 -0.1741 -0.3397  0.0351
28962W        W45146   0.502   5.808   3.742  0.2722 -0.5248  0.3764
28963W        W45147   7.877  11.864  11.802 -0.0234 -0.1520  0.0219
28964W        W45148  11.251  13.110  11.582 -0.1815  0.3050 -0.0814
28965W        W45149  11.636  12.387  10.304  0.0832 -0.0446 -0.3172
28966W        W45150  15.309  10.993   1.062  0.1443  0.0889  0.1163
28967W        W45151  17.217  14.107  13.869 -0.1692  0.0973 -0.2222
28968W        W45152   9.759  15.556   4.584 -0.1002  0.1042 -0.1414
28969W        W45153  13.673   9.958  14.284 -0.2628  0.2110 -0.1501
28970W        W45154  17.683   9.071   1.516  0.3807  0.2546 -0.1983
28971W        W45155   2.365   6.832   0.026 -0.3036 -0.0361 -0.0320
28972W        W45156   0.106  17.346  14.752  0.1792 -0.2442  0.1590
28973W        W45157   7.981  11.564   3.487 -0.0322 -0.2893  0.0448
28974W        W45158   5.308   8.823  14.678  0.4030 -0.0406  0.0284
28975W        W45159   2.125  14.773   3.723  0.2106  0.1456 -0.3039
28976W        W45160  10.573  16.270   2.747  0.1539 -0.0243 -0.3129
28977W        W45161  17.128   7.849   0.182  0.2923  0.0708  0.2726
28978W        W45162  18.011  10.092   5.242  0.3491 -0.0756  0.3856
28979W        W45163   9.442   4.405  10.393 -0.0329 -0.2227  0.3410
28980W        W45164  18.304  11.581  11.807 -0.1119  0.0040 -0.4576
28981W        W45165  16.919  14.423  10.994 -0.0634  0.2276 -0.1291
28982W        W45166  10.536  14.263  13.572  0.3637 -0.0338  0.1971
28983W        W45167  14.213   7.836   2.514  0.0594 -0.1817 -0.1234
28984W        W45168   1.160  17.825  12.539 -0.2296 -0.0164  0.4122
28985W        W45169  11.133   1.755  10.562  0.2271  0.0138  0.1805
28986W        W45170   5.515  18.209  13.432  0.1671  0.1620  0.0542
28987W        W45171   6.003  15.684   3.636  0.1105 -0.2600  0.5113
28988W        W45172   3.696  17.257   3.235 -0.0201 -0.0677  0.0573
28989W        W45173  13.725  10.753   3.795  0.1730  0.3125 -0.0088
28990W        W45174  10.346   1.015   0.177  0.2075  0.0092  0.1204
28991W        W45175   0.654  17.621   0.835  0.0256  0.1068 -0.3016
28992W        W45176   2.747  13.036   2.465 -0.1691 -0.2471 -0.0731
28993W        W45177   6.199   9.128  14.807  0.2236 -0.1842  0.0968
28994W        W45178  14.520  12.650  12.931  0.3426 -0.0625  0.0691
28995W        W45179   3.812  13.869  11.924  0.3422  0.0057 -0.1345
28996W        W45180  16.016  11.433   9.443 -0.1589 -0.1438  0.0454
28997W        W45181  18.738  10.976  11.144  0.0902  0.1248  0.0364
28998W        W45182  15.084  18.373  12.868 -0.0026  0.0673 -0.0099
28999W        W45183   2.151   0.257  12.681  0.0389  0.2294 -0.0470
29000W        W45184   7.831  13.782  11.452  0.3427  0.2197 -0.0820
29001W        W45185   6.534  14.534  11.989 -0.1760 -0.0300  0.2842
29002W        W45186   7.073  10.894   2.886 -0.2638 -0.0731  0.0174
29003W        W45187   6.725  16.961  10.391 -0.0376 -0.0287  0.3158
29004W        W45188  14.781   3.924   1.113  0.2075  0.3530 -0.0228
29005W        W45189   4.124  13.829  11.568  0.3834  0.1836 -0.1689
29006W        W45190  16.698   5.000  11.447 -0.3957 -0.2366 -0.2383
29007W        W45191  19.313   4.446   5.467 -0.2234 -0.0764  0.0001
29008W        W45192  14.031   5.548   3.494 -0.0404  0.1265  0.1719
29009W        W45193  16.509   2.138   1.855 -0.0827 -0.1112  0.0537
29010W        W45194   1.273  16.633  11.725  0.1163  0.0426  0.1754
29011W        W45195   0.779   4.660   4.553 -0.0922 -0.0990 -0.2293
29012W        W45196   5.211   1.770  13.068 -0.2034 -0.1075 -0.4047
29013W        W45197  13.429   2.312   3.811 -0.0378 -0.2464 -0.2633
29014W        W45198   2.486  16.517  14.934  0.1585  0.0672  0.1399
29015W        W45199   9.982  16.955  12.403 -0.1228  0.0789 -0.0206
29016W        W45200  14.129   4.883   9.199  0.0315 -0.1046  0.1531
29017W        W45201  11.388   8.452   2.047  0.1160 -0.0071  0.0240
29018W        W45202  12.127   6.067  11.928 -0.0221 -0.0605 -0.0622
29019W        W45203  14.700   3.364  12.626 -0.2898  0.0541  0.0176
29020W        W45204   4.454   9.817   0.882  0.1782  0.4487  0.1108
29021W        W45205   3.409  15.571   1.266 -0.3431  0.1565  0.0728
29022W        W45206  16.490   8.575   9.631  0.3164  0.2048  0.0143
29023W        W45207   1.557  12.062   1.058 -0.2956 -0.0221  0.0536
29024W        W45208  18.231  10.939  13.056 -0.0886  0.0359  0.2066
29025W        W45209  14.191   4.386  14.217 -0.2522  0.2999 -0.1348
29026W        W45210  18.982   3.381  11.304  0.2393  0.1918  0.0065
29027W        W45211  14.922   3.809   0.577  0.1010 -0.1924 -0.1889
29028W        W45212  15.362   3.933   2.178 -0.1960  0.3210  0.0386
29029W        W45213  12.155  17.452   1.553  0.2716 -0.0105  0.3814
29030W        W45214   4.506   6.641  11.650 -0.0759 -0.3140  0.0352
29031W        W45215   2.129   5.435   0.048  0.2884 -0.2778  0.0150
29032W        W45216  10.568   2.867  13.557 -0.0504  0.3333 -0.0789
29033W        W45217  15.405  13.581   2.301 -0.3001  0.0684 -0.1975
29034W        W45218  12.889   0.472   2.976 -0.1000 -0.0263 -0.0393
29035W        W45219  13.194   9.932   0.265  0.0673 -0.0712 -0.1142
29036W        W45220  12.042   6.150  13.714  0.0451  0.2235  0.2905
29037W        W45221  16.029  17.108  10.859 -0.0265 -0.0172 -0.2043
29038W        W45222  19.196   1.268  11.923  0.0595  0.0955 -0.3973
29039W        W45223   8.480  14.604   0.012  0.0096 -0.2063  0.0443
29040W        W45224   6.274   7.720  12.265 -0.3017  0.0811  0.2071
29041W        W45225   4.464   1.560  13.719 -0.0930  0.1488  0.0609
29042W        W45226   2.165  14.792   0.995 -0.2914 -0.1063 -0.0086
29043W        W45227   6.867  18.249   3.412 -0.0627 -0.2727  0.0673
29044W        W45228  13.888   3.760   4.186  0.0666 -0.0469  0.1082
29045W        W45229   6.400   5.589  12.212  0.3351 -0.2189  0.2279
29046W        W45230   9.080  15.300   4.159 -0.2341 -0.2837 -0.3699
29047W        W45231   4.687   3.637   0.091  0.1017 -0.2854  0.1674
29048W        W45232  12.842   9.301   1.499 -0.2832 -0.2152 -0.1966
29049W        W45233  19.283   4.181   1.939 -0.0363 -0.0823 -0.3037
29050W        W45234  13.343  15.023  14.023 -0.0099  0.3784 -0.2359
29051W        W45235   4.743  15.328   5.166  0.1867  0.1008  0.1614
29052W        W45236  10.959   1.633  14.159 -0.2681  0.1268  0.2820
29053W        W45237   0.804   0.448   2.722 -0.1414  0.0452 -0.1607
29054W        W45238  19.279  12.712  14.346 -0.1206 -0.1676  0.0385
29055W        W45239  13.834   9.335  13.264  0.2088  0.0581  0.1833
29056W        W45240   1.404   6.556   4.558 -0.4122 -0.0998 -0.0828
29057W        W45241  13.745   3.724  11.339 -0.0228 -0.0065  0.0542
29058W        W45242   4.586  14.063   3.919  0.1306  0.2715  0.1633
29059W        W45243   0.131   2.381  14.900  0.2111  0.1046 -0.0243
29060W        W45244  11.829   9.399   5.079 -0.1628 -0.2852  0.2563
29061W        W45245  18.097  13.070   5.145 -0.0623  0.0754 -0.1536
29062W        W45246  14.282   0.266  13.536  0.1216 -0.0873 -0.4497
29063W        W45247   5.245  17.320   4.507  0.2881  0.0104  0.3869
29064W        W45248   3.954  16.619  12.226  0.2793 -0.0343 -0.0221
29065W        W45249  15.102   3.375   0.341  0.1880  0.0454 -0.0130
29066W        W45250   7.743  16.761  14.908 -0.0638 -0.1870  0.0718
29067W        W45251  16.685   7.828  14.285  0.2516  0.1521  0.1422
29068W        W45252  16.522  18.704  14.357 -0.2812  0.3465 -0.0485
29069W        W45253  16.037  17.960  12.335  0.0383 -0.2686  0.1472
29070W        W45254  12.452  15.335   4.051 -0.1020 -0.3646  0.2949
29071W        W45255  14.866   6.056   1.544  0.0248  0.1672  0.0822
29072W        W45256   5.357   1.102   1.405 -0.0080  0.0216  0.1068
29073W        W45257   5.920   0.047  10.477  0.0354 -0.1724  0.0842
29074W        W45258   2.019  10.462  12.076 -0.3495 -0.1618  0.0505
29075W        W45259  18.757  10.305  10.839 -0.1404 -0.1320  0.2210
29076W        W45260   8.091   0.908   2.204  0.0605 -0.1354 -0.1084
29077W        W45261  16.648  17.633  10.392 -0.0844  0.1906  0.0669
29078W        W45262  17.322   1.517   4.613  0.0970 -0.2574  0.0294
29079W        W45263   9.233   5.169   0.679  0.1077 -0.0718  0.2255
29080W        W45264  17.098   1.797   3.855  0.3455 -0.0004 -0.0211
29081W        W45265   1.325  15.944  13.337  0.0051  0.1787  0.0315
29082W        W45266  15.445   3.608  13.283 -0.0833  0.0813  0.2037
29083W        W45267   9.361   2.004   4.461 -0.2164  0.0602  0.1042
29084W        W45268  13.536   3.112   0.945  0.1224  0.1547  0.1442
29085W        W45269  15.716  11.432  11.835  0.0215 -0.2605 -0.0911
29086W        W45270   5.241   3.165   5.421 -0.0808  0.4354 -0.2633
29087W        W45271  17.929  18.630  11.888  0.0617  0.0520  0.0384
29088W        W45272  18.143   8.907   0.332 -0.2353 -0.1715  0.0280
29089W        W45273  10.291  17.820  14.196 -0.1253  0.4173 -0.4072
29090W        W45274  13.212   9.296  10.383  0.0575 -0.1806 -0.1348
29091W        W45275  19.102  16.216  13.977 -0.0750 -0.0473 -0.2280
29092W        W45276  11.035   0.891  11.172 -0.1633 -0.0413  0.0579
29093W        W45277  19.068  17.477   0.070 -0.0574 -0.0994 -0.0244
29094W        W45278   6.302   1.786  14.609  0.0207  0.1203  0.2195
29095W        W45279   4.381  11.648   9.977  0.2088  0.1020 -0.0260
29096W        W45280   0.339   3.098   4.619 -0.0682 -0.0738  0.0937
29097W        W45281  16.508  12.105   3.405  0.0690 -0.3569 -0.0616
29098W        W45282   7.391  13.820  10.598 -0.2372 -0.1842 -0.1012
29099W        W45283  15.054  10.358  11.770 -0.0659  0.0900 -0.2762
29100W        W45284  12.722   4.874   2.302 -0.0866  0.1378 -0.0218
29101W        W45285  14.700   0.182  10.588 -0.1204  0.2701 -0.0734
29102W        W45286   7.427  13.227   0.783  0.0465 -0.2196 -0.3187
29103W        W45287   4.904   6.301   3.560  0.0991 -0.2306 -0.1136
29104W        W45288   3.607  14.028  12.915  0.1157 -0.1465  0.6238
29105W        W45289   7.437   1.707   0.406  0.0118  0.2401  0.0679
29106W        W45290   5.835   1.149   3.965 -0.0036 -0.0433 -0.1274
29107W        W45291   2.217   0.755   2.380 -0.0989  0.1846 -0.1590
29108W        W45292   4.114  14.682   4.547 -0.2998  0.4141  0.2736
29109W        W45293   7.543   6.099   0.072 -0.0252  0.1149 -0.0519
29110W        W45294   1.675   3.906  12.175 -0.1770 -0.0710 -0.3137
29111W        W45295  11.392  13.755  10.961 -0.2484  0.1303  0.0087
29112W        W45296   7.699   6.360  13.778  0.1298  0.1719 -0.1917
29113W        W45297   8.842   8.987  11.251 -0.1994  0.0901  0.0363
29114W        W45298  10.152   5.874  14.221  0.1782 -0.2195 -0.1626
29115W        W45299   7.361   8.024   1.596  0.0146  0.0820  0.0048
29116W        W45300  11.479  14.394  13.303 -0.4052  0.2055  0.1464
29117W        W45301   3.311   1.430   3.512  0.2587  0.1350  0.2698
29118W        W45302   8.306  17.527  11.219 -0.2027 -0.0949  0.1634
29119W        W45303   3.494   0.719  11.511 -0.1287  0.1395 -0.0301
29120W        W45304   6.445  15.711   3.399  0.3326  0.1568  0.1350
29121W        W45305  15.811  15.996  11.730 -0.1841 -0.1949  0.3832
29122W        W45306  13.227  17.037   5.067 -0.1237 -0.1341  0.2381
29123W        W45307   1.620   7.324   4.878 -0.2493 -0.1151  0.1268
29124W        W45308   5.220   0.543   5.101 -0.0235 -0.0051  0.0788
29125W        W45309   9.668   6.800   3.153 -0.0639  0.3162  0.0623
29126W        W45310   5.092   4.955   5.222 -0.1981 -0.4213 -0.0250
29127W        W45311  19.046  16.831   5.397  0.4057 -0.1086  0.2332
29128W        W45312   6.779   9.161   3.847  0.0638 -0.0871 -0.2892
29129W        W45313  10.568  18.472  12.813 -0.0691 -0.2282 -0.0354
29130W        W45314   7.752  16.724   4.173  0.3050 -0.0970  0.0883
29131W        W45315  16.241   9.364  11.219 -0.1177 -0.0108  0.1174
29132W        W45316  13.207   4.454  14.446 -0.0442 -0.0911  0.0908
29133W        W45317   6.261   3.841   3.129 -0.1618  0.0900 -0.0347
29134W        W45318   2.496   3.302   2.904  0.1311  0.0891 -0.1737
29135W        W45319   6.956   3.630   2.817 -0.1560  0.1108 -0.1091
29136W        W45320   4.309   0.921   0.420 -0.1018  0.0894 -0.0514
29137W        W45321  15.179  18.449   2.842  0.1291  0.0357 -0.2583
29138W        W45322   9.008  10.515   0.590  0.0633 -0.1813 -0.1451
29139W        W45323   5.693   1.317   1.851  0.0541  0.0216 -0.2210
29140W        W45324  13.208   8.168   9.377  0.0460 -0.3220  0.0804
29141W        W45325  12.825   0.261  12.809 -0.1982  0.0274 -0.1411
29142W        W45326  16.651   9.996  13.496 -0.3823  0.0956 -0.3874
29143W        W45327  15.924   2.684  10.429 -0.0677  0.2777 -0.4431
29144W        W45328   0.056   9.085  14.861 -0.0642  0.0246  0.1065
29145W        W45329   7.833   5.787  11.377 -0.0127 -0.0830 -0.0744
29146W        W45330   9.221   2.068  11.216  0.2496 -0.0783 -0.1254
29147W        W45331   5.639  12.355  14.385 -0.1007 -0.0436  0.1584
29148W        W45332   3.061   5.490   1.717  0.1180 -0.0206  0.3911
29149W        W45333  17.136   5.930  14.133 -0.0234 -0.0160 -0.0960
29150W        W45334   5.798  13.263   1.279  0.4039  0.0158 -0.2415
29151W        W45335  16.059   8.932   1.871  0.0969  0.0410  0.1476
29152W        W45336  10.041   6.436   4.996  0.1009  0.0566 -0.0273
29153W        W45337   1.468   9.609   2.775 -0.1222  0.0975 -0.2414
29154W        W45338   3.699   8.217   1.155  0.0088  0.0015  0.0892
29155W        W45339   9.163   6.360  12.490  0.1349 -0.4773  0.5162
29156W        W45340   4.564  12.281   4.552  0.2269  0.2797 -0.1515
29157W        W45341   6.406   9.946  13.768 -0.4370 -0.0279  0.0352
29158W        W45342  12.972   4.389   0.138  0.0855  0.2315 -0.1041
29159W        W45343  16.705  18.578   1.550 -0.0686 -0.1176 -0.0847
29160W        W45344   4.476  18.479  14.331 -0.0349  0.0168 -0.0058
29161W        W45345  14.592   9.645  14.718  0.0583 -0.1880 -0.1409
29162W        W45346   9.884   8.253  13.170  0.0620 -0.2534  0.2656
29163W        W45347   7.241  14.363  10.825  0.3960  0.0864  0.0896
29164W        W45348  15.585   2.495   1.909  0.1260  0.1713 -0.1980
29165W        W45349   9.751   3.010  11.085  0.2419  0.0643 -0.0495
29166W        W45350  17.372  14.846  14.155 -0.1308 -0.0028 -0.3651
29167W        W45351   4.528  12.557  12.058 -0.2514  0.1172 -0.2384
29168W        W45352  10.360  18.273   1.960  0.0154 -0.1519  0.1007
29169W        W45353  11.636  10.666  13.024  0.4420  0.1370 -0.0809
29170W        W45354  12.450  13.626   1.966 -0.0781 -0.2070  0.0526
29171W        W45355   5.627   3.755  11.069 -0.2101  0.0461  0.3620
29172W        W45356   1.922  15.187   4.533 -0.1123  0.0870  0.3051
29173W        W45357  18.459  11.355   3.537  0.1013 -0.1268  0.2175
29174W        W45358   9.652   7.572  14.000  0.1050  0.3393  0.4089
29175W        W45359   8.268   1.622   2.979 -0.0252 -0.0702  0.0092
29176W        W45360   9.613  10.464   2.754  0.0497 -0.2431  0.3133
29177W        W45361   0.105  10.518   6.361 -0.3400 -0.3144 -0.0482
29178W        W45362   4.288   0.075  13.123 -0.0785 -0.0578  0.0662
29179W        W45363   4.645  18.476  10.835 -0.1761 -0.2653 -0.0563
29180W        W45364   8.157  16.106   2.190 -0.0730 -0.1528  0.1935
29181W        W45365   2.571   6.850   4.071 -0.1628  0.0913  0.0885
29182W        W45366  17.706  18.715   3.975  0.0427  0.3422 -0.0863
29183W        W45367  10.427  11.610  12.422  0.1021 -0.0975 -0.2258
29184W        W45368   8.073   8.422  13.751  0.2290  0.1340 -0.0975
29185W        W45369   6.122   4.822   1.356  0.3946  0.2267 -0.1054
29186W        W45370  18.880  18.321   1.950  0.0639  0.3786  0.0705
29187W        W45371  15.611  16.419   2.703 -0.2339 -0.0558 -0.0659
29188W        W45372  15.177   3.172  14.831  0.2231  0.2514 -0.1545
29189W        W45373  12.862   9.460  14.946  0.1967 -0.0085 -0.0341
29190W        W45374  18.577  12.549  14.269 -0.1526  0.0514  0.0020
29191W        W45375   3.114   4.022   1.676 -0.1001 -0.1710 -0.0543
29192W        W45376   5.658   2.687   3.821  0.1430 -0.2170  0.1605
29193W        W45377   6.707   2.600  12.084  0.1358  0.1265  0.3482
29194W        W45378  19.269  11.213   3.238 -0.1121  0.1210  0.1960
29195W        W45379   4.209   3.637  14.314  0.2524 -0.2557  0.1154
29196W        W45380  15.428   0.150  11.064  0.2335  0.1248 -0.2794
29197W        W45381  10.056   5.634   3.023  0.1456  0.5841  0.0973
29198W        W45382  10.014   6.283   0.123 -0.2835 -0.1581 -0.0064
29199W        W45383  14.896  18.843  11.048 -0.1243  0.1368  0.2569
29200W        W45384  18.775  14.938  13.858 -0.2651 -0.0870 -0.1621
29201W        W45385  18.798   9.944   2.370 -0.1714  0.0072 -0.1872
29202W        W45386  10.800  14.248  11.540 -0.1697 -0.0201  0.2085
29203W        W45387  14.362  11.448  11.229 -0.2631  0.0748 -0.3502
29204W        W45388  18.070  12.364   9.887  0.3898  0.1519 -0.1692
29205W        W45389   7.129  15.980   2.048  0.0848  0.0143 -0.1362
29206W        W45390  11.585  17.690   2.866 -0.2317 -0.2598 -0.1041
29207W        W45391  13.397  15.169   4.702 -0.2705 -0.1698 -0.0584
29208W        W45392   9.095   4.335  12.783 -0.0550  0.1481  0.2638
29209W        W45393   7.336   0.644  11.372 -0.1014 -0.0562 -0.1126
29210W        W45394   2.048  18.013   0.536 -0.4714  0.0628  0.1302
29211W        W45395  12.852   3.794   4.966  0.0199 -0.2343  0.0388
29212W        W45396   1.332   5.338   0.298  0.0249  0.0924 -0.0526
29213W        W45397   7.892   0.839   3.165  0.1273 -0.3149 -0.0491
29214W        W45398   5.731   6.588   3.381  0.3056  0.2850 -0.3161
29215W        W45399   4.963  17.918  11.497  0.1392 -0.3206  0.1006
29216W        W45400  19.214  13.687  12.433 -0.1062  0.1903  0.1668
29217W        W45401   8.089   5.978   4.612  0.0350 -0.0043 -0.3759
29218W        W45402   2.028  17.548  11.514  0.0681 -0.2749 -0.1759
29219W        W45403   2.128  18.681   5.548 -0.0249 -0.0805 -0.1138
29220W        W45404   3.946   5.785   0.550  0.0065 -0.0733 -0.3295
29221W        W45405   1.704  14.297   5.014 -0.1904  0.0065 -0.1307
29222W        W45406  18.494   6.556   1.133  0.2762  0.0498 -0.0997
29223W        W45407  11.520   8.277  13.264  0.1034  0.1812 -0.0408
29224W        W45408  15.107  10.725  13.894 -0.1038  0.0047 -0.2784
29225W        W45409   7.706  10.711  12.936  0.3822  0.2359 -0.1640
29226W        W45410  13.827  15.611  11.966  0.0683 -0.1882 -0.0056
29227W        W45411  13.260   4.580   4.277 -0.0430 -0.2122 -0.0611
29228W        W45412  19.296  16.353   4.048 -0.0436 -0.0650  0.1446
29229W        W45413  15.993   5.833   2.653 -0.2658  0.2059  0.1262
29230W        W45414   2.597  17.695   4.441 -0.3638 -0.0307 -0.1855
29231W        W45415   4.072   6.841   3.653 -0.2924  0.0260  0.0781
29232W        W45416   7.047  14.543  11.809  0.1338 -0.0136  0.3468
29233W        W45417  18.835  17.411  13.005  0.3689  0.1261  0.2242
29234W        W45418   8.094   2.065  12.007  0.0323  0.0960  0.1092
29235W        W45419  16.206  14.418  14.796 -0.0835 -0.1513  0.4001
29236W        W45420   5.019  16.839   1.736 -0.3379 -0.1073 -0.1967
29237W        W45421  16.546   6.282   3.797  0.0305 -0.0432  0.2422
29238W        W45422  16.482   4.080  13.277  0.3467 -0.1884  0.1931
29239W        W45423  16.010  16.279  10.358  0.2344 -0.0015  0.0863
29240W        W45424   7.714   8.851   4.059  0.0493 -0.3435  0.1285
29241W        W45425  11.516   7.769   0.499 -0.3316 -0.3693 -0.2477
29242W        W45426   3.085  17.903   2.448 -0.0920 -0.0312  0.1763
29243W        W45427   4.149  12.625   4.630 -0.2056 -0.1217 -0.1969
29244W        W45428  14.341  11.363   1.848  0.4977  0.0855  0.1083
29245W        W45429   9.550  18.096   2.860 -0.1475  0.0976  0.1012
29246W        W45430  18.456  15.822  14.690 -0.0168 -0.6143  0.0815
29247W        W45431  10.206   7.790  10.906 -0.1114  0.0191  0.0940
29248W        W45432   6.145   4.376  11.599 -0.1467  0.2262 -0.1727
29249W        W45433   8.050   9.296   0.780 -0.0232 -0.0434  0.0247
29250W        W45434  14.793   1.736  11.711  0.1881 -0.0940  0.1983
29251W        W45435  18.795  10.369   5.721  0.2211 -0.3216  0.2002
29252W        W45436   2.022  13.137   0.694  0.1951 -0.1455  0.0356
29253W        W45437  15.033   2.025   3.879 -0.1454  0.1503 -0.0611
29254W        W45438   9.498   9.103  14.704  0.3868  0.2128  0.0708
29255W        W45439   2.138  18.155  10.786 -0.1032 -0.0905  0.0163
29256W        W45440   4.024   8.211   5.545  0.2774  0.0944  0.0869
29257W        W45441   8.753  13.696   0.246 -0.0717 -0.0793 -0.0273
29258W        W45442  14.489  18.372   5.316  0.0195  0.3584 -0.1306
29259W        W45443   4.098   9.724   2.972 -0.1565  0.0948  0.1588
29260W        W45444  10.699  10.354  11.159  0.0967  0.1363  0.1187
29261W        W45445   3.260  18.019   3.757  0.0908 -0.1269 -0.3053
29262W        W45446   9.398   0.651   9.333  0.1424  0.0391 -0.1401
29263W        W45447   0.141  10.754   5.217 -0.0770  0.1761 -0.0806
29264W        W45448   8.838  19.128   2.758 -0.0747  0.1031 -0.3204
29265W        W45449  18.295   8.173   2.334  0.2416  0.3445 -0.2608
29266W        W45450   8.900   7.778  14.723 -0.3147  0.0436 -0.2379
29267W        W45451   5.121  17.327  13.299 -0.1192 -0.2198 -0.1953
29268W        W45452  12.861  13.630  11.060 -0.2825 -0.1495  0.2588
29269W        W45453  12.497   5.450  12.989  0.0500 -0.1756  0.0101
29270W        W45454  16.366  17.288  11.171  0.0755  0.0117  0.1979
29271W        W45455  18.447  14.943  12.759 -0.1194  0.0841  0.0935
29272W        W45456  16.792   2.039   1.420 -0.1985  0.1319  0.0088
29273W        W45457  18.753   9.060  13.048  0.0532  0.2621 -0.0099
29274W        W45458   9.522   4.318   2.810  0.3739  0.2238  0.0726
29275W        W45459   8.750   4.241  14.548 -0.2347 -0.0931  0.0063
29276W        W45460  10.439  16.923  12.614 -0.3028  0.0964 -0.0946
29277W        W45461  16.575   0.345   4.664  0.7437 -0.0785 -0.1896
29278W        W45462   0.775   6.238  11.141 -0.4154 -0.2272 -0.3164
29279W        W45463   4.452   5.129  14.450  0.1680  0.0777  0.1748
29280W        W45464   8.633  12.177   0.453 -0.0205 -0.0517  0.1625
29281W        W45465   0.970  12.704   1.481 -0.0492 -0.3356  0.1026
29282W        W45466   0.146  17.720   0.865 -0.3089 -0.0028 -0.0463
29283W        W45467  14.255   3.233  12.386  0.0130  0.0566  0.0671
29284W        W45468   9.946  14.948  13.690 -0.2810 -0.2087 -0.0111
29285W        W45469  12.608   3.408  12.033  0.3048 -0.0541  0.2823
29286W        W45470  15.751   5.456   3.112 -0.1073  0.0035 -0.0944
29287W        W45471  16.238  14.312   9.393  0.1588 -0.1674  0.0011
29288W        W45472   8.406   5.216   0.671  0.3652  0.0273 -0.3104
29289W        W45473  15.880   2.877  13.166  0.2786  0.0825 -0.1720
29290W        W45474   0.194  12.181  11.446  0.1259 -0.1344  0.2001
29291W        W45475  17.346   9.366  13.086 -0.1741 -0.1287 -0.1828
29292W        W45476  12.861  15.290  10.155  0.0166  0.1570 -0.0945
29293W        W45477  16.783  16.995   3.179  0.0854 -0.3945  0.0939
29294W        W45478  15.882   0.261   3.900 -0.0574 -0.0633 -0.0995
29295W        W45479  10.052  18.035   4.095  0.0638  0.1117 -0.1115
29296W        W45480   0.051  15.117  12.041  0.0218  0.0942 -0.0530
29297W        W45481  12.593  13.686  12.326 -0.1688  0.0506 -0.0220
29298W        W45482  12.943  15.485  12.158 -0.1582  0.2432 -0.3337
29299W        W45483  15.167   7.348  12.343  0.4185 -0.0060 -0.2270
29300W        W45484   0.282   3.700  11.517  0.1739  0.0847 -0.1876
29301W        W45485  15.853  15.156  12.175  0.1609  0.0174 -0.1854
29302W        W45486  13.365   2.103   1.603 -0.2718 -0.1773 -0.5142
29303W        W45487  11.846  16.035  11.643  0.1682 -0.0142  0.0775
29304W        W45488   6.742   4.166   0.757  0.0223  0.2247  0.4863
29305W        W45489  13.810  16.029   2.703  0.1805 -0.1916 -0.0183
29306W        W45490  16.822   8.773  13.957 -0.0420  0.1406  0.0669
29307W        W45491   1.342  14.059   1.513 -0.0909  0.2481  0.0156
29308W        W45492  11.312  17.884  13.762 -0.1889  0.2280 -0.2137
29309W        W45493   8.130   3.534   0.023 -0.0856  0.0573  0.0967
29310W        W45494   4.809  13.713  12.674 -0.0626  0.1354 -0.2970
29311W        W45495   3.396  15.269   0.346  0.0185 -0.0941  0.0719
29312W        W45496   6.930  15.578   0.735 -0.0422 -0.0629 -0.2291
29313W        W45497   5.796  11.945  13.065 -0.0327  0.1352 -0.1327
29314W        W45498  14.947   8.315  13.430 -0.0706 -0.2276  0.1478
29315W        W45499  11.150   3.317  12.246 -0.0502 -0.2108  0.0770
29316W        W45500  11.840   1.061   1.267 -0.1077 -0.3797 -0.0480
29317W        W45501   8.851   3.434  10.464  0.1151  0.1770  0.3600
29318W        W45502  18.856  12.068   4.709  0.1031 -0.2622 -0.0282
29319W        W45503   2.893  12.399   5.561  0.0899 -0.1155 -0.0901
29320W        W45504   3.853   0.064   1.723  0.0943  0.3290 -0.3456
29321W        W45505   3.015   0.768   2.690 -0.0004 -0.0248  0.0778
29322W        W45506  17.630  16.326   1.283 -0.0455  0.0777  0.2361
29323W        W45507  12.620   6.017   9.396 -0.0215 -0.0484 -0.0895
29324W        W45508   0.832  19.177   9.427  0.2206  0.3081  0.1718
29325W        W45509   7.239  13.485   1.307 -0.2958 -0.3167  0.0000
29326W        W45510   2.018  17.040  11.517  0.0428  0.2311  0.0910
29327W        W45511  16.197   4.206   2.845  0.6067  0.3529  0.2308
29328W        W45512  14.646  16.217   3.345 -0.0409 -0.2153  0.1798
29329W        W45513   3.192   0.694   4.256  0.0572 -0.3216  0.0912
29330W        W45514  19.113  19.337  13.740  0.2230  0.0088 -0.3465
29331W        W45515  11.372   1.470  11.915 -0.0579  0.3011  0.0108
29332W        W45516  17.235  14.212   0.909 -0.0368  0.2648  0.0486
29333W        W45517   9.649   4.554   2.400  0.1285  0.2326 -0.1317
29334W        W45518   5.973  10.434  12.015  0.0301 -0.1124  0.1234
29335W        W45519  16.769   9.345  11.886 -0.0206 -0.1866  0.0683
29336W        W45520   5.227   7.001   2.209 -0.2392  0.0487  0.0661
29337W        W45521   6.993  19.386  12.040  0.0697 -0.0156 -0.0255
29338W        W45522  17.690   5.926  13.518  0.2931 -0.1241 -0.1263
29339W        W45523   8.770  17.332  14.367 -0.0932  0.2827  0.4424
29340W        W45524  11.838   3.727   0.695 -0.2114  0.1296 -0.3341
29341W        W45525   4.241   3.228  14.003 -0.0591 -0.2823  0.3341
29342W        W45526  16.484  10.214   5.394 -0.3706 -0.1221  0.3028
29343W        W45527  10.418   9.061   9.561  0.0875  0.1072  0.2639
29344W        W45528   0.904  15.011   5.820  0.2663 -0.0516  0.1705
29345W        W45529  16.821  18.288  14.079  0.0586  0.0541 -0.2342
29346W        W45530  14.845  16.257   0.779  0.2059  0.1037  0.0160
29347W        W45531   0.337  19.131   0.056  0.0101  0.2777 -0.0397
29348W        W45532   5.059   2.676   2.973  0.1848 -0.0343  0.1647
29349W        W45533  15.368  12.534  13.807 -0.0311 -0.1803  0.2143
29350W        W45534   3.459  16.968   0.677 -0.0897 -0.4298 -0.1235
29351W        W45535   1.840  13.785   1.207  0.0315  0.0682  0.1582
29352W        W45536   5.819  12.100   3.896 -0.4062 -0.1078  0.0024
29353W        W45537  14.596  10.895   1.971 -0.2270 -0.1692  0.1124
29354W        W45538   2.661   2.834   1.935 -0.0481 -0.1916  0.1438
29355W        W45539  13.666  11.707  14.469  0.0638 -0.1596 -0.1091
29356W        W45540  11.291   3.757   4.744 -0.1280 -0.3398 -0.1709
29357W        W45541  10.051  18.116  13.458 -0.1211 -0.1811 -0.0257
29358W        W45542   5.316   2.808  14.419 -0.1378 -0.2429  0.0119
29359W        W45543  11.160   2.485   0.188  0.2280  0.1058 -0.1444
29360W        W45544   2.026  10.453   1.747  0.0150  0.3545 -0.1920
29361W        W45545  15.085   4.221  13.483 -0.2830  0.0246 -0.2600
29362W        W45546   2.164   0.657   0.850  0.0334  0.2618  0.2134
29363W        W45547   1.392   3.130   1.183 -0.2303 -0.1538 -0.2945
29364W        W45548   6.336   7.895   2.404  0.2901 -0.0228 -0.1242
29365W        W45549   5.421  13.131   4.791 -0.2763 -0.3251 -0.2994
29366W        W45550  13.078   1.995   3.133 -0.2910 -0.0885  0.1673
29367W        W45551  14.631   3.308  14.321 -0.2772  0.2714 -0.0562
29368W        W45552  13.603   8.632   2.855  0.1611  0.2222  0.3382
29369W        W45553  13.187  16.972   0.721  0.0729  0.3177  0.0269
29370W        W45554   0.116  12.930  12.192  0.1461 -0.1186 -0.1203
29371W        W45555   3.577   6.226  13.522  0.1422 -0.3532 -0.0375
29372W        W45556   0.735  12.334   5.209  0.2309 -0.1015  0.0623
29373W        W45557   4.149  11.336   1.026 -0.1365  0.2584 -0.1038
29374W        W45558  16.915  13.026   9.899 -0.1063  0.0079  0.0473
29375W        W45559  10.342   3.966  13.805 -0.0185  0.1335  0.3307
29376W        W45560   7.166  15.306  12.981 -0.0135 -0.1196  0.1548
29377W        W45561   8.274  11.778   4.277 -0.1655  0.1540 -0.1268
29378W        W45562  15.437   1.104   8.651  0.4702 -0.0191 -0.0733
29379W        W45563  14.196  14.882  14.305 -0.3684 -0.1945  0.1520
29380W        W45564  17.639  13.750   4.042  0.2350  0.1057 -0.2167
29381W        W45565   6.367   0.613   1.908  0.0708  0.0526 -0.0284
29382W        W45566  12.835  10.675   1.259  0.1441 -0.0762  0.1917
29383W        W45567   6.281  16.304   4.229 -0.2253  0.2166 -0.3780
29384W        W45568  18.041   9.342  14.375  0.0796 -0.1220  0.3872
29385W        W45569   2.159   2.632   0.102  0.2552  0.0675  0.2378
29386W        W45570  17.005  10.973  10.710 -0.1679 -0.1039 -0.1520
29387W        W45571   7.431  11.074   2.489 -0.0327  0.1889 -0.0919
29388W        W45572   8.790   6.318  11.171 -0.0169 -0.1985 -0.1536
29389W        W45573  19.202  12.351  10.753  0.0652 -0.0557  0.0955
29390W        W45574   5.314  13.764  10.763 -0.0167 -0.0778 -0.0018
29391W        W45575   0.665   5.969   1.996  0.0612 -0.5433 -0.3176
29392W        W45576  17.670   1.597  13.452 -0.3084  0.1275 -0.1487
29393W        W45577   9.914  19.223  11.023 -0.0879 -0.0053  0.1414
29394W        W45578  18.206  10.850  11.125  0.1953 -0.1767 -0.1944
29395W        W45579   3.590   3.961  13.870  0.2017 -0.0053 -0.2141
29396W        W45580  11.831  15.099  13.481  0.0607 -0.2754 -0.1861
29397W        W45581   5.865   7.772   0.449 -0.0098  0.0750  0.2725
29398W        W45582  16.942   5.274   3.241  0.2019 -0.0543 -0.3905
29399W        W45583   4.774   0.545   0.560 -0.1207 -0.2839 -0.0835
29400W        W45584  11.419  16.637   0.130  0.2470  0.4218  0.0684
29401W        W45585   3.111  12.359   4.956  0.0133 -0.1078 -0.2580
29402W        W45586  17.404  16.010   1.703  0.2955  0.0153 -0.1547
29403W        W45587  14.616   5.568   1.454  0.0535 -0.1313  0.1818
29404W        W45588   9.548  15.652  13.167 -0.1949 -0.0151  0.3641
29405W        W45589   4.588   0.018   1.481  0.1901  0.1637  0.2505
29406W        W45590  11.361   1.404   3.912 -0.2720  0.1406 -0.1171
29407W        W45591   4.784   6.221   1.405  0.1799 -0.0484 -0.0864
29408W        W45592  12.781   8.238  14.829 -0.1299 -0.2204  0.2323
29409W        W45593  16.734   2.244  14.206  0.0599  0.1384  0.2640
29410W        W45594  15.328  17.487   0.540 -0.1097 -0.0478  0.2158
29411W        W45595   4.752  19.304   3.280 -0.1798 -0.1256 -0.6095
29412W        W45596  15.528  16.400  12.717 -0.3213 -0.4288 -0.1091
29413W        W45597  13.127  16.322   1.491 -0.0283 -0.1221 -0.0759
29414W        W45598  13.804   1.195  11.012  0.0640  0.1256 -0.0997
29415W        W45599   1.217  16.049  14.846 -0.0793  0.1715  0.3885
29416W        W45600  14.720  12.619  10.823  0.3638  0.3748  0.2107
29417W        W45601  17.062  12.230   5.323  0.0529  0.1648  0.1342
29418W        W45602  16.577   9.358  14.257 -0.2396 -0.1691 -0.2831
29419W        W45603  13.339  18.911  12.505  0.2471 -0.1487  0.2178
29420W        W45604   5.298  19.148  14.530 -0.0343  0.3273 -0.1524
29421W        W45605   9.294   1.260   1.206 -0.1294  0.3803  0.0289
29422W        W45606   8.315  15.845  13.495 -0.0940  0.1173  0.0272
29423W        W45607   5.551   9.824  11.608 -0.0708 -0.1370 -0.1287
29424W        W45608   1.783   2.153   5.977  0.1825  0.2478 -0.0537
29425W        W45609   7.336  15.876  11.914  0.1864  0.0154  0.4732
29426W        W45610  10.394   8.079  10.015 -0.3029 -0.0534 -0.1566
29427W        W45611  15.261   8.443   1.111 -0.2234 -0.1752 -0.1972
29428W        W45612  17.703   4.785   5.378  0.0994 -0.1400  0.2390
29429W        W45613   3.569   6.733   0.979 -0.0725 -0.2491  0.2065
29430W        W45614   8.499  15.352   1.040 -0.2082  0.2237 -0.0127
29431W        W45615   8.902   1.324  14.096 -0.0237 -0.3680 -0.2580
29432W        W45616   1.714   5.174   5.523  0.0802  0.0030  0.0818
29433W        W45617  13.102  14.293   3.443  0.2390  0.1568 -0.0593
29434W        W45618  16.315   8.880  12.921 -0.1370  0.1497  0.0276
29435W        W45619   0.665  16.002   1.157 -0.2624 -0.1057 -0.2100
29436W        W45620  16.446   3.669   0.943 -0.2055 -0.0574 -0.2021
29437W        W45621   6.639   6.747   1.212  0.1099  0.2813  0.2120
29438W        W45622   9.702  17.640  13.295  0.1603 -0.3454 -0.0055
29439W        W45623   6.536   0.211  14.160  0.2128 -0.0728 -0.1814
29440W        W45624  10.260   3.854  12.299 -0.0582 -0.0927  0.0419
29441W        W45625   8.456   8.854   3.411  0.2216  0.0867 -0.3639
29442W        W45626  18.159  12.775  11.856  0.0877 -0.1812  0.1374
29443W        W45627  16.199   7.330   0.017 -0.2031 -0.0977  0.3563
29444W        W45628   0.571  14.555   5.592  0.2137 -0.0192  0.0024
29445W        W45629   2.725   7.302   4.049 -0.0886  0.0296 -0.0643
29446W        W45630  17.964   6.074  11.547 -0.0719  0.0109  0.2240
29447W        W45631   0.009   3.857  12.002 -0.0047 -0.1502 -0.0179
29448W        W45632   4.052   5.524   6.281 -0.4231  0.0925 -0.2793
29449W        W45633  13.860  11.524   0.902 -0.3414 -0.2847 -0.2114
29450W        W45634  16.326   2.578  10.132  0.1751  0.0156  0.2552
29451W        W45635   1.717   5.485   1.180 -0.0478 -0.1014  0.1154
29452W        W45636   0.332   7.630  11.257  0.1456 -0.1918 -0.1292
29453W        W45637  19.291   9.914   4.571  0.0055 -0.0056 -0.1901
29454W        W45638   0.432  11.959  11.841 -0.1573  0.2275 -0.0824
29455W        W45639   4.274  15.647  14.891  0.0302  0.2414  0.0605
29456W        W45640  14.098   0.970   0.368 -0.1434 -0.0632 -0.1957
29457W        W45641   4.458  18.871  12.011 -0.1712  0.1928  0.1233
29458W        W45642  14.491   8.700   1.491  0.0521 -0.2409 -0.0769
29459W        W45643   4.887  13.570  14.142  0.1022  0.2737  0.0782
29460W        W45644   8.814   5.842   5.460 -0.5844  0.3263  0.0507
29461W        W45645   4.708   7.142   5.301  0.1125  0.1087 -0.4756
29462W        W45646  17.930   8.848  14.175  0.0332  0.1224  0.4076
29463W        W45647   8.005   9.578  13.607  0.2740 -0.0146 -0.1576
29464W        W45648   0.050  14.821   3.032  0.1578  0.0607 -0.0064
29465W        W45649   4.602  10.335  11.669 -0.0121  0.1697 -0.0006
29466W        W45650   9.989   2.973  10.648 -0.1438  0.4353  0.0931
29467W        W45651   2.310  14.501  13.686 -0.1592 -0.1023  0.0688
29468W        W45652  12.247  15.010   2.098  0.2693  0.0185 -0.1216
29469W        W45653  10.894   5.365  14.879  0.0850 -0.1677  0.4856
29470W        W45654   6.869   9.115   5.669 -0.0112 -0.1356  0.1215
29471W        W45655  13.324   7.629  11.263  0.1927 -0.1086  0.2241
29472W        W45656  11.371   0.491   1.970 -0.2706  0.0344 -0.1822
29473W        W45657   9.976  14.681   1.871  0.1258 -0.1444 -0.3197
29474W        W45658  17.984  11.783  14.275 -0.1696 -0.1697 -0.2011
29475W        W45659   6.317   4.501   4.007 -0.1568 -0.0787  0.0620
29476W        W45660   9.215   0.131   2.886 -0.1697  0.0348  0.1004
29477W        W45661   6.398  14.525  14.168  0.2022 -0.2043  0.0617
29478W        W45662   8.079   4.618   2.015 -0.3783 -0.0340  0.3756
29479W        W45663   4.742  15.391  11.140 -0.4374 -0.0949 -0.1496
29480W        W45664  12.267  16.943  14.707 -0.0615 -0.2299  0.1382
29481W        W45665  14.559   0.937   1.282 -0.0139  0.4754  0.0711
29482W        W45666  16.547   1.142   1.751  0.1883 -0.0932 -0.2542
29483W        W45667   2.530  15.602   1.662 -0.0587  0.2952 -0.1896
29484W        W45668  18.230  14.733   1.930  0.0626 -0.0957  0.2599
29485W        W45669   9.468   4.539   3.286 -0.3601  0.0243 -0.1743
29486W        W45670  15.924   9.706  12.844 -0.4456  0.0796  0.3607
29487W        W45671  10.278  17.116   4.010  0.0950 -0.0452 -0.0824
29488W        W45672  11.491  18.831   2.172  0.1736  0.2357  0.1250
29489W        W45673   6.870  16.703  11.621  0.0540 -0.2249 -0.0684
29490W        W45674   0.205   9.464   9.875  0.0742 -0.0904  0.1839
29491W        W45675   3.520  11.970   4.404  0.1363  0.0576 -0.0136
29492W        W45676   9.217   4.997   5.017 -0.1182  0.2376  0.0596
29493W        W45677  15.727   9.236  12.622 -0.0633 -0.2038 -0.0344
29494W        W45678   3.159   8.227  13.471 -0.0735 -0.2234 -0.0404
29495W        W45679  17.651   5.428   4.371  0.0835 -0.0518  0.0039
29496W        W45680  17.797   3.219   0.160  0.1995  0.4016 -0.1886
29497W        W45681   2.566   9.097   3.710  0.0428 -0.0989  0.0478
29498W        W45682  15.422   2.792   0.628  0.3320  0.0473  0.1278
29499W        W45683   9.062   0.520   9.916  0.3107 -0.0102  0.0453
29500W        W45684  17.303   8.258  12.377 -0.0056  0.0360  0.1335
29501W        W45685   7.324  17.886  14.571  0.0716 -0.2254 -0.0437
29502W        W45686   2.586   6.153   4.163  0.0406 -0.0744 -0.0667
29503W        W45687   0.250  13.349   0.917  0.2885  0.1364 -0.0533
29504W        W45688   3.175   9.240   5.015 -0.1609  0.3684 -0.0424
29505W        W45689   7.340   0.150   1.797  0.1880  0.0361  0.2200
29506W        W45690   4.841  11.386   1.905  0.0648  0.0862 -0.0135
29507W        W45691   2.886  18.585  14.586  0.0178  0.0482  0.3731
29508W        W45692  12.948   0.096   0.699 -0.0670 -0.3850  0.2592
29509W        W45693  11.490  12.099  14.502  0.0677  0.0441 -0.2379
29510W        W45694   2.080   8.961   3.338 -0.0341  0.1745 -0.2432
29511W        W45695  19.301  10.962   3.796 -0.0445  0.2703  0.0026
29512W        W45696  13.159   3.397  14.382 -0.2701 -0.0139  0.0716
29513W        W45697  13.039  15.392  14.264  0.1712 -0.1126 -0.3244
29514W        W45698   9.549   2.849  11.577 -0.4501  0.1501  0.3114
29515W        W45699   2.522  11.546  13.773  0.0589  0.3355 -0.2117
29516W        W45700   5.691   9.979   0.768  0.1598  0.2716 -0.2366
29517W        W45701   2.070   7.974   0.876 -0.0349 -0.1891 -0.3466
29518W        W45702   2.047   2.816  10.289 -0.0594  0.0169  0.0214
29519W        W45703  17.127   0.010   9.926  0.5263  0.2560  0.0553
29520W        W45704  19.020  15.267   1.469  0.1977  0.0131 -0.1484
29521W        W45705  14.641  16.490   1.155  0.1978 -0.1008  0.2215
29522W        W45706  14.068  10.203  13.007  0.2720  0.3746  0.2653
29523W        W45707   2.040   6.219  11.942  0.0819 -0.1109  0.1013
29524W        W45708   1.904  10.269   4.466  0.0159 -0.1327  0.0819
29525W        W45709  15.372   6.351  12.340  0.0291 -0.1659 -0.0158
29526W        W45710   5.530  15.125   3.984 -0.1335 -0.0858  0.4349
29527W        W45711   7.014   6.914  11.139  0.3235 -0.0762 -0.0743
29528W        W45712  15.379   1.561   0.491  0.2133 -0.1270  0.1333
29529W        W45713   7.705  12.175   4.728  0.2476  0.0330  0.0571
29530W        W45714  15.930   3.586   2.071 -0.2582 -0.1133  0.0851
29531W        W45715  17.161  13.311  14.470  0.1615 -0.1226 -0.2007
29532W        W45716  13.341  10.947  12.079  0.0332 -0.1582 -0.1136
29533W        W45717  19.053  11.938  12.883 -0.2013  0.1144  0.1312
29534W        W45718  19.115  18.593   2.989  0.2709 -0.0631  0.0672
29535W        W45719  14.230   5.535   3.980  0.0043  0.2026 -0.0341
29536W        W45720   4.413  18.676   2.813  0.2612 -0.2052  0.2671
29537W        W45721  19.105   1.939   4.918 -0.2114  0.1372  0.0111
29538W        W45722  10.897  14.163   0.673  0.2056 -0.0823 -0.0125
29539W        W45723  10.057  14.548  11.829 -0.1243  0.2349  0.0379
29540W        W45724  18.801   7.509  13.890  0.1207  0.2789 -0.0763
29541W        W45725  19.072   5.946   5.674 -0.2374  0.0132  0.1412
29542W        W45726   8.786   6.794  14.164  0.3869 -0.0492 -0.3123
29543W        W45727  19.202   6.274   1.688  0.1773 -0.1833 -0.2752
29544W        W45728  15.079   1.111  12.383  0.2879 -0.5665  0.1482
29545W        W45729  12.224   1.410  10.685 -0.0867 -0.2137  0.1484
29546W        W45730  16.822   9.142   2.293 -0.1098  0.1475  0.0078
29547W        W45731  17.915   9.989   2.154 -0.1804  0.0978 -0.0976
29548W        W45732   3.139  18.064  12.968 -0.1316  0.0305  0.0811
29549W        W45733   8.283   5.613   1.401 -0.1091  0.2663 -0.0323
29550W        W45734  14.636  10.648  14.129 -0.0461  0.1224  0.4220
29551W        W45735  18.863  12.494  14.649 -0.0557  0.2961 -0.1911
29552W        W45736  18.922  15.083   0.970 -0.3207 -0.1494 -0.2295
29553W        W45737   6.186  13.777  11.629  0.1565 -0.2888 -0.0520
29554W        W45738   4.167  14.298  12.128  0.1380  0.3993 -0.3803
29555W        W45739   9.022  17.584  10.956  0.2293  0.0392  0.0309
29556W        W45740  19.047   8.987   1.688  0.1276  0.0449  0.2558
29557W        W45741  13.349  17.578   0.353  0.1973  0.0468  0.0473
29558W        W45742  18.513  16.642  10.501 -0.2476  0.3036 -0.4912
29559W        W45743  12.802  13.841  10.550  0.3330  0.0286  0.3319
29560W        W45744  15.324  15.788  11.378 -0.1379  0.1342 -0.1428
29561W        W45745  17.114   0.044  13.314 -0.0688  0.1457  0.1143
29562W        W45746  15.780   0.027  13.608 -0.1268  0.1070  0.1475
29563W        W45747  15.724  19.284   3.045  0.0100  0.4196 -0.1258
29564W        W45748   3.202   3.889   5.464 -0.0881  0.2875 -0.2371
29565W        W45749  10.814  17.052   1.655  0.1513 -0.1224  0.4043
29566W        W45750   0.417   2.404   0.830 -0.1820  0.3353 -0.1590
29567W        W45751  19.004  15.111   3.371  0.0033 -0.0824  0.2823
29568W        W45752   7.371  15.118  12.583  0.0041  0.3816  0.1217
29569W        W45753   9.243  12.094  11.503 -0.1750 -0.1028  0.0453
29570W        W45754  11.128  14.309  11.146 -0.0087 -0.0753 -0.0389
29571W        W45755  10.907  11.148   0.525  0.0221 -0.2804  0.1685
29572W        W45756  15.359  11.000  13.519  0.2893  0.1462  0.0609
29573W        W45757  14.849  15.722   1.793  0.0724  0.1480  0.3178
29574W        W45758   8.128  14.410   4.083  0.2764 -0.0160 -0.1267
29575W        W45759  14.899   8.179  14.854  0.0746 -0.2399 -0.0491
29576W        W45760   0.875  12.203   4.691  0.1178 -0.1451 -0.2081
29577W        W45761  14.647  15.032   0.136  0.0859 -0.1272  0.0869
29578W        W45762   6.052  12.413  13.151 -0.1865  0.1969  0.2134
29579W        W45763  18.948   8.238   3.974 -0.0019  0.1501  0.2090
29580W        W45764   7.459   6.162   5.131  0.2053 -0.1552  0.0729
29581W        W45765  15.116  12.074  11.590  0.1215  0.1242 -0.2162
29582W        W45766  14.575  14.666  12.849  0.2476 -0.0979  0.1337
29583W        W45767  15.747  18.490  13.402  0.0389 -0.0440  0.2058
29584W        W45768  14.573  10.935  13.685 -0.1752 -0.1878  0.0202
29585W        W45769  18.790  11.723   4.276 -0.0122  0.0080  0.2007
29586W        W45770   1.834  13.513   3.416 -0.3750 -0.2019 -0.0057
29587W        W45771   0.277   1.588   3.583  0.0428  0.0175  0.0289
29588W        W45772  18.702  16.102   3.402 -0.0174  0.0913  0.0588
29589W        W45773   5.590   8.146   1.893 -0.0283  0.3942 -0.1532
29590W        W45774  12.009  11.669   4.181 -0.2301 -0.1663 -0.2300
29591W        W45775  17.321   4.914   1.466 -0.2190  0.1004 -0.3633
29592W        W45776   4.629  15.637   2.051 -0.0715  0.3885 -0.0239
29593W        W45777   9.961  15.622   2.585  0.0509  0.1134  0.0777
29594W        W45778  10.418  13.092  13.243 -0.2034 -0.0507  0.1611
29595W        W45779   6.590  15.159   5.037  0.0241  0.1185  0.0946
29596W        W45780  18.914  15.995   5.542  0.0117 -0.1784  0.0523
29597W        W45781   7.263  13.855  11.619 -0.0511 -0.0751  0.0823
29598W        W45782  13.794  17.208  12.805 -0.0793  0.1145 -0.0170
29599W        W45783   7.542  13.018   1.238  0.2135 -0.0076 -0.0969
29600W        W45784   4.510   5.997   2.347  0.0037 -0.2380 -0.0067
29601W        W45785  19.008   5.318   0.738 -0.3821 -0.2898  0.1329
29602W        W45786  14.573   6.166  11.331  0.1595 -0.0835  0.0274
29603W        W45787  13.940  14.373  11.198 -0.1375 -0.1683 -0.3775
29604W        W45788  13.496   5.454   3.250  0.1933  0.3382 -0.2826
29605W        W45789   9.334   6.320  11.148 -0.1618 -0.5481  0.1440
29606W        W45790   1.908  12.962  14.768 -0.0827  0.0475 -0.1367
29607W        W45791   8.285   1.260   3.381  0.0307 -0.1200 -0.1092
29608W        W45792  18.922  13.978  13.453  0.2910  0.3861  0.1563
29609W        W45793  18.357   3.676   4.700 -0.1180  0.2174  0.0615
29610W        W45794  10.375  16.491   4.772 -0.3727 -0.2280  0.1373
29611W        W45795   4.369  14.818  11.611  0.2034  0.3385  0.2416
29612W        W45796  14.276  18.757   0.152 -0.0171 -0.0444  0.3339
29613W        W45797   9.460  13.240  10.917 -0.1272 -0.0018 -0.1167
29614W        W45798  14.159  13.964   0.718 -0.1836  0.5040  0.3523
29615W        W45799  17.260   6.346  10.681  0.0774  0.1601  0.0136
29616W        W45800  10.556   3.322  13.379 -0.0675  0.3586  0.4283
29617W        W45801  17.611   6.817  10.734 -0.3269 -0.0052 -0.2340
29618W        W45802   5.309  10.665   0.644  0.0265  0.1564 -0.1127
29619W        W45803   4.829  17.850  13.983 -0.2048 -0.0780  0.1058
29620W        W45804  16.705  18.879  12.503 -0.2419 -0.0300  0.1281
29621W        W45805   9.351  16.393  12.899 -0.0648  0.4302  0.1149
29622W        W45806   7.343   2.863  12.898  0.1332  0.1800  0.1162
29623W        W45807  16.456  18.153  10.129  0.0378  0.0918 -0.0302
29624W        W45808   1.022  13.116  11.126 -0.0850  0.0094  0.0162
29625W        W45809   7.776   0.583  13.257  0.0443 -0.1369 -0.0634
29626W        W45810   8.475   4.579  13.906  0.0539  0.0654  0.0074
29627W        W45811   5.190   4.481  11.790  0.0307  0.0167 -0.1337
29628W        W45812  11.035   6.292   3.199 -0.1380 -0.3318  0.2709
29629W        W45813   8.365   4.764  11.128  0.3762 -0.0139 -0.1415
29630W        W45814  16.619  15.860  10.624 -0.2547  0.1874  0.0929
29631W        W45815  18.858   1.773   0.577 -0.0641  0.2985  0.1171
29632W        W45816   1.304  17.124  10.773  0.0957  0.0038 -0.3128
29633W        W45817   5.029  14.389   3.941  0.0696 -0.0077 -0.2594
29634W        W45818  13.721  10.323   1.051 -0.0837  0.1996 -0.2729
29635W        W45819  14.035  13.884   2.904  0.2584  0.4206 -0.0930
29636W        W45820  14.207  10.039  14.291 -0.0398  0.1744  0.3466
29637W        W45821   0.406  10.893  13.547 -0.0191 -0.1329 -0.2010
29638W        W45822  14.649  19.335  11.637  0.0761 -0.1323  0.0153
29639W        W45823  11.369   7.348   2.886  0.0557  0.1167  0.1539
29640W        W45824  17.830   7.046   1.948  0.0783 -0.1276 -0.1113
29641W        W45825  11.247   5.714  14.899 -0.0547 -0.0614 -0.0456
29642W        W45826   2.182  17.881  13.403 -0.0889 -0.0790  0.1010
29643W        W45827  10.770   8.046  10.837 -0.0193 -0.0372 -0.0974
29644W        W45828   6.446   4.404   2.617  0.2883  0.1669  0.2553
29645W        W45829  15.281   9.278   3.196  0.0216  0.2631  0.0276
29646W        W45830  16.618   1.954  13.225 -0.1538 -0.1383  0.2854
29647W        W45831   4.471  11.509   1.466 -0.1508  0.0640 -0.0230
29648W        W45832   5.312  13.276   0.946  0.0572  0.2670  0.0156
29649W        W45833  14.030   9.910   1.766  0.2155 -0.1319 -0.0133
29650W        W45834  19.207   9.369   4.458  0.0323 -0.1576  0.0907
29651W        W45835   8.809  13.191   1.390  0.0644 -0.0675 -0.0418
29652W        W45836   6.907   1.878   4.866 -0.0567  0.0235  0.0863
29653W        W45837  13.420  11.286   0.199 -0.3229  0.1733 -0.2384
29654W        W45838   8.917   8.654   9.804  0.0620  0.0584  0.1291
29655W        W45839   9.609  17.313   4.526  0.0056  0.1497  0.0533
29656W        W45840  13.906   3.984   0.410 -0.1605 -0.1395  0.3920
29657W        W45841   5.019   7.059   0.608 -0.2616  0.4090  0.0479
29658W        W45842   4.399  13.691  14.377  0.1757 -0.0374  0.0965
29659W        W45843   3.497  19.138   0.894  0.1337  0.1271 -0.1177
29660W        W45844  10.109  15.363   1.468  0.0145 -0.1938  0.1431
29661W        W45845  18.328   9.934   2.470 -0.2033 -0.2262  0.1680
29662W        W45846  19.199  11.578  14.325 -0.0037 -0.0840  0.2273
29663W        W45847   2.754   3.250  11.354 -0.0676 -0.2230  0.2644
29664W        W45848   3.329   1.290  10.394 -0.1159  0.0717 -0.0474
29665W        W45849  13.625  15.335   3.240 -0.1906  0.1080 -0.0397
29666W        W45850  12.567   7.628  12.817 -0.0653 -0.1515  0.2487
29667W        W45851  13.731   8.865  10.661 -0.1779 -0.1845  0.3239
29668W        W45852   8.919   4.486  13.569  0.0122 -0.0387 -0.1810
29669W        W45853  12.017  14.884   3.375  0.1092  0.2330  0.2912
29670W        W45854  18.124  19.165   3.295 -0.0281 -0.1970 -0.2830
29671W        W45855   7.290   2.415  14.758 -0.0909 -0.2223 -0.0504
29672W        W45856   4.806  18.772   3.789  0.0982 -0.1903 -0.1117
29673W        W45857   3.856   6.986   2.249  0.0265 -0.1068 -0.6218
29674W        W45858   3.599   0.859  10.417  0.2909  0.2197  0.4210
29675W        W45859  15.320  14.194  11.360 -0.1743 -0.0893 -0.0302
29676W        W45860  18.615   7.102   4.464  0.0717  0.0010 -0.2257
29677W        W45861   6.549   2.514   0.211 -0.1175  0.1305 -0.1841
29678W        W45862   5.533   7.492  13.525  0.0081  0.2260  0.0512
29679W        W45863  14.092   9.054  11.878 -0.0548 -0.1701 -0.0357
29680W        W45864   2.541  10.593  14.913 -0.1287  0.1444 -0.2056
29681W        W45865   5.123   2.953  13.041 -0.2286 -0.0844 -0.0493
29682W        W45866   7.154   7.549   1.730 -0.0352  0.1102  0.1726
29683W        W45867  10.430   9.673   0.896  0.3127 -0.0957  0.2011
29684W        W45868   9.240  17.587  12.338 -0.0441 -0.1663 -0.3311
29685W        W45869  10.623  11.204  11.741 -0.1300  0.0352  0.0128
29686W        W45870  18.239  14.117   0.565 -0.2150  0.0818  0.2240
29687W        W45871   1.658  15.801  10.779  0.0703  0.2372  0.0473
29688W        W45872   6.504   8.188  12.331 -0.0080  0.0431  0.1774
29689W        W45873  18.277   3.324  11.908 -0.1486  0.2421 -0.0572
29690W        W45874   1.883  16.159   0.664  0.3569  0.0098 -0.3401
29691W        W45875  15.295   3.803  13.723 -0.2409 -0.0181  0.1087
29692W        W45876   8.908   0.742   2.860  0.1286  0.3026 -0.0559
29693W        W45877  14.005   2.519  14.057 -0.0640 -0.2077 -0.1694
29694W        W45878  19.382   4.276   4.044 -0.0432  0.0642 -0.0680
29695W        W45879   6.540   7.460  11.974 -0.0952 -0.0116  0.1457
29696W        W45880  10.818   4.750  13.978 -0.0067 -0.0441 -0.1474
29697W        W45881  11.608   8.794   0.609  0.0585  0.0392  0.2862
29698W        W45882  18.667   6.790  12.164 -0.2192 -0.0387  0.0818
29699W        W45883  15.141  13.660  10.977  0.1370  0.0454 -0.2394
29700W        W45884  14.120  12.977  12.583 -0.2540 -0.2695 -0.3955
29701W        W45885  11.123  18.686  11.099  0.1901 -0.1956 -0.0335
29702W        W45886  17.487  13.908  14.861  0.2282 -0.2695 -0.1395
29703W        W45887   8.986   4.780   5.483 -0.1719 -0.1884 -0.1735
29704W        W45888   5.914  15.943   4.064  0.3081 -0.0201 -0.4061
29705W        W45889   4.346   9.500   4.735 -0.2009  0.0366  0.3855
29706W        W45890   0.716  13.886   4.880  0.1965 -0.1505  0.1201
29707W        W45891  10.154  12.217  10.665  0.3979  0.1311 -0.0054
29708W        W45892  11.619  14.088  12.820  0.2673 -0.0529 -0.1156
29709W        W45893   4.255  11.373  13.525 -0.1970 -0.1012  0.2126
29710W        W45894   9.377   3.406   2.375  0.1687 -0.0144 -0.0376
29711W        W45895   6.043   0.995  14.088  0.1430  0.3727  0.3190
29712W        W45896  11.191  14.095  10.661  0.2899 -0.3848  0.0663
29713W        W45897  18.079   5.557   1.311 -0.4201 -0.1482  0.1408
29714W        W45898  17.772  14.707  12.232  0.0271 -0.3047 -0.1802
29715W        W45899  17.045  19.373   5.258 -0.2675  0.0459 -0.1313
29716W        W45900   6.177  18.967   3.266  0.2573 -0.1373  0.0945
29717W        W45901   4.642  12.672   2.940  0.1194 -0.1358  0.0024
29718W        W45902  18.847  18.010  10.805  0.1625 -0.1424 -0.2756
29719W        W45903  18.657  15.496  10.660 -0.3630  0.1303 -0.0072
29720W        W45904  12.666  17.951  12.837  0.1028  0.0463 -0.4573
29721W        W45905   4.667   8.803   5.160  0.0818  0.3511 -0.3106
29722W        W45906   1.625   7.759   0.508 -0.1213  0.0401 -0.0239
29723W        W45907   2.240   5.134   0.568 -0.2592  0.0728 -0.0362
29724W        W45908  17.930  15.224   4.188  0.0463  0.3725  0.0468
29725W        W45909   1.847   5.918   0.043 -0.0280  0.0418  0.0867
29726W        W45910   4.599   1.234   3.369 -0.0576  0.0888 -0.0574
29727W        W45911   7.504   0.505  12.398  0.4158  0.2302  0.3055
29728W        W45912   7.211  17.224   5.418 -0.0281 -0.0277 -0.0874
29729W        W45913   3.527   6.248   0.826  0.2223  0.6157  0.1061
29730W        W45914  14.492  15.475  13.637  0.0530 -0.1561  0.2874
29731W        W45915  11.542   6.419  13.246 -0.0576  0.2241  0.2976
29732W        W45916   4.427   5.181   3.049  0.1813  0.2403  0.0343
29733W        W45917  18.633  13.211  12.848  0.2598 -0.0689 -0.1535
29734W        W45918   9.299   1.918  11.720 -0.0420 -0.0967  0.0810
29735W        W45919  11.254   4.513  14.054  0.0275 -0.3980 -0.1907
29736W        W45920   5.510  10.630   1.301 -0.2074 -0.1294  0.1473
29737W        W45921  18.301  13.753   4.445 -0.2698 -0.3599  0.2438
29738W        W45922   7.284  12.026  12.140 -0.1457 -0.2797  0.2211
29739W        W45923  13.462  18.495  12.791  0.0276 -0.2447 -0.1646
29740W        W45924  17.162   3.643   0.757 -0.2321 -0.3561 -0.2495
29741W        W45925   0.285   4.033  14.929 -0.0124  0.0448  0.0889
29742W        W45926   9.067  14.051   4.318 -0.1212 -0.1709 -0.0057
29743W        W45927  10.662   8.367   0.416 -0.0091 -0.1563  0.3299
29744W        W45928   8.870   2.122  10.810 -0.1952 -0.1644 -0.1288
29745W        W45929  18.813  17.059   0.270 -0.0426 -0.0377 -0.0755
29746W        W45930   7.481  12.992   2.655 -0.1582  0.3898  0.1608
29747W        W45931   2.067   4.949   3.714  0.0029  0.2342  0.0194
29748W        W45932   9.628   5.362  10.610  0.1246 -0.0897 -0.0776
29749W        W45933   3.303  14.497  14.787  0.1321 -0.1656 -0.2120
29750W        W45934   3.183   9.754   1.275 -0.1574 -0.3388 -0.2934
29751W        W45935  17.974  17.703   2.157 -0.0943  0.1961 -0.1056
29752W        W45936   6.096   0.252  12.301  0.1296  0.1257 -0.3774
29753W        W45937  16.335  15.942  14.944 -0.0579 -0.3272 -0.2286
29754W        W45938  11.237  16.516   4.404  0.0915  0.0436 -0.3008
29755W        W45939  15.079   0.721  13.134  0.2518 -0.3278 -0.3611
29756W        W45940   7.822  15.123   1.848 -0.0292  0.0246 -0.1737
29757W        W45941  11.445   5.011   3.809  0.0269  0.1996 -0.1097
29758W        W45942  11.534   8.871   1.634  0.0378  0.0937 -0.3927
29759W        W45943   0.372   9.452   1.942 -0.1578 -0.0435 -0.0425
29760W        W45944  10.612   6.626   4.597 -0.0142  0.1330 -0.1367
29761W        W45945   8.617   8.759  12.170 -0.2057  0.4002 -0.0966
29762W        W45946  17.705  12.824  12.346 -0.1493 -0.0776  0.0850
29763W        W45947   5.186  10.409   5.171  0.1716 -0.1246 -0.1152
29764W        W45948  15.692   7.504   1.782 -0.3004  0.2140 -0.0857
29765W        W45949   3.480  18.514  13.820  0.0785 -0.0125  0.2860
29766W        W45950  12.177   6.601   0.193  0.1411  0.0464 -0.0545
29767W        W45951  10.988   3.090   0.112 -0.0892  0.1520  0.0473
29768W        W45952   5.706  12.252   1.508  0.0012  0.0415 -0.0144
29769W        W45953   4.714   4.440  12.012  0.1463 -0.0099  0.3882
29770W        W45954  13.904  12.489   0.523 -0.1418 -0.1158 -0.0702
29771W        W45955  19.389  18.646  12.962  0.1136 -0.2785 -0.2061
29772W        W45956   1.967  18.661  13.250  0.0728  0.3281  0.0161
29773W        W45957   8.519  17.963   0.967 -0.0038  0.1763 -0.1280
29774W        W45958   0.447   4.635   1.870 -0.2317  0.2049 -0.0262
29775W        W45959  13.684  12.358  12.465 -0.0206  0.1917 -0.1093
29776W        W45960   2.236   3.855  14.594 -0.1189 -0.2511  0.1347
29777W        W45961  11.334  18.002   4.355 -0.2151  0.1436 -0.0070
29778W        W45962  15.249   9.289   9.514  0.3812 -0.2191  0.0381
29779W        W45963   2.322   7.274   0.186  0.2274 -0.3367  0.0395
29780W        W45964   6.544  12.693   1.235  0.1852 -0.4106  0.1565
29781W        W45965  12.683  14.323   3.759 -0.2963  0.3176 -0.0790
29782W        W45966  16.808  11.873   0.984 -0.0140  0.0783  0.0938
29783W        W45967   6.929  14.968   1.620  0.1861 -0.0251 -0.1962
29784W        W45968  11.124  17.003   9.629 -0.1294 -0.0781 -0.1163
29785W        W45969  11.411  10.601  11.181  0.3540  0.2387 -0.0469
29786W        W45970  17.378  10.083   0.266  0.1612  0.3000 -0.1050
29787W        W45971  11.802   5.788   2.626 -0.1067 -0.2822 -0.0041
29788W        W45972   0.222   3.083  10.973 -0.0556  0.1993 -0.0543
29789W        W45973   6.992  18.151  10.859  0.2443 -0.2112  0.0788
29790W        W45974   6.269   0.154  12.868 -0.1082 -0.1127  0.0712
29791W        W45975   3.285  14.715  11.748  0.0883  0.1400 -0.0928
29792W        W45976   1.335   3.479  13.554 -0.0884 -0.0522 -0.1675
29793W        W45977  17.419  16.777   1.098  0.0805  0.1515 -0.0549
29794W        W45978  18.762  17.559  10.481  0.0052  0.5018 -0.2098
29795W        W45979   7.877   5.458   5.669  0.1301  0.1167  0.0682
29796W        W45980   0.572   1.929   3.923 -0.1005  0.1062 -0.1442
29797W        W45981   5.385  11.249   6.070  0.0060 -0.1664 -0.5590
29798W        W45982  13.287  18.855  14.508  0.1961 -0.3211 -0.2894
29799W        W45983   9.754   2.134   2.492  0.0244 -0.0661  0.3635
29800W        W45984  14.337   5.991   1.514  0.0149 -0.0206 -0.1287
29801W        W45985   9.576  16.750   4.750 -0.0031 -0.0402 -0.0317
29802W        W45986  15.587  17.773  11.421 -0.1769  0.1599  0.0724
29803W        W45987   4.296  10.527  12.076 -0.1370  0.0397  0.0060
29804W        W45988   4.446   1.422   0.342  0.2368  0.1183 -0.0879
29805W        W45989   3.761   3.445   2.863  0.0774 -0.2869 -0.1892
29806W        W45990  18.652  14.635  14.253 -0.0008 -0.3053 -0.2113
29807W        W45991   3.981   8.797   2.463  0.1367  0.2148 -0.1633
29808W        W45992   9.316  10.185   0.881  0.0843 -0.1599  0.0958
29809W        W45993   4.011  14.268   5.343  0.2518 -0.1760 -0.0848
29810W        W45994   1.645   7.779  11.537 -0.0480  0.1101 -0.0302
29811W        W45995   6.449  17.392  11.650 -0.1548  0.2306 -0.2275
29812W        W45996   8.973   8.169   3.410 -0.0581  0.0085  0.2285
29813W        W45997  15.110  17.121   3.221 -0.0809  0.0788  0.0307
29814W        W45998   5.524   3.874   0.510 -0.1815  0.0955 -0.0043
29815W        W45999  10.826   9.190   2.374  0.0658 -0.0049  0.1563
29816W        W46000  14.356   9.017  11.185 -0.2134  0.3565 -0.1817
29817W        W46001   3.945   7.317  14.133  0.1801 -0.0567 -0.1715
29818W        W46002  16.859   9.577  13.355 -0.0696 -0.3147 -0.0811
29819W        W46003  11.397   0.376   2.951 -0.2429 -0.1477  0.1602
29820W        W46004  13.180   1.643  12.750 -0.0253 -0.3994  0.2028
29821W        W46005   6.524  14.424  14.740 -0.1286  0.0587  0.0940
29822W        W46006  18.056  19.027   4.569  0.0759  0.1480 -0.0979
29823W        W46007  10.373  11.099  12.326  0.0261 -0.3600 -0.2033
29824W        W46008  10.394  11.354  10.737  0.2813 -0.0418  0.0297
29825W        W46009  11.852  16.781   3.325  0.2852 -0.2317 -0.0614
29826W        W46010   7.732   2.011  12.940  0.2131 -0.2812  0.4713
29827W        W46011  11.708  15.659  13.608  0.0600  0.0844  0.0216
29828W        W46012   2.925  19.091  12.950 -0.0816  0.0926  0.2468
29829W        W46013  14.938  13.704   3.061  0.3741  0.3760 -0.3417
29830W        W46014  18.712   5.000   2.284 -0.1199 -0.3102 -0.0361
29831W        W46015  12.092  11.424  12.899  0.0121  0.1320  0.3750
29832W        W46016   9.988  18.380  12.788  0.1761  0.0725  0.1427
29833W        W46017   4.756   9.108   1.476 -0.2022 -0.1922  0.0343
29834W        W46018  10.378  14.085   4.066 -0.1988 -0.3613  0.4931
29835W        W46019  18.257   0.475  10.646 -0.1278  0.1698 -0.1268
29836W        W46020   2.487   3.368  14.409 -0.1432 -0.0211  0.0933
29837W        W46021   9.992   2.449   5.186  0.1961  0.0299  0.0235
29838W        W46022   2.919   5.536   3.562 -0.2999 -0.0937 -0.3862
29839W        W46023  15.127  11.416  13.190 -0.0585  0.1072  0.1469
29840W        W46024   6.988  12.341   5.628 -0.0993 -0.3905  0.3817
29841W        W46025   0.329  16.545  13.383 -0.1474  0.1989  0.3368
29842W        W46026   9.064   8.729  11.721 -0.2028  0.3078 -0.1594
29843W        W46027   2.338   2.493  10.585 -0.1619 -0.1339  0.5316
29844W        W46028   6.210   1.488  11.526 -0.2923 -0.1033 -0.0490
29845W        W46029   4.247  12.758  11.631 -0.0880 -0.0530  0.0870
29846W        W46030   8.586  13.426   0.626 -0.4099  0.2723  0.1641
29847W        W46031   1.745  11.177  14.586 -0.1857 -0.2044 -0.1546
29848W        W46032  13.783   7.510  12.431  0.0060  0.0314  0.0229
29849W        W46033  13.903  14.564   3.699  0.2933  0.3123  0.3167
29850W        W46034   5.800   3.914  13.062  0.3814  0.3684 -0.1105
29851W        W46035  16.520   1.576   1.259 -0.1183 -0.2435  0.1735
29852W        W46036   1.055   8.819   3.116  0.0188 -0.1285 -0.0421
29853W        W46037   0.427   9.881   4.822  0.2879 -0.1525  0.2643
29854W        W46038   8.600  17.353  10.720  0.1574 -0.1011 -0.0608
29855W        W46039   9.426   7.923   3.142 -0.0808  0.0171  0.1114
29856W        W46040   9.492  11.501  10.847  0.0987  0.0178 -0.1591
29857W        W46041  14.297   2.692  11.248  0.1733  0.1350 -0.3057
29858W        W46042  11.968  18.327   4.651 -0.1957  0.1692 -0.0879
29859W        W46043  16.529  13.436  13.614 -0.1070 -0.1325 -0.3209
29860W        W46044   3.863  15.207   5.574 -0.1637  0.2902 -0.1709
29861W        W46045  11.008   5.528  14.331  0.3806 -0.1475 -0.0458
29862W        W46046  11.825  12.474  13.300 -0.3776 -0.0074  0.5394
29863W        W46047  14.163   7.104   1.842  0.4616  0.0918  0.5629
29864W        W46048  17.010  15.665   1.074 -0.0927  0.2949  0.1644
29865W        W46049  12.348  17.502  13.624 -0.0963 -0.2587  0.0197
29866W        W46050   4.695  18.262   1.087 -0.3358 -0.2042  0.1751
29867W        W46051   6.119  11.620   0.754 -0.2607  0.1431  0.1996
29868W        W46052  13.247   3.427  12.238  0.1019 -0.3701  0.2265
29869W        W46053   1.180  15.276   0.004 -0.3985 -0.2799  0.0601
29870W        W46054  18.892   3.273   3.446  0.2096  0.3351 -0.0247
29871W        W46055   4.676  17.811  13.465  0.0453  0.1832 -0.4710
29872W        W46056   9.258   9.570  13.838  0.3239 -0.2383  0.0398
29873W        W46057   8.404   3.413  14.546  0.2359  0.4120  0.1793
29874W        W46058  14.706  13.831  10.083 -0.2112  0.3937  0.0181
29875W        W46059  16.708   9.141   3.163  0.2526  0.0038  0.0938
29876W        W46060  18.769  13.838   2.747  0.0615  0.0744  0.2830
29877W        W46061  12.360  17.018   9.066  0.1632 -0.1428 -0.0270
29878W        W46062  15.786   6.985   1.694  0.1060 -0.1928  0.0266
29879W        W46063   9.615   0.957  12.053  0.0717 -0.1602 -0.3614
29880W        W46064  12.975  13.188  12.201  0.0332  0.0908  0.1957
29881W        W46065   2.532   1.215   2.685  0.0080 -0.1946 -0.0449
29882W        W46066   5.676   9.840  13.183 -0.0099 -0.1582  0.1142
29883W        W46067  14.943   4.205   9.630  0.0891  0.0030 -0.0107
29884W        W46068  19.232  16.849  11.070  0.1963 -0.1125  0.0966
29885W        W46069  17.326  13.761  10.575  0.1951  0.0253  0.2628
29886W        W46070   7.817   7.244   1.185 -0.2409  0.0320  0.3018
29887W        W46071   4.196  18.708   5.047  0.1078  0.2099  0.2660
29888W        W46072   2.845   7.624  13.898 -0.2327  0.3173  0.1211
29889W        W46073   1.299   5.092   2.247 -0.1338  0.0300 -0.2681
29890W        W46074   2.085  12.833  13.342  0.0257 -0.2387  0.0711
29891W        W46075   8.665  14.561  13.452 -0.1442 -0.1098 -0.3549
29892W        W46076   8.262  13.628  11.607 -0.0641  0.2766  0.1565
29893W        W46077   0.842  16.154   3.823  0.0200  0.0288  0.2604
29894W        W46078  16.579   1.337   0.222 -0.1133  0.1146  0.3283
29895W        W46079   8.839  17.836   0.163  0.4338  0.1015 -0.1712
29896W        W46080  15.624   0.504  13.814  0.1620  0.2114  0.1412
29897W        W46081   3.719  15.339   3.657 -0.0882 -0.2105 -0.2043
29898W        W46082   3.817   0.115   0.835 -0.0180 -0.1002  0.0594
29899W        W46083   8.262   2.861  11.797 -0.2921  0.3205  0.0556
29900W        W46084  12.202   5.863   0.672 -0.0461  0.1815 -0.0596
29901W        W46085  14.451   9.070   9.903  0.1067 -0.1617 -0.0333
29902W        W46086   1.838   2.585   4.924 -0.0986  0.1568 -0.0999
29903W        W46087   6.862   9.701  14.014  0.0950  0.2156  0.1873
29904W        W46088  19.233   5.834  12.387  0.0975  0.1179  0.4364
29905W        W46089   6.188  17.012   3.452  0.0116  0.1289  0.0554
29906W        W46090  15.148   2.820   1.854  0.0412  0.3358 -0.1634
29907W        W46091   7.832  12.297  13.760  0.1242  0.2025  0.2481
29908W        W46092   4.852  12.362   0.873 -0.1547  0.0489  0.2614
29909W        W46093  16.782  15.519   0.072  0.2541 -0.1638 -0.2214
29910W        W46094   7.027  12.121   4.669 -0.3138 -0.3473  0.3396
29911W        W46095  14.305  17.412   0.760 -0.2591 -0.0191  0.0975
29912W        W46096   2.038  16.531  10.224 -0.0105 -0.0021  0.0098
29913W        W46097   9.642  11.834   3.051  0.1424 -0.3134  0.0114
29914W        W46098  15.709   6.161   9.913 -0.1910  0.1658 -0.2930
29915W        W46099  18.882  16.638   1.734  0.1661  0.4019 -0.1108
29916W        W46100   4.447  13.150   5.109 -0.1686 -0.3881  0.0617
29917W        W46101  17.545   2.971  11.503  0.0376 -0.0079  0.1547
29918W        W46102  13.142  14.465   9.052  0.1211  0.4340 -0.0454
29919W        W46103   7.016   8.976   3.412 -0.0794  0.1931  0.1600
29920W        W46104   6.532   6.602   0.232 -0.3662  0.0761 -0.2922
29921W        W46105  12.629  19.363   3.663  0.3917  0.0847  0.1932
29922W        W46106  16.969   6.726   4.760 -0.0009  0.2446  0.3682
29923W        W46107   0.367  14.774   0.971 -0.5398  0.1283 -0.1777
29924W        W46108  10.262   6.571  13.486  0.1006 -0.1556 -0.0732
29925W        W46109   4.537   9.369  13.660  0.1203  0.2643  0.0147
29926W        W46110  11.214  16.006  14.270  0.4176 -0.0149  0.1913
29927W        W46111  11.882   2.868   2.513  0.0651  0.1884 -0.2905
29928W        W46112  14.280   6.864  12.323  0.3123  0.1964 -0.0383
29929W        W46113   9.480   4.364  10.986  0.0096  0.5344  0.0504
29930W        W46114   2.212  10.702  13.926 -0.2329 -0.3624 -0.0877
29931W        W46115  16.020  16.070   1.931 -0.2147  0.1443 -0.3389
29932W        W46116  15.650   6.069  14.800 -0.1950 -0.0398 -0.0830
29933W        W46117   5.194   6.258  13.081  0.0303 -0.0596 -0.1096
29934W        W46118  18.863   6.096  11.741 -0.0699 -0.1238 -0.1661
29935W        W46119  19.150  14.032   2.407  0.1698  0.1220  0.3787
29936W        W46120  12.092   8.088   2.136  0.1549 -0.0082 -0.1522
29937W        W46121   8.469  14.587   2.961  0.3419  0.0106  0.1568
29938W        W46122   8.595  16.341  14.422 -0.1100 -0.1802  0.2870
29939W        W46123  11.213  13.023  10.726 -0.5338  0.1000 -0.1933
29940W        W46124   5.687  18.792   4.938 -0.1712 -0.0615 -0.0656
29941W        W46125  10.291  16.568   3.186  0.0776 -0.2167  0.0709
29942W        W46126  19.115  10.763   4.688 -0.0871 -0.2694 -0.1455
29943W        W46127   9.517   4.456  13.685 -0.0912 -0.3720 -0.2478
29944W        W46128  19.054   1.070   2.935  0.0006  0.3734 -0.0752
29945W        W46129   9.224  15.852  12.755  0.0361 -0.0508 -0.2421
29946W        W46130   1.745   3.931   5.452 -0.0738  0.0622  0.0786
29947W        W46131  12.016  17.005   4.820 -0.0463  0.1128  0.0654
29948W        W46132  12.382  15.482  10.456  0.1892 -0.2943 -0.2653
29949W        W46133   5.588   6.047  14.894 -0.2141 -0.1621  0.2395
29950W        W46134   9.099   4.671   4.191 -0.1421  0.1375  0.1084
29951W        W46135   8.198  10.182  14.839 -0.1698 -0.0434  0.2477
29952W        W46136  17.565   5.210  11.784  0.4277 -0.5764 -0.1588
29953W        W46137  16.566  14.881   0.707  0.3338 -0.1017 -0.0635
29954W        W46138  19.268   6.287   5.281  0.0309 -0.1417 -0.1796
29955W        W46139  16.948  13.128  10.519 -0.0832 -0.2343 -0.2813
29956W        W46140   9.483  17.038   1.273  0.1446  0.1053 -0.0063
29957W        W46141   7.718   0.329   4.875  0.0763 -0.2095  0.3157
29958W        W46142  12.539  10.792  10.666 -0.4558 -0.2796  0.0577
29959W        W46143  14.597  14.633  14.751  0.2914  0.0165  0.1422
29960W        W46144   2.061  12.547  11.495 -0.2041  0.1317  0.1012
29961W        W46145   4.463  12.937   0.897 -0.1002  0.0904 -0.1335
29962W        W46146  14.239   3.738  11.444 -0.3665  0.1527  0.1929
29963W        W46147  18.551   5.506   0.722  0.1941  0.0810  0.0208
29964W        W46148  12.782  11.994   0.643  0.5814 -0.0091  0.1919
29965W        W46149   5.785  16.896  13.650  0.0548 -0.0532  0.0489
29966W        W46150   2.439  11.006   5.371 -0.1157  0.2565  0.1689
29967W        W46151   0.800  16.086  13.526  0.1595  0.0288 -0.2567
29968W        W46152  12.138   8.720   9.958 -0.2317 -0.0936 -0.2678
29969W        W46153  17.643   4.105  11.110 -0.1931 -0.4361  0.3356
29970W        W46154   5.299  12.090   4.809  0.1088 -0.1251 -0.0110
29971W        W46155  11.264  14.221   2.494 -0.0343  0.3955 -0.0447
29972W        W46156   6.517  18.064   1.244 -0.2395 -0.2160 -0.0040
29973W        W46157  12.034   8.252   4.363 -0.0168 -0.0773  0.1930
29974W        W46158  15.658   8.121  13.444  0.1120 -0.0784  0.0365
29975W        W46159   6.341   7.739   1.479  0.2274  0.2973  0.2232
29976W        W46160  16.210   8.482   2.053  0.2752 -0.4144  0.0628
29977W        W46161  11.282   6.856  12.537  0.1684 -0.0073  0.0557
29978W        W46162  18.972  10.325   4.428 -0.0808 -0.1134 -0.2163
29979W        W46163  14.720   1.814   1.546  0.0960  0.1893  0.4633
29980W        W46164   0.644  16.296   2.841 -0.3764 -0.0740 -0.1414
29981W        W46165   5.817  12.320   2.049 -0.0832 -0.0721  0.2919
29982W        W46166   2.252   7.320   2.375  0.2982  0.0767 -0.3588
29983W        W46167  17.467   4.506   2.302  0.3361 -0.0172  0.0352
29984W        W46168   6.833   5.931  11.328 -0.0361  0.0266 -0.0939
29985W        W46169  11.137  18.114  13.244 -0.0867  0.1988 -0.0516
29986W        W46170  10.229  15.928   3.040  0.0304  0.1583  0.3763
29987W        W46171   2.087   8.497   1.109 -0.1042 -0.2163  0.0154
29988W        W46172  17.404  11.354   3.582  0.1789  0.1842 -0.0610
29989W        W46173  18.874  15.997   1.081 -0.0970  0.0663 -0.0550
29990W        W46174   3.118   0.253   2.657  0.0997  0.2188 -0.1376
29991W        W46175   1.394   2.237   0.670  0.0888  0.2269 -0.1736
29992W        W46176   6.739   1.680   2.397 -0.0369 -0.1252  0.3626
29993W        W46177  14.860  13.861   2.117 -0.0872 -0.0444  0.1784
29994W        W46178  11.749   5.702   2.061  0.0065  0.1905  0.3512
29995W        W46179  16.407  14.001   9.753 -0.2566 -0.1348  0.0619
29996W        W46180   5.085   3.226   0.788 -0.3869  0.0272  0.4473
29997W        W46181   6.660  12.526  12.029 -0.0718 -0.0696  0.1060
29998W        W46182  11.045   2.681   1.498  0.0411  0.0969  0.1229
29999W        W46183  17.227   8.779   2.474 -0.1927 -0.1106 -0.2254
30000W        W46184  14.027  10.332  10.920  0.0778 -0.2579 -0.0886
30001W        W46185  10.391  16.750   4.371  0.0329 -0.0888 -0.4686
30002W        W46186  14.965  14.804   4.586 -0.2936  0.0472 -0.3485
30003W        W46187   5.242   9.897  12.957  0.0966  0.0426  0.1233
30004W        W46188   0.361  15.518  11.118  0.1463 -0.4281 -0.0551
30005W        W46189   8.448   9.784   0.135  0.0223 -0.0362  0.0977
30006W        W46190   9.074  11.812   1.278  0.2069 -0.0091 -0.0521
30007W        W46191  15.863  15.733   1.582  0.2507 -0.2722 -0.2626
30008W        W46192   9.457  18.673   1.605  0.0193 -0.1366 -0.2005
30009W        W46193   5.890  11.429   2.946 -0.0251  0.0211 -0.2073
30010W        W46194   8.438  18.395  10.830  0.0883 -0.0457 -0.4023
30011W        W46195   6.185  14.174   1.831 -0.1253  0.4295  0.1354
30012W        W46196   5.723  15.544  12.651 -0.1035 -0.0576 -0.1188
30013W        W46197  12.284   0.441  11.804 -0.1210  0.2751  0.3188
30014W        W46198   7.306  14.679   3.635  0.2245 -0.0349  0.3061
30015W        W46199   2.166  15.411   2.202  0.0373  0.0889 -0.2141
30016W        W46200  17.517  14.772   3.473 -0.2340  0.0726 -0.0089
30017W        W46201   9.019  13.152  12.860  0.1799 -0.2657 -0.0461
30018W        W46202  12.921   0.071  11.820  0.0657 -0.0546 -0.1564
30019W        W46203  10.780  11.444   9.942 -0.0799  0.1262  0.1189
30020W        W46204  11.295   9.265  13.504 -0.0632 -0.1825  0.3232
30021W        W46205   7.262  14.207   5.744  0.2856  0.4147 -0.1953
30022W        W46206  10.653   5.520   4.470  0.0927  0.2677  0.3161
30023W        W46207   4.958   7.530   3.017  0.3858 -0.2975  0.0571
30024W        W46208   3.383  15.920   2.135  0.1063  0.2588 -0.3314
30025W        W46209   1.978   5.470  11.280 -0.1870  0.1963  0.0091
30026W        W46210  12.756   0.539  11.952 -0.1509 -0.1990 -0.0079
30027W        W46211  17.331   1.321   5.074  0.2434  0.1410  0.1322
30028W        W46212  17.270  12.013   0.583  0.0799  0.4680 -0.0303
30029W        W46213  12.872  12.859  12.560 -0.2256 -0.0988 -0.0549
30030W        W46214   9.658  15.399   1.323  0.3123  0.1093 -0.1385
30031W        W46215  10.421  12.216   2.979  0.0457  0.1605 -0.1480
30032W        W46216   9.410   4.063  11.757 -0.0349 -0.0117  0.0242
30033W        W46217  18.854   9.842  14.924  0.2142 -0.1111 -0.0246
30034W        W46218  11.030  12.920  12.596  0.0498 -0.0880  0.2813
30035W        W46219   3.800  12.342   2.105  0.0180  0.2655  0.2247
30036W        W46220   4.558  18.338   3.453  0.1266  0.1815  0.1366
30037W        W46221   6.966  19.179   0.764 -0.2956 -0.1079 -0.0843
30038W        W46222   5.818   1.392  13.189 -0.3096  0.3506  0.1177
30039W        W46223  16.417  12.019  10.987 -0.2779  0.0480 -0.0056
30040W        W46224   7.857   0.678  11.364  0.0703  0.1043  0.1731
30041W        W46225   7.507  18.879  11.325 -0.1825  0.2152  0.0537
30042W        W46226  12.366  17.967  13.450 -0.1108 -0.2453 -0.2894
30043W        W46227  11.201  13.559  13.081 -0.1261  0.3659 -0.2543
30044W        W46228   4.739   6.735  13.204 -0.1920 -0.0556  0.1865
30045W        W46229  17.146   8.590  13.610  0.2309  0.3353  0.0409
30046W        W46230  16.373   9.796  12.536  0.0846  0.2230  0.3175
30047W        W46231   3.096   1.669  13.166  0.0274  0.1915 -0.0461
30048W        W46232  13.631  14.729   4.760 -0.1170  0.3302  0.0251
30049W        W46233   3.648  16.997  12.414  0.0292  0.3062  0.1828
30050W        W46234  10.863   7.215  12.784 -0.0381 -0.1528  0.0044
30051W        W46235  11.650  11.132  10.545 -0.2414 -0.1242  0.0719
30052W        W46236   8.790  18.670  13.083 -0.1122 -0.4353  0.2719
30053W        W46237  11.926   5.275   3.796 -0.2891  0.2314 -0.0225
30054W        W46238  11.300   0.902  10.785 -0.0421  0.1171  0.1729
30055W        W46239  11.266  17.642  14.246  0.1239  0.0025 -0.0036
30056W        W46240  13.852  15.076   3.618  0.3008  0.1705 -0.0142
30057W        W46241   0.229  11.819  12.358 -0.1949  0.1568  0.1477
30058W        W46242  12.421   9.311  12.980 -0.3710  0.0246 -0.0479
30059W        W46243   6.562   7.025   4.567 -0.2178  0.1734 -0.2540
30060W        W46244   2.543   3.888  12.018  0.2503  0.3285  0.1213
30061W        W46245  11.136   4.056   2.449  0.1406  0.0518  0.0173
30062W        W46246   2.579   1.727  14.757 -0.2326  0.1357 -0.0612
30063W        W46247   4.644   1.356  14.477  0.4787 -0.2214  0.2772
30064W        W46248  15.083   2.864  10.104  0.2517 -0.0003 -0.2142
30065W        W46249  13.633  10.026   4.341  0.0226  0.0517  0.0783
30066W        W46250   6.817  12.755   5.424 -0.1267 -0.1234  0.1574
30067W        W46251   1.030  10.473  11.093 -0.0680  0.0003  0.0622
30068W        W46252  13.851   2.239   4.229  0.1041 -0.1345 -0.1713
30069W        W46253  19.271   0.733   1.367  0.0045 -0.0670 -0.4112
30070W        W46254   5.716  17.439   3.652  0.5081 -0.0027 -0.2512
30071W        W46255   8.527   7.033   3.893  0.0691  0.0244  0.3372
30072W        W46256  17.298  14.635  11.943 -0.1398  0.3654  0.0125
30073W        W46257   7.241  17.926  11.278 -0.0762  0.0452 -0.0419
30074W        W46258  10.272  15.308  13.871 -0.2468 -0.0541 -0.0434
30075W        W46259  17.230   1.162  11.872 -0.0729  0.1221  0.1565
30076W        W46260  17.812  17.100   0.057  0.0438  0.0494 -0.0218
30077W        W46261  17.635   2.294   2.470 -0.0452  0.4178 -0.0195
30078W        W46262  14.799   4.207  12.557  0.2988 -0.0985  0.2490
30079W        W46263   8.476   7.070   3.414 -0.0562 -0.1142  0.0300
30080W        W46264  14.812  16.628   1.636 -0.2238  0.1521 -0.3276
30081W        W46265   6.611  11.208  13.831  0.3321 -0.2262 -0.0784
30082W        W46266  19.095  11.819  12.374 -0.1513  0.1071  0.2337
30083W        W46267   1.387  18.001  14.709  0.1794 -0.0692 -0.0163
30084W        W46268  15.400  17.324   1.504  0.1509  0.1047 -0.1232
30085W        W46269   0.097  10.379   2.177 -0.3052 -0.0488 -0.0670
30086W        W46270   0.538  12.940   0.679 -0.3114 -0.0085 -0.0060
30087W        W46271   5.893  17.559   1.954  0.1389 -0.2258  0.0430
30088W        W46272   8.452   7.329   2.461 -0.3234 -0.0367  0.0819
30089W        W46273   5.618  19.271   3.498  0.0519  0.1442  0.0865
30090W        W46274   2.126  14.299   4.757  0.1510  0.0413 -0.1443
30091W        W46275  12.707   0.196   5.276 -0.0519  0.0064  0.4874
30092W        W46276   9.294  10.490  14.152 -0.1318 -0.2075  0.2902
30093W        W46277  11.807   8.601  10.343 -0.0052 -0.1594 -0.0604
30094W        W46278   0.512  12.040  14.890 -0.0897  0.1419  0.0441
30095W        W46279  10.242   1.501   3.633 -0.0040 -0.1900  0.3094
30096W        W46280   9.822   7.266   4.740  0.0563  0.5183  0.2655
30097W        W46281  15.539   3.196   1.893  0.1866 -0.2320  0.1204
30098W        W46282  11.590   0.238  12.100 -0.1029 -0.0225  0.2404
30099W        W46283  11.348  13.332   0.816 -0.2495  0.3211 -0.2636
30100W        W46284   2.503  12.922  14.854  0.1831 -0.1381  0.4288
30101W        W46285   2.115   6.879   4.825  0.0483  0.0199 -0.1166
30102W        W46286   4.986   7.312   1.957 -0.0752 -0.2911 -0.1686
30103W        W46287  17.988  17.804  12.208 -0.0691  0.0286 -0.2940
30104W        W46288  18.852  19.295   1.884  0.1209  0.1205 -0.0904
30105W        W46289  19.025   0.924  14.051 -0.0683 -0.1654 -0.0134
30106W        W46290  17.212   5.675   4.434  0.0120 -0.3055 -0.1244
30107W        W46291   5.238  11.924   3.970 -0.3795 -0.0895 -0.1422
30108W        W46292   4.442   8.047   4.083  0.0903  0.1834  0.0155
30109W        W46293  14.101   5.492   1.425  0.1128  0.0697  0.1556
30110W        W46294  10.594   1.805  10.870 -0.0701  0.3199  0.0178
30111W        W46295  14.442  12.186  10.763 -0.1224 -0.3130  0.1782
30112W        W46296  13.434  13.272   1.012  0.3532  0.1248 -0.0198
30113W        W46297  13.364  16.409  11.884 -0.0274 -0.1052  0.0650
30114W        W46298  10.751  11.097  10.971  0.1042 -0.0612 -0.1182
30115W        W46299   7.413   0.491  13.633 -0.1334 -0.3073  0.0443
30116W        W46300  13.142  15.784   0.749  0.1506  0.0585  0.0676
30117W        W46301   5.156   4.453  11.244  0.0170  0.0671  0.1222
30118W        W46302  18.503   7.972   1.364 -0.1383  0.1158 -0.2852
30119W        W46303  18.867   3.834  12.910 -0.0226 -0.0830 -0.0027
30120W        W46304   7.107  16.194   0.427  0.1242 -0.0917  0.0021
30121W        W46305  10.764  14.151   3.640  0.5195  0.1010  0.5223
30122W        W46306   6.924  17.044   0.163  0.1720 -0.1958  0.1665
30123W        W46307  10.915   9.821  10.750  0.0339 -0.2881  0.0837
30124W        W46308  18.138   9.109   2.412 -0.2226  0.3045  0.1896
30125W        W46309   1.344  12.100  12.092 -0.0103 -0.2417  0.0213
30126W        W46310  18.298  18.099  13.013 -0.2174 -0.1350  0.3460
30127W        W46311  17.001  13.747  14.584  0.1688  0.0263  0.2503
30128W        W46312   9.555  10.391  10.956  0.2575  0.0271 -0.2156
30129W        W46313   6.286   5.869  13.908  0.3230 -0.1210 -0.0875
30130W        W46314  15.018  11.350   0.332 -0.3193 -0.1407  0.1246
30131W        W46315   1.914  12.030  11.151 -0.2941  0.0357 -0.0712
30132W        W46316   7.626   5.956   3.322 -0.0979  0.2234 -0.3260
30133W        W46317   1.141   5.484   3.335 -0.3035 -0.2711  0.2166
30134W        W46318  11.402   5.248   1.969 -0.0084  0.3440 -0.0214
30135W        W46319   1.370   5.429  13.224  0.1755 -0.0499  0.3139
30136W        W46320   5.552   1.001  13.678 -0.1398  0.0543  0.3523
30137W        W46321   0.319  17.035   3.306 -0.0732 -0.2696 -0.2606
30138W        W46322   0.443  19.067   1.793 -0.0040  0.1285  0.2926
30139W        W46323  11.080  14.657   0.548  0.3336 -0.0723 -0.0161
30140W        W46324   6.645  13.144   0.132  0.3097 -0.0278 -0.1327
30141W        W46325   9.525   9.681  14.755  0.3824  0.0511 -0.2594
30142W        W46326  13.856  18.479   0.244  0.0346  0.0571 -0.2326
30143W        W46327   5.241  12.827   4.365  0.1140 -0.3342 -0.0095
30144W        W46328   1.063  17.251   2.736 -0.2922 -0.2298  0.2503
30145W        W46329   1.896  18.903   3.196 -0.1422  0.0411 -0.0752
30146W        W46330  15.917   5.772  11.621 -0.1874 -0.2335 -0.0819
30147W        W46331   9.527   5.230  14.889  0.0330  0.2714  0.2449
30148W        W46332   9.018  15.926   0.644 -0.6683 -0.1008  0.0654
30149W        W46333  18.909  15.599  11.712 -0.4026  0.3687  0.0022
30150W        W46334  17.900  16.501  13.979 -0.1566  0.2151  0.0481
30151W        W46335   8.330   0.833  12.368 -0.3916  0.0965  0.0910
30152W        W46336  12.411  12.995   3.878  0.1382  0.1428  0.0418
30153W        W46337  13.192  12.201   3.008  0.2337  0.0587  0.2480
30154W        W46338  13.507  14.428   2.965 -0.0951  0.0220 -0.1775
30155W        W46339  10.227  10.975   3.298  0.0762 -0.4408  0.2197
30156W        W46340  10.844   7.053   4.384  0.1224  0.4628 -0.3124
30157W        W46341   2.608  15.194  10.865 -0.4120 -0.0375  0.0421
30158W        W46342   9.611  16.636   4.006 -0.1996  0.3035  0.0484
30159W        W46343   6.715   7.968   4.660  0.2638 -0.0915  0.0583
30160W        W46344  13.920   6.425  10.741  0.1766 -0.1777 -0.0103
30161W        W46345  16.056  10.955  13.755  0.0258  0.0137 -0.0193
30162W        W46346   4.842   5.087   0.597  0.0170 -0.1143 -0.1075
30163W        W46347  11.461  11.665   0.560 -0.1371  0.0295 -0.3472
30164W        W46348  10.874   0.750   4.396  0.1673  0.0132  0.3001
30165W        W46349   3.463   7.997  12.192  0.0588  0.3288 -0.2197
30166W        W46350   7.210   1.724  14.165 -0.2176 -0.0197  0.1108
30167W        W46351   2.500   4.288   1.502  0.1053  0.2439 -0.1096
30168W        W46352  19.282   9.826   1.572  0.0899 -0.0443 -0.1688
30169W        W46353  12.452   8.664  14.100 -0.2728 -0.2599 -0.2804
30170W        W46354   6.592  10.678   4.664  0.2452  0.0810  0.3316
30171W        W46355  16.196   4.204  11.666  0.0545 -0.2246  0.0016
30172W        W46356  18.341  15.886   1.741 -0.0541 -0.2545 -0.2137
30173W        W46357  10.902   0.005   2.801  0.0767 -0.1781  0.0053
30174W        W46358   8.430   7.703   4.149  0.0504 -0.1475  0.2563
30175W        W46359   0.098  18.113  10.992 -0.2862  0.0432 -0.2689
30176W        W46360   7.480  11.731   3.316  0.3948 -0.1537 -0.4905
30177W        W46361  17.333  16.316  12.054  0.2909 -0.1078 -0.2751
30178W        W46362   5.860   6.838  11.797 -0.1511  0.3017  0.1281
30179W        W46363  11.716   9.980  12.294  0.4661  0.4428 -0.0264
30180W        W46364   3.217  13.670  12.651 -0.2511  0.2361 -0.0519
30181W        W46365   0.553   9.276   0.732  0.1128  0.2612  0.3345
30182W        W46366  19.089  17.390   0.550 -0.2472 -0.0932 -0.0620
30183W        W46367   1.202  18.423   3.777 -0.2017  0.4291 -0.1775
30184W        W46368  10.273  17.972   2.786  0.0381 -0.0678  0.0815
30185W        W46369  13.630   8.192  11.863  0.0402  0.0095 -0.1606
30186W        W46370  13.161  13.558   4.221  0.0649 -0.1855  0.1474
30187W        W46371  16.975  17.524   3.786  0.2836 -0.1971  0.1248
30188W        W46372  10.084   2.465  10.376 -0.2071 -0.0219  0.1630
30189W        W46373   3.452   4.527  11.420  0.2098  0.1298 -0.0889
30190W        W46374   9.527   7.701   4.918  0.0533 -0.0222  0.0268
30191W        W46375   1.329  16.768  13.235 -0.0908 -0.0085  0.0606
30192W        W46376  17.697  12.368  14.476 -0.0225 -0.2399  0.1819
30193W        W46377  18.466   5.782   0.275 -0.3873 -0.3156 -0.1170
30194W        W46378   3.240   4.717   3.337  0.1752 -0.0280 -0.0409
30195W        W46379  13.482   3.885   5.542 -0.0726 -0.0246 -0.1747
30196W        W46380   2.230  15.469  11.184  0.2098 -0.0547  0.0992
30197W        W46381   2.414  12.029   4.418  0.0146  0.0280  0.0486
30198W        W46382  13.646   3.244  12.584  0.0197  0.2744 -0.2084
30199W        W46383  13.923   8.520  12.845  0.0845 -0.4104  0.1419
30200W        W46384   9.165  17.301  11.501  0.3131  0.0618  0.0559
30201W        W46385  16.081   0.913  13.972  0.0953 -0.3717  0.2526
30202W        W46386   8.396   0.405   3.301  0.0666  0.0725 -0.0231
30203W        W46387  18.687  18.926   2.208 -0.0303  0.1286 -0.1587
30204W        W46388  13.032   2.512   3.048  0.3677  0.0594 -0.1596
30205W        W46389  17.480  13.214  14.079 -0.1887  0.1708  0.1932
30206W        W46390  16.769   0.175   5.606 -0.3664 -0.1010  0.0115
30207W        W46391  19.365   7.375  10.883 -0.2108  0.5459  0.0026
30208W        W46392   7.460  18.326  12.312  0.2915 -0.1884 -0.1179
30209W        W46393   0.925   1.938  10.722 -0.1465  0.2143 -0.0806
30210W        W46394   2.298   5.238  12.053 -0.0823  0.2355  0.2282
30211W        W46395   6.556  10.213   3.545 -0.0256 -0.0196 -0.2575
30212W        W46396   2.392  13.770  12.535 -0.0073 -0.0606  0.3657
30213W        W46397  15.773   5.033   0.483 -0.0740 -0.3026 -0.1419
30214W        W46398   2.866  11.775  14.535  0.0419 -0.2656 -0.1276
30215W        W46399   4.641  15.942  14.584 -0.0928  0.0443 -0.0481
30216W        W46400   1.507  16.698  10.681 -0.4727  0.5232 -0.0926
30217W        W46401  17.837  15.216   0.901  0.0160  0.2219 -0.1343
30218W        W46402  11.022   3.577   0.114  0.2166 -0.1219  0.0398
30219W        W46403  18.748   9.845   0.471 -0.1183  0.0302  0.3167
30220W        W46404   6.533   0.764  13.395  0.0013 -0.0757 -0.1031
30221W        W46405  13.186   0.665   2.566  0.1873  0.0729 -0.2153
30222W        W46406  17.645  13.010   1.578  0.0006  0.0560 -0.0068
30223W        W46407   4.132  15.910   4.247 -0.2408  0.1568 -0.3516
30224W        W46408   9.453   2.113  14.315 -0.1201  0.1296  0.4593
30225W        W46409   5.548   1.574   1.375  0.2780 -0.0515 -0.0719
30226W        W46410  11.703  16.195   2.562  0.3955 -0.2847 -0.2421
30227W        W46411  14.605  13.323   0.974  0.3956  0.0228  0.2014
30228W        W46412  18.125   1.968  10.574  0.1569 -0.1528 -0.1137
30229W        W46413   7.472  14.863  14.748  0.0127  0.4796 -0.0006
30230W        W46414  19.143  13.482   2.353  0.0144 -0.2207 -0.2368
30231W        W46415  10.015  16.027  10.513 -0.0435 -0.0165 -0.0019
30232W        W46416   5.946   9.358  13.172 -0.0146  0.0151 -0.2746
30233W        W46417  17.364  14.562   2.148 -0.0154 -0.2978  0.1116
30234W        W46418  11.362  13.295   2.033  0.0092 -0.0994  0.3633
30235W        W46419   0.617   4.502   2.363 -0.2484  0.0166  0.2053
30236W        W46420  11.814  19.271   4.831  0.2481  0.1146  0.2597
30237W        W46421  17.649  15.202   9.822  0.3273 -0.1936  0.0593
30238W        W46422   7.479   5.512  14.927  0.0777  0.1378  0.2270
30239W        W46423  14.122  12.368   1.777  0.4090 -0.0999  0.1104
30240W        W46424   7.680  11.444   1.582 -0.1404  0.1128  0.2807
30241W        W46425   1.563   8.119   0.094  0.0754  0.0894 -0.0456
30242W        W46426  15.921   9.144  13.121 -0.0885  0.0574  0.3440
30243W        W46427   3.409   3.872   2.932  0.0581 -0.1827 -0.1757
30244W        W46428  17.866   6.326  13.108 -0.2234 -0.0536  0.1575
30245W        W46429  13.212  15.401   2.897 -0.3390  0.4786 -0.2962
30246W        W46430   1.606   1.278   2.879  0.3419 -0.1177 -0.0679
30247W        W46431  19.284  17.670  13.160 -0.0710 -0.0194  0.2009
30248W        W46432   4.721  16.420   1.542  0.2091  0.1845  0.3177
30249W        W46433  18.208   4.957   0.484  0.5418 -0.2464  0.1411
30250W        W46434   1.451   8.421  14.665 -0.0939  0.1886  0.0584
30251W        W46435   4.625  11.225  12.118 -0.2053  0.0593 -0.1570
30252W        W46436  11.905   2.809  14.238  0.1792 -0.0162 -0.0256
30253W        W46437   1.044   8.939  13.274 -0.1777  0.1488  0.1706
30254W        W46438  14.298   5.177  11.673 -0.0981 -0.0970 -0.1401
30255W        W46439  14.913   8.895  11.962  0.0504 -0.3019  0.0670
30256W        W46440   1.016  11.935  11.761 -0.1952 -0.1145  0.0013
30257W        W46441   4.769   2.400  11.033 -0.0072 -0.3058 -0.4161
30258W        W46442  12.763   9.413   5.229 -0.0198  0.1039 -0.0775
30259W        W46443  11.201   8.214  11.702  0.1456 -0.1169  0.1073
30260W        W46444   5.349  18.387  14.003 -0.0357  0.4368 -0.2944
30261W        W46445  16.561  11.320   3.890 -0.0377  0.0784 -0.1165
30262W        W46446   9.969  15.928  13.223 -0.1379 -0.2753 -0.0669
30263W        W46447  10.464  16.043   4.196 -0.0837  0.2205  0.0367
30264W        W46448  14.890  12.295   3.995  0.1703  0.2586 -0.0506
30265W        W46449   3.590  13.880   4.875  0.1667  0.1066  0.0563
30266W        W46450   6.745   2.324   4.059 -0.3799 -0.1447 -0.2003
30267W        W46451  15.065  13.151   2.253  0.0666  0.0481 -0.0366
30268W        W46452  16.869  15.060   5.566 -0.3511 -0.1760 -0.2816
30269W        W46453   8.265   2.907  14.816  0.0138  0.0559 -0.0562
30270W        W46454  10.314  11.098   2.381  0.2454 -0.1547  0.2602
30271W        W46455  13.886  11.945   4.349  0.1045 -0.3358  0.1217
30272W        W46456   6.666   0.730   0.920  0.2457 -0.0303 -0.1351
30273W        W46457   9.806  11.906  10.795  0.2523  0.1323 -0.1977
30274W        W46458  16.455  18.510   2.904  0.3082  0.0697 -0.3102
30275W        W46459   9.319  12.923   2.860 -0.0233 -0.1573 -0.1776
30276W        W46460  18.198   8.900   1.458 -0.0257 -0.2074 -0.1506
30277W        W46461  12.758   1.480   4.580 -0.3189 -0.4815 -0.0534
30278W        W46462   9.886  14.143  14.847  0.0745 -0.1226  0.1660
30279W        W46463  17.041  13.712   2.676 -0.0237 -0.0486 -0.0858
30280W        W46464  11.353   5.365   2.457 -0.3964  0.1302 -0.1613
30281W        W46465   1.044  10.441  13.331 -0.1002  0.0399  0.1625
30282W        W46466  17.004   1.971  12.224  0.0507 -0.0491  0.2444
30283W        W46467   1.715   0.276   3.802 -0.2275 -0.0762 -0.0844
30284W        W46468   3.923  13.427   2.656  0.4154  0.1712  0.0645
30285W        W46469   6.931  14.067   5.084 -0.4094 -0.1848  0.0863
30286W        W46470  11.442  15.434   0.260 -0.0667  0.0663  0.0304
30287W        W46471  15.246   8.374  10.698  0.3411 -0.1432 -0.0073
30288W        W46472   2.975   4.296   3.274 -0.1965 -0.0283  0.1800
30289W        W46473   8.305   7.217  11.334  0.2686  0.0969  0.2275
30290W        W46474   5.738  11.870   0.585 -0.3556 -0.0173 -0.1960
30291W        W46475  16.397  13.273   4.677 -0.2666 -0.0336 -0.0849
30292W        W46476   3.653   9.098  14.157 -0.0239  0.0583 -0.4215
30293W        W46477   7.616  12.264  12.516 -0.1158  0.2309  0.2398
30294W        W46478  10.037   2.525  11.788 -0.0214 -0.0575  0.1302
30295W        W46479   0.817   5.400  13.233  0.2513  0.0706 -0.2516
30296W        W46480   9.724   5.466   3.387 -0.0676  0.1869 -0.3198
30297W        W46481  18.354   0.962   4.162  0.0713  0.1043  0.1944
30298W        W46482  16.183   8.734  13.346  0.1463  0.1720 -0.1060
30299W        W46483  16.207  16.957  12.804 -0.1576  0.3155 -0.1681
30300W        W46484   0.346  18.633  12.505  0.0581  0.0584 -0.3538
30301W        W46485  16.602  18.367   4.368 -0.0119  0.1293 -0.1307
30302W        W46486   0.528   3.435   4.230 -0.1182  0.0171  0.0930
30303W        W46487  19.250  18.795  11.585  0.2102 -0.1205 -0.1959
30304W        W46488   3.955   4.795  13.637  0.1403  0.0509  0.0229
30305W        W46489   7.494   4.412   2.732 -0.1638 -0.0809  0.0795
30306W        W46490   3.971   2.548   2.796 -0.0172  0.4004 -0.4243
30307W        W46491  17.473  17.460  14.215  0.0161 -0.1064  0.1865
30308W        W46492  12.213   5.809   1.825  0.0544 -0.2492 -0.1477
30309W        W46493   5.276  10.910   1.739 -0.0138  0.2564 -0.0942
30310W        W46494  16.558  15.308  12.637  0.0983 -0.3679 -0.2711
30311W        W46495  12.933  17.499   3.732  0.0233  0.1727 -0.0268
30312W        W46496  12.039  16.648   2.597 -0.1059 -0.0311 -0.0759
30313W        W46497  10.245   2.366   5.606 -0.1559  0.0667 -0.1111
30314W        W46498   3.320  18.062   1.004  0.1100 -0.0529 -0.5317
30315W        W46499   1.722   2.584   3.699  0.2130 -0.1977 -0.2157
30316W        W46500  17.157   8.625  10.734 -0.2366  0.1242  0.1427
30317W        W46501   5.369  18.850   3.531  0.1929  0.0467 -0.1021
30318W        W46502  16.312  15.029   9.724 -0.0403  0.1199  0.2149
30319W        W46503   3.049   3.843  14.042 -0.2048 -0.1155  0.0652
30320W        W46504   8.400   8.819  14.037  0.2684 -0.1486  0.2267
30321W        W46505   0.812  12.667   3.769 -0.3510  0.1242 -0.2729
30322W        W46506   1.052  10.528  14.533 -0.0785  0.0664 -0.0348
30323W        W46507  18.076  18.005  11.019 -0.3134 -0.0292  0.1292
30324W        W46508   1.927  13.479  11.248 -0.2831  0.0430  0.1949
30325W        W46509  18.599   0.964   0.421 -0.1085  0.0290 -0.1358
30326W        W46510   1.859   1.049   3.683 -0.1126  0.2402 -0.0932
30327W        W46511  11.754  19.267   4.375  0.0474  0.2099  0.1803
30328W        W46512   0.816   1.478  14.859  0.4086  0.1125  0.1217
30329W        W46513  16.010  16.825   3.776 -0.0165  0.1442 -0.1223
30330W        W46514  19.341   5.899  11.680  0.1578  0.0540  0.1846
30331W        W46515  12.196  13.375   0.163 -0.0921  0.0698  0.0493
30332W        W46516   4.250   4.985  13.261 -0.0673 -0.2325  0.0110
30333W        W46517   0.283   8.100   4.634  0.0379 -0.1684 -0.0591
30334W        W46518  11.533   8.464  13.743  0.0391  0.1992 -0.3127
30335W        W46519   3.893   3.436  13.044 -0.0606  0.1667  0.0476
30336W        W46520  15.498   9.215  14.899 -0.1243 -0.1171 -0.3184
30337W        W46521  17.902   6.040   4.796 -0.1611  0.0800  0.1287
30338W        W46522  10.435  10.244   4.998 -0.1555 -0.1306 -0.3381
30339W        W46523   0.335   1.876   0.005  0.1024  0.2233  0.0456
30340W        W46524   1.518  12.903   4.839 -0.0040 -0.1164 -0.0078
30341W        W46525   0.442   2.702  14.670  0.3901  0.0115 -0.1135
30342W        W46526   5.032  10.541  12.787  0.2233 -0.4194 -0.3095
30343W        W46527  15.950   4.851   2.489  0.1316  0.1707  0.1183
30344W        W46528  16.320  10.179   0.366 -0.1159 -0.1742  0.2928
30345W        W46529   8.488  18.129  11.840  0.3161 -0.0955  0.1848
30346W        W46530  17.891  16.696   0.336 -0.0591 -0.4417  0.1598
30347W        W46531   8.507  18.624   1.682 -0.1557 -0.0806 -0.1130
30348W        W46532  11.555   6.249   2.693  0.1290 -0.1705  0.2425
30349W        W46533   0.299   6.452   3.164  0.1426  0.2117 -0.0643
30350W        W46534  12.539  10.678   4.366  0.0549  0.0173  0.2683
30351W        W46535  10.307   5.362  13.810 -0.0911  0.1668  0.3833
30352W        W46536   4.804  14.879   0.040 -0.0312 -0.0303 -0.0665
30353W        W46537   7.628   5.802   4.806 -0.0888 -0.0670 -0.0857
30354W        W46538   6.353  15.358   3.776 -0.1153  0.3446  0.1135
30355W        W46539  15.814  10.761   0.159  0.0776  0.0030 -0.1501
30356W        W46540  18.504  14.114   0.047 -0.1006  0.0932 -0.1402
30357W        W46541   0.267   3.153  14.393 -0.3201 -0.3676 -0.0311
30358W        W46542   1.655   2.179  11.469 -0.2511 -0.2835 -0.0294
30359W        W46543  13.201   7.835   4.327 -0.6009 -0.0611  0.1722
30360W        W46544   6.148   8.734   2.270 -0.1805 -0.1408 -0.0031
30361W        W46545   9.289  12.241  12.523 -0.1485  0.1426 -0.2224
30362W        W46546   2.771  17.217   3.657 -0.0666  0.3257 -0.0693
30363W        W46547  11.318  17.593   2.276 -0.1599  0.0674  0.0207
30364W        W46548   5.135  10.439   4.675  0.0846  0.1529  0.2448
30365W        W46549   6.809  12.706   0.339 -0.3302  0.1043  0.0410
30366W        W46550  17.176   4.933  11.641  0.1691  0.0469 -0.1455
30367W        W46551  11.310  10.197  13.543  0.5126  0.0144 -0.2233
30368W        W46552   2.902  17.495  13.684  0.0305  0.2370 -0.2122
30369W        W46553   8.873   0.805  14.036  0.0750  0.0758 -0.1125
30370W        W46554  15.054   1.109  14.113  0.2487  0.0539  0.0153
30371W        W46555   7.586  13.904   1.388 -0.0868  0.0281  0.2111
30372W        W46556   4.631  16.651   4.308 -0.1045  0.1988 -0.2698
30373W        W46557   3.417  13.555  13.133  0.1070  0.7179 -0.0436
30374W        W46558   9.236   3.879   0.018 -0.1737 -0.2903  0.1337
30375W        W46559   2.769  10.062   2.162  0.1992 -0.1493 -0.2462
30376W        W46560  17.534  19.334  13.050 -0.1638 -0.1140  0.1373
30377W        W46561   3.234  14.365   2.859 -0.1449 -0.0405 -0.0996
30378W        W46562  18.547  13.281   3.557 -0.3004  0.1095  0.0316
30379W        W46563  12.016   1.581  13.864  0.2796  0.1190  0.0286
30380W        W46564   7.917  15.387   4.174  0.1790  0.0157 -0.2791
30381W        W46565  17.628  11.960  12.841 -0.2118 -0.0451 -0.3274
30382W        W46566   1.672  15.352   0.130  0.3887 -0.2053  0.1135
30383W        W46567   4.215  13.755  10.839  0.0414  0.0930  0.1850
30384W        W46568   8.157  10.964  14.515 -0.0690 -0.0224  0.1079
30385W        W46569  17.685  18.397   0.090  0.2800 -0.0458  0.0863
30386W        W46570  14.184   0.760   3.845  0.2015 -0.0092  0.0708
30387W        W46571  13.560  14.194   3.509  0.1602  0.3553  0.0449
30388W        W46572   7.052   0.854  13.607 -0.1199  0.0014  0.0382
30389W        W46573   9.734   4.686   0.624  0.2892  0.5314 -0.3483
30390W        W46574  16.420  18.929   0.884  0.1838 -0.3551  0.0852
30391W        W46575  11.896   0.999  10.843  0.0532 -0.0095  0.2268
30392W        W46576  13.415  14.099   0.021  0.2825 -0.2932 -0.3405
30393W        W46577   4.493  17.047   1.981  0.2865 -0.0305  0.0987
30394W        W46578  10.295  19.172   1.982  0.0193 -0.1335 -0.0515
30395W        W46579   6.020  16.664  14.329 -0.1240  0.0044  0.0440
30396W        W46580   8.887   8.619   0.981 -0.1687 -0.0302  0.0728
30397W        W46581   5.189  19.197   1.927  0.1346  0.0172 -0.0895
30398W        W46582   3.636  11.700   5.636  0.1620  0.1383  0.1095
30399W        W46583  17.593  12.573   0.840  0.1495 -0.0858 -0.0383
30400W        W46584   9.760   8.621   3.152 -0.0627  0.0234 -0.2414
30401W        W46585  19.005  10.763   1.506  0.0155 -0.1195 -0.2005
30402W        W46586   8.181   0.061   4.777 -0.1179  0.1541  0.1679
30403W        W46587   9.047   4.849   3.496 -0.0944  0.1885  0.2425
30404W        W46588  16.266   0.654   1.733 -0.0969  0.0090 -0.2344
30405W        W46589   7.526   4.424  13.272 -0.1956  0.0025  0.1433
30406W        W46590  17.932   8.460   0.268 -0.2167  0.0952 -0.1372
30407W        W46591   3.889  13.002  11.396 -0.0270 -0.0547 -0.2982
30408W        W46592   4.179  11.660   5.675  0.2616  0.0247  0.0781
30409W        W46593  19.136   8.636   3.086  0.2392  0.0053  0.1783
30410W        W46594  11.616   0.790   0.551  0.0346 -0.0974 -0.1435
30411W        W46595   9.837  12.747   0.463 -0.1604 -0.0303 -0.0276
30412W        W46596  18.254  13.426   9.900  0.1333 -0.1686 -0.0827
30413W        W46597  18.540   8.352  11.889  0.0289  0.2011 -0.0599
30414W        W46598   8.073   8.951   1.209  0.0896  0.2897 -0.2111
30415W        W46599  11.072  14.787  11.015  0.0801 -0.3087 -0.0809
30416W        W46600  15.292   9.157  12.387  0.0188  0.1837  0.1279
30417W        W46601   9.533   3.334   0.079  0.1130  0.1653 -0.0359
30418W        W46602  18.988   8.208  12.115  0.0693  0.1614  0.1709
30419W        W46603  17.716   9.377  11.578  0.0151 -0.1011 -0.4109
30420W        W46604   0.879   5.583  11.955  0.0115  0.3031  0.0273
30421W        W46605  12.622  16.130   0.497  0.3561  0.3772 -0.0730
30422W        W46606  14.598  19.025   0.999  0.1470  0.0957  0.0702
30423W        W46607   2.357  12.211  10.856 -0.1939 -0.1926 -0.0591
30424W        W46608  13.180  11.800  13.299 -0.0135 -0.2402 -0.3554
30425W        W46609  16.547   1.296   0.783 -0.0810  0.0131  0.1664
30426W        W46610   6.919   5.110  13.561  0.1079 -0.1643 -0.2650
30427W        W46611   9.677  18.554  12.308  0.1061  0.1221 -0.0534
30428W        W46612  13.629   5.874  10.884  0.0381 -0.1182 -0.2086
30429W        W46613  15.516   5.599   1.753  0.0843  0.2155  0.1260
30430W        W46614   5.862  17.517   1.427 -0.0794  0.3001  0.2686
30431W        W46615   8.773  16.379   5.028  0.0194  0.3534  0.0912
30432W        W46616  14.890  10.004  13.544 -0.4884  0.2025 -0.0988
30433W        W46617   1.961  16.341  14.602 -0.0424 -0.4463  0.1458
30434W        W46618   8.904   5.181   4.368  0.3655  0.0989 -0.1284
30435W        W46619  13.134   0.486   0.983  0.3099  0.0595  0.0674
30436W        W46620  13.397  13.686  11.042  0.0063  0.1969  0.3096
30437W        W46621  18.882  15.535   0.744 -0.0457 -0.1097 -0.1632
30438W        W46622   9.844   6.896  13.475 -0.3949 -0.1440  0.2053
30439W        W46623  10.195   1.255   4.076  0.3891  0.2432 -0.3843
30440W        W46624  17.086  14.526   3.075  0.0416  0.0467  0.0667
30441W        W46625   6.762   8.237  11.448  0.1162  0.0024  0.0795
30442W        W46626  17.385   6.125   5.824  0.0121  0.3223 -0.1558
30443W        W46627  12.059   8.327  11.920 -0.1314  0.1789 -0.2571
30444W        W46628  10.498   5.213  10.214 -0.1193  0.0066 -0.0382
30445W        W46629  15.779   7.098   0.698 -0.1795  0.2199  0.0985
30446W        W46630  10.655   6.884  13.218  0.1236  0.1857 -0.0887
30447W        W46631   3.394  13.068   0.593 -0.0154  0.1632  0.4855
30448W        W46632  17.191   5.722  13.229 -0.0150  0.1480  0.3036
30449W        W46633  14.274   6.729  13.441  0.1065 -0.1603 -0.5090
30450W        W46634  10.703   0.366  12.474  0.0566 -0.1038  0.0019
30451W        W46635  14.733  18.414  11.879 -0.0032 -0.2556  0.0200
30452W        W46636   5.408  13.082   2.556 -0.0233 -0.2013  0.2594
30453W        W46637  17.040  16.675  12.049  0.2419 -0.0981 -0.1072
30454W        W46638  11.375   2.824  11.988 -0.2009 -0.0110  0.1604
30455W        W46639   0.186  13.955   2.105 -0.0979  0.1801 -0.0554
30456W        W46640  11.554  10.518   0.788 -0.4389  0.2332 -0.1412
30457W        W46641  18.988  14.879  10.116  0.2656 -0.2313 -0.0329
30458W        W46642   0.364  12.774  12.763 -0.0841  0.2420 -0.1514
30459W        W46643   3.060   2.983   3.936  0.0302  0.1834  0.0175
30460W        W46644  19.221   6.671   1.926  0.3413  0.0939  0.0698
30461W        W46645   9.973  13.434  11.068  0.0703  0.1186 -0.1763
30462W        W46646   9.201   1.528  11.424 -0.1532 -0.1181  0.0048
30463W        W46647   5.026   7.454  11.896  0.0216  0.4007  0.0701
30464W        W46648   0.085   2.972  13.881 -0.2363 -0.2358  0.0951
30465W        W46649   7.900  16.266   1.626  0.0152  0.1174  0.0368
30466W        W46650  16.760   7.397  11.433  0.0547  0.0832  0.3367
30467W        W46651  17.408   9.484  14.655 -0.0905 -0.0177 -0.1169
30468W        W46652  17.063  14.553  14.488 -0.0507 -0.3448 -0.3182
30469W        W46653   4.835  17.730  10.584 -0.0346 -0.0908  0.1144
30470W        W46654   4.462  14.098  13.131  0.3379  0.1412 -0.1571
30471W        W46655   2.521  17.533   1.368 -0.1698 -0.0127 -0.1988
30472W        W46656  15.356  10.295  11.296 -0.0006  0.0764  0.1242
30473W        W46657  14.870   9.570   2.060 -0.3752 -0.0286  0.3847
30474W        W46658   9.328   1.936  10.614  0.1807  0.4888  0.2039
30475W        W46659  17.448   3.435   1.179  0.1368 -0.1547  0.0937
30476W        W46660  11.923  12.301  14.278  0.0164  0.2628 -0.0606
30477W        W46661   0.703   5.142  10.891  0.2631 -0.1462  0.0636
30478W        W46662  11.455   3.478   4.319  0.0763  0.1395 -0.1425
30479W        W46663  12.585   2.247   2.240 -0.0632  0.0320 -0.1708
30480W        W46664   8.456   7.711  13.410 -0.2228 -0.0110 -0.0305
30481W        W46665   5.453   2.191  12.988 -0.0374 -0.1620 -0.2729
30482W        W46666  14.150  17.277  10.708 -0.0360 -0.0392 -0.0815
30483W        W46667   2.671   4.241   0.394 -0.3870  0.1049 -0.0724
30484W        W46668  15.277  17.968  10.989 -0.1688  0.1957 -0.0886
30485W        W46669   3.057   6.938   2.920  0.1694 -0.0762 -0.3179
30486W        W46670  14.608   8.918   9.469  0.2895  0.0331  0.0845
30487W        W46671   6.510  14.488   0.711 -0.1028  0.2021  0.0415
30488W        W46672  15.374   6.628   1.913 -0.1624 -0.0725  0.1782
30489W        W46673   4.676   4.807   1.436 -0.0672  0.2630  0.1227
30490W        W46674   0.618   2.908   2.263  0.0010  0.0467  0.0091
30491W        W46675  17.728  19.193   4.154  0.0904 -0.3716  0.0989
30492W        W46676   7.542  16.203   0.164 -0.0229  0.2423  0.3545
30493W        W46677   4.277   6.521  14.087  0.4302  0.2107 -0.0040
30494W        W46678  14.905   7.245  13.327 -0.5316  0.0197  0.2670
30495W        W46679  10.962  12.241  14.589 -0.0336  0.0400 -0.0230
30496W        W46680   4.186   1.828  12.701  0.0202  0.0886 -0.2347
30497W        W46681   9.813   1.709  10.460  0.0585 -0.2866 -0.3337
30498W        W46682   3.964   5.027   0.951 -0.3504  0.2037  0.0865
30499W        W46683  10.665   5.909  14.010 -0.1871 -0.0168  0.1414
30500W        W46684  18.904  18.569  12.678  0.0918 -0.3103 -0.1689
30501W        W46685  14.746  10.501  13.573  0.0624  0.1579 -0.2048
30502W        W46686  14.079   9.009   0.529  0.0445  0.0400 -0.3015
30503W        W46687  11.782  12.207  13.747  0.1636 -0.0756 -0.0409
30504W        W46688  16.343  13.193  14.870  0.1201 -0.3165 -0.2642
30505W        W46689  10.048  14.349  14.472 -0.0971 -0.1910  0.3179
30506W        W46690  15.580  12.943  10.651 -0.0693  0.1032 -0.2052
30507W        W46691   0.459  15.315  12.896 -0.2151  0.2181 -0.3033
30508W        W46692   7.593   6.776   3.682 -0.1801  0.5937 -0.1152
30509W        W46693   6.619   4.842   0.846 -0.0392  0.0779 -0.1071
30510W        W46694  11.309  19.188   4.790 -0.0229 -0.0651  0.1667
30511W        W46695   0.135   0.040  14.684 -0.1657 -0.2136 -0.0155
30512W        W46696   9.631   4.030   2.271  0.1411  0.0279  0.4441
30513W        W46697   8.096   8.317   0.430  0.0183  0.3453  0.2902
30514W        W46698   4.969  16.507  12.817  0.1506  0.5118 -0.3022
30515W        W46699  15.847  18.200  14.252  0.2328  0.0474 -0.2646
30516W        W46700  14.468  16.312  10.896 -0.1308  0.0885 -0.3014
30517W        W46701  11.641   2.874  13.870  0.0690 -0.4595  0.1424
30518W        W46702   2.982   6.493  14.628 -0.1829  0.2826  0.2483
30519W        W46703  17.653  10.436   0.164 -0.1789  0.0669 -0.3376
30520W        W46704   5.091  19.167   1.390  0.2037 -0.0479 -0.0942
30521W        W46705  11.240   0.968  13.707 -0.1850  0.1884  0.0843
30522W        W46706  14.875   1.117   2.202 -0.0433 -0.1399  0.0492
30523W        W46707  17.834   8.602   2.368  0.0820 -0.0444  0.2952
30524W        W46708  18.844  15.366  11.113  0.2665 -0.0510 -0.1925
30525W        W46709  17.624   1.794  10.516 -0.1829  0.0386  0.0556
30526W        W46710  14.059   6.694   4.995  0.0030  0.0701 -0.0908
30527W        W46711   3.857   0.951   4.589 -0.2700 -0.0514  0.0670
30528W        W46712  19.021   3.392   4.477 -0.1407  0.0420 -0.1422
30529W        W46713   7.497  10.852  10.455 -0.2297  0.0450 -0.2119
30530W        W46714   2.371  14.199  10.954  0.0927  0.3265  0.1993
30531W        W46715   1.008   7.486  13.776 -0.0584 -0.0100 -0.4035
30532W        W46716  19.329   1.150   1.616 -0.0501  0.0112  0.0558
30533W        W46717   6.198  15.635  12.657  0.0892 -0.0508  0.0413
30534W        W46718   8.233   1.934  10.482  0.1235  0.0324 -0.1828
30535W        W46719   6.797   3.181  12.987 -0.0661 -0.2202  0.0084
30536W        W46720   4.480   0.195   2.466  0.0602  0.0756  0.2013
30537W        W46721  13.159   5.194   3.816 -0.1629 -0.0806  0.0811
30538W        W46722  13.447   4.869   3.343 -0.1557 -0.2597 -0.3494
30539W        W46723   7.621   0.411   2.920  0.2210 -0.1869 -0.0066
30540W        W46724   1.680  18.039   0.151  0.3084 -0.2848  0.0599
30541W        W46725  12.542   0.796  13.852 -0.0643 -0.1960  0.2160
30542W        W46726   5.223  19.103  13.621 -0.1084  0.0779  0.0574
30543W        W46727   5.274  13.443   3.529  0.1930  0.0108  0.2729
30544W        W46728   0.453   8.898   1.871  0.1027  0.0422  0.1968
30545W        W46729  12.659   0.103   4.372  0.0358  0.2718 -0.2935
30546W        W46730   3.580  11.909  14.660 -0.1460 -0.0514 -0.1806
30547W        W46731  17.027   4.590  13.313  0.1600 -0.2318  0.0924
30548W        W46732   5.337  11.774   0.207  0.1117 -0.1762  0.0182
30549W        W46733  11.167  10.634  12.182 -0.0670  0.0392  0.0910
30550W        W46734  15.252   0.251   1.387  0.0281  0.5510  0.1188
30551W        W46735  16.194   9.493   1.693  0.0322 -0.2136  0.1300
30552W        W46736   3.864  16.365  13.690 -0.2682  0.0225 -0.0051
30553W        W46737  17.937   9.286   1.091 -0.0802 -0.4283 -0.1106
30554W        W46738   3.759   9.627   2.455 -0.1529  0.0129 -0.0413
30555W        W46739   2.951  10.629   4.951 -0.3473 -0.0867  0.0954
30556W        W46740   8.218  12.117  11.549 -0.0350 -0.1432  0.4069
30557W        W46741   1.654   2.602  10.583 -0.3959 -0.1494 -0.0194
30558W        W46742   2.387   0.118   1.853 -0.1905 -0.3365 -0.1139
30559W        W46743   1.329  18.448  10.495 -0.1981 -0.3219 -0.1417
30560W        W46744   9.824   2.437   2.891 -0.0444  0.0351 -0.0470
30561W        W46745   8.817   3.530   1.099 -0.0255 -0.1148 -0.1110
30562W        W46746  16.761   1.995  10.881 -0.1313  0.1902 -0.2355
30563W        W46747   6.391  14.006   0.633 -0.2305  0.2105 -0.0453
30564W        W46748  12.639  14.132   3.243  0.4509  0.0582 -0.0395
30565W        W46749   5.354  15.443   1.542  0.3497  0.0709  0.0187
30566W        W46750  16.403  14.649   4.936 -0.1718  0.0004  0.2703
30567W        W46751   5.710  15.175  11.930  0.2470 -0.1584  0.2970
30568W        W46752   6.347  12.756   0.619 -0.0148 -0.3120 -0.1735
30569W        W46753   5.061  17.634  12.920  0.5153 -0.0296 -0.4195
30570W        W46754  19.190  18.414  10.718  0.1040 -0.2425 -0.3457
30571W        W46755  12.517   0.203   2.159  0.1645  0.1640 -0.0320
30572W        W46756  16.818  15.983  14.094  0.1057  0.2748 -0.4775
30573W        W46757   9.536   4.554   4.831  0.0395 -0.2738  0.0188
30574W        W46758   7.351   0.351   0.018  0.0457  0.3680  0.2421
30575W        W46759  14.743   6.410  13.774 -0.0608  0.1080  0.4039
30576W        W46760  15.090   6.214  11.459 -0.3768  0.1062 -0.0614
30577W        W46761  16.205   9.875  11.105  0.0818 -0.1954 -0.0626
30578W        W46762  13.531   8.992   2.439  0.1957  0.2598  0.2683
30579W        W46763  17.630  13.953   1.060 -0.0309  0.3417 -0.2157
30580W        W46764  16.293  15.130  14.302 -0.0315  0.0472  0.2186
30581W        W46765  12.442   8.899   3.314 -0.0590 -0.0937  0.0982
30582W        W46766   1.244   7.293  14.125 -0.0512  0.1313  0.0357
30583W        W46767  13.140   0.987  13.246 -0.1684 -0.0520  0.2030
30584W        W46768  18.276   3.156   1.229 -0.4086 -0.2189  0.2373
30585W        W46769  14.579  11.416  14.566  0.1987 -0.3712  0.0168
30586W        W46770   5.251   6.423   1.362 -0.1086 -0.0829  0.1166
30587W        W46771  11.508  16.182   9.896  0.0202  0.4403  0.1786
30588W        W46772   3.024   6.359  12.533  0.1587  0.0713 -0.3808
30589W        W46773  15.165   3.780  10.151  0.0777  0.2176 -0.1147
30590W        W46774  12.952  19.279  13.110 -0.0844  0.0551  0.1761
30591W        W46775   9.046   5.381  11.186  0.0166  0.1005  0.3043
30592W        W46776  14.327   3.123  12.917 -0.0264  0.2742 -0.4693
30593W        W46777  12.699  10.324  11.819  0.1150  0.1456 -0.1488
30594W        W46778   2.642  14.154   3.541  0.0404 -0.3422  0.1958
30595W        W46779  13.364   7.594   0.609 -0.0881  0.0350  0.4319
30596W        W46780   7.210  13.250   3.397 -0.2731  0.1697  0.0816
30597W        W46781   6.172  16.683   2.527  0.0285  0.1521 -0.2724
30598W        W46782  16.002   8.104   2.406  0.1082  0.0657  0.2667
30599W        W46783  13.025  10.607  12.155  0.0274  0.0882  0.2849
30600W        W46784   2.300   7.004   0.651 -0.2612  0.1147  0.1606
30601W        W46785   4.700   5.475  12.272 -0.0589  0.1371 -0.2058
30602W        W46786  15.073   4.417   3.177  0.0641 -0.0013 -0.2613
30603W        W46787   4.470   9.851   4.360 -0.0341 -0.2686  0.1742
30604W        W46788   1.496   6.956  12.195  0.2024 -0.2447 -0.0812
30605W        W46789  11.216   6.632   2.735 -0.1624  0.0054  0.0176
30606W        W46790  13.972  18.282   3.988  0.0463 -0.4589 -0.2510
30607W        W46791   0.617   7.242   4.841  0.1266  0.0951  0.1499
30608W        W46792   6.522  10.462  13.674  0.0712  0.1700  0.0931
30609W        W46793   4.080   5.865  11.573  0.1566  0.4229 -0.4472
30610W        W46794   7.012   4.554  10.669  0.2113  0.1177 -0.1423
30611W        W46795  15.312  19.026  11.277  0.1979 -0.0409 -0.0400
30612W        W46796  16.815   3.207   4.905 -0.4559  0.1241  0.0263
30613W        W46797   4.445  11.170   4.910 -0.3850 -0.0230 -0.3669
30614W        W46798  13.564   8.445  13.809  0.0255 -0.1471 -0.1069
30615W        W46799  15.252  11.190  12.243  0.0436 -0.1786  0.1238
30616W        W46800   6.707   2.581  14.694  0.4061 -0.2185 -0.1398
30617W        W46801  12.761   3.354  12.508 -0.5055 -0.2680 -0.3455
30618W        W46802   7.675   1.389  10.709 -0.2282  0.0615  0.3409
30619W        W46803  13.914  10.384   1.576  0.0658  0.2604  0.1045
30620W        W46804  11.292  16.009   2.023 -0.1559 -0.0884 -0.2357
30621W        W46805  16.825  13.364  14.868 -0.3754 -0.1160 -0.0237
30622W        W46806   9.539   3.338  13.337  0.2836 -0.0886  0.0733
30623W        W46807  17.446   4.899   3.195 -0.1076  0.4037 -0.0935
30624W        W46808   8.234  10.549   5.222  0.0303  0.0006  0.0204
30625W        W46809  17.576   0.317   0.219 -0.2953  0.0124  0.1745
30626W        W46810   9.420  12.714  11.006 -0.2218 -0.0504 -0.1764
30627W        W46811   4.578   1.033   4.409 -0.0294 -0.2632 -0.1168
30628W        W46812   5.030  17.786   4.229 -0.1291  0.1313  0.0868
30629W        W46813  10.465  15.715  14.773 -0.3327 -0.2190  0.0361
30630W        W46814   4.031   5.976   1.139 -0.2812 -0.2089  0.0956
30631W        W46815   1.273   8.228   3.084 -0.1211  0.1810  0.2495
30632W        W46816   7.249  14.306  11.417  0.0581  0.1077 -0.1599
30633W        W46817   7.438   2.531  11.993 -0.1489  0.3226  0.1372
30634W        W46818   2.427   1.601  12.682 -0.1258  0.2991  0.0289
30635W        W46819   6.521  13.741  14.283  0.2318 -0.1130 -0.2760
30636W        W46820  14.808  12.557   1.087 -0.0920 -0.0492  0.1723
30637W        W46821  13.422  14.004  13.247  0.1446 -0.3216 -0.0833
30638W        W46822  14.666  15.426  14.136 -0.0787 -0.1884  0.0800
30639W        W46823   6.424   2.553   2.260  0.2829  0.0498  0.1024
30640W        W46824   6.858   1.627   3.578  0.0096  0.0481  0.2489
30641W        W46825  15.609  15.204   1.864 -0.3645 -0.1430  0.1642
30642W        W46826   5.877   5.320  11.405  0.1263 -0.0172 -0.3258
30643W        W46827   4.411   2.564   1.911 -0.0704 -0.0573  0.0243
30644W        W46828  15.777   0.753   2.008  0.2816  0.2374 -0.0494
30645W        W46829  14.546   3.978   2.718 -0.2104 -0.4121  0.0981
30646W        W46830  14.975   0.655   4.423  0.2569  0.0887 -0.0363
30647W        W46831  18.566  17.773  14.678  0.4283  0.0770  0.2996
30648W        W46832   6.815   9.162   4.322  0.1411 -0.0782 -0.0865
30649W        W46833   9.147  16.168  12.013  0.0390 -0.4313 -0.0220
30650W        W46834  12.241   9.846   3.507 -0.0042  0.3980 -0.1650
30651W        W46835  11.322  18.347  10.423 -0.2321  0.1149  0.2224
30652W        W46836   1.254   1.736   2.746  0.0439  0.0199 -0.0519
30653W        W46837  14.327  14.797   0.484 -0.1057 -0.0894  0.2312
30654W        W46838   5.947  19.191   1.557  0.1566  0.0318 -0.1891
30655W        W46839  12.672  18.752  11.511 -0.1615 -0.0463  0.2858
30656W        W46840  11.364  16.378  14.627 -0.1630  0.3624 -0.1987
30657W        W46841   3.113   3.414  14.341 -0.0645 -0.2114  0.2390
30658W        W46842  12.902   7.894   2.902  0.4866  0.0436  0.4626
30659W        W46843  15.764  11.641  14.822 -0.2886 -0.0534 -0.3262
30660W        W46844  12.948   3.079   0.385 -0.1029 -0.1348  0.1028
30661W        W46845   0.652  15.991  11.171  0.2481 -0.3950 -0.1638
30662W        W46846  16.547   6.424  12.878  0.2301 -0.2098  0.2084
30663W        W46847   6.992  18.456  12.070  0.0517 -0.2662 -0.1499
30664W        W46848  13.673  13.476   2.820 -0.1618  0.0056 -0.0823
30665W        W46849  15.208   0.031  14.813 -0.2142  0.0368 -0.1816
30666W        W46850   1.834  11.421   2.675  0.1021  0.3755  0.1929
30667W        W46851   8.918  13.315   1.976 -0.0274 -0.2902  0.1250
30668W        W46852   7.245   8.320  12.939 -0.0917 -0.0401  0.0288
30669W        W46853   8.047   6.646  13.563 -0.1064  0.1231  0.2390
30670W        W46854   7.875  17.387   0.742  0.0426  0.0669  0.3393
30671W        W46855  15.194  12.708   3.156 -0.3044 -0.3051 -0.1132
30672W        W46856  14.055  13.924   3.558 -0.1159  0.1895  0.1524
30673W        W46857  16.355   8.598   0.459 -0.1820 -0.4997 -0.0176
30674W        W46858   3.272  18.306   2.774  0.1871  0.0125  0.2886
30675W        W46859  11.647   1.883   1.272 -0.1594 -0.0350  0.0779
30676W        W46860  12.170   6.215   2.496  0.0940 -0.2751 -0.0986
30677W        W46861  16.745  14.104  13.792  0.0975 -0.2020  0.2255
30678W        W46862   0.745  15.149  12.008 -0.1226  0.1307 -0.0419
30679W        W46863  17.553   9.050  13.415 -0.0579 -0.0627 -0.0871
30680W        W46864  17.228   8.192  12.962  0.3495  0.3824 -0.1600
30681W        W46865  15.960   1.152   0.061  0.0696 -0.0543  0.0105
30682W        W46866   7.890  16.122  11.156 -0.1604 -0.0374 -0.4207
30683W        W46867  13.775  13.145  13.130 -0.5567  0.3154  0.0775
30684W        W46868  11.026   9.392   0.764  0.2608 -0.0443  0.0378
30685W        W46869  11.984   7.268  10.508 -0.4340  0.0194 -0.3162
30686W        W46870  18.761  19.245   4.799  0.0389 -0.0233 -0.0009
30687W        W46871   0.018  16.726   3.494 -0.3207  0.2874  0.2449
30688W        W46872   2.452   0.530  11.523 -0.0691  0.0878  0.1743
30689W        W46873   5.422   0.790   1.794 -0.0026 -0.3180 -0.0145
30690W        W46874   4.954  12.371  10.438  0.4433 -0.2043  0.1355
30691W        W46875  16.786  11.574   2.761  0.1326  0.0489 -0.1828
30692W        W46876   3.002  16.759  14.815  0.0806  0.1137 -0.1720
30693W        W46877  13.553   7.143   2.833  0.1120  0.5491 -0.0016
30694W        W46878   4.861  18.555  13.908  0.3063 -0.2107 -0.0104
30695W        W46879   2.305   1.830   0.152  0.1188  0.2430 -0.0597
30696W        W46880   6.693  18.387  13.927  0.0305  0.1020 -0.1704
30697W        W46881   2.712  15.572   3.910 -0.0692  0.1909 -0.1125
30698W        W46882   3.562   8.850   3.714  0.0524  0.0194  0.1557
30699W        W46883  14.435   5.672   2.946  0.1492  0.0342  0.0534
30700W        W46884   3.940  12.429  11.267  0.1570  0.1348  0.0717
30701W        W46885   9.129  11.623   1.738  0.0773 -0.0563  0.0508
30702W        W46886  10.054   9.927  12.392  0.0614  0.0024 -0.2402
30703W        W46887   5.388  15.638  13.103 -0.1400  0.0642  0.2121
30704W        W46888   3.318  18.272  13.438  0.0725  0.0434 -0.1427
30705W        W46889   2.539   0.280   1.020  0.0155 -0.0669 -0.1293
30706W        W46890   2.502   4.809   2.647  0.0765  0.3063  0.1880
30707W        W46891  16.221  17.024  10.176  0.1719  0.2485  0.0615
30708W        W46892   5.028  14.394   5.309  0.1259 -0.1376 -0.1158
30709W        W46893   5.321  16.983   2.101 -0.2051  0.1803 -0.0744
30710W        W46894  10.437   4.294  11.951  0.4346 -0.0150  0.1845
30711W        W46895  10.531  10.782  11.402 -0.0610 -0.0537 -0.1765
30712W        W46896  18.452   0.891   9.327  0.1051 -0.0364  0.1290
30713W        W46897   5.630  19.213   2.846 -0.1326  0.3456 -0.1280
30714W        W46898   3.345  12.417   3.145  0.0625  0.0353 -0.1201
30715W        W46899  18.582   8.028  14.334 -0.0716  0.0726  0.0323
30716W        W46900  17.139  17.239  13.814 -0.0109 -0.0585  0.0959
30717W        W46901   7.277  11.084   4.425 -0.1468  0.0281  0.1636
30718W        W46902  18.020  11.551  14.878  0.2464  0.2017  0.0195
30719W        W46903  17.514   8.008  10.971 -0.2183 -0.2030  0.1763
30720W        W46904  10.556  13.253   2.040 -0.2169 -0.3923  0.0463
30721W        W46905  16.847  17.588  12.353  0.2458  0.4224  0.1544
30722W        W46906   4.205  12.129  12.305  0.1534  0.2599 -0.2487
30723W        W46907  10.037  10.130   2.784 -0.0804  0.1204  0.1139
30724W        W46908   9.681   9.097  13.291 -0.4838 -0.1576  0.3004
30725W        W46909  15.691  16.057  13.233 -0.3654 -0.0794  0.3554
30726W        W46910  15.493   8.707  11.997 -0.0075  0.1244  0.2218
30727W        W46911  16.921   5.626   9.534  0.1143  0.4017  0.1510
30728W        W46912   1.725   4.366   1.701  0.3521 -0.0483  0.1221
30729W        W46913  15.134  11.413   4.603  0.0389  0.1672  0.1149
30730W        W46914   6.640   7.482   1.743 -0.2491  0.0971  0.2571
30731W        W46915  17.924   6.568   2.120  0.0248  0.3885 -0.1768
30732W        W46916  18.824  13.188   9.587  0.2373  0.0718 -0.4712
30733W        W46917  16.716   6.616  10.772  0.0552  0.1095 -0.1250
30734W        W46918   1.201  17.391   1.892 -0.0719 -0.0486 -0.0381
30735W        W46919  16.550   4.825   2.597 -0.3102 -0.2380  0.1347
30736W        W46920   4.577   2.813  14.471 -0.1965  0.0345  0.3917
30737W        W46921  14.299  17.092   1.622 -0.1673  0.2904  0.2617
30738W        W46922  15.875  15.261  13.395 -0.0120 -0.3089  0.0527
30739W        W46923   0.690   4.929  12.121  0.4321 -0.0196 -0.1172
30740W        W46924   6.342   4.774   2.240 -0.1918 -0.2449  0.0716
30741W        W46925   9.635   0.263  12.735  0.0189  0.0251  0.2798
30742W        W46926   7.218  13.823   3.678 -0.0068 -0.1681  0.0632
30743W        W46927   0.868   8.999   2.588 -0.2301 -0.1956 -0.1277
30744W        W46928   2.987  15.197   4.401 -0.0032  0.4703 -0.1048
30745W        W46929  18.986  17.788   0.861  0.0860  0.3745 -0.1864
30746W        W46930   2.212  10.325   0.741 -0.2154  0.1829 -0.0487
30747W        W46931  16.799  13.478   4.603  0.0447  0.0003 -0.1104
30748W        W46932   3.382   4.752   3.927  0.1623  0.1060  0.2268
30749W        W46933  10.200   9.281   4.912 -0.0536  0.1642  0.0543
30750W        W46934   3.722  16.208   4.242  0.0577 -0.1924 -0.0668
30751W        W46935  12.930  15.283  11.648 -0.1396 -0.1863 -0.1021
30752W        W46936   7.140   0.395  11.753 -0.0231  0.3182  0.2781
30753W        W46937   1.072  17.360  12.704  0.1891 -0.3415  0.2313
30754W        W46938   5.254  12.761  13.757 -0.3307 -0.0238  0.1665
30755W        W46939   8.624  13.508  10.259  0.3084  0.1980  0.2840
30756W        W46940   4.649  17.544  11.372 -0.0938 -0.0970  0.0537
30757W        W46941  11.868  17.968   1.471  0.0042 -0.0486  0.4369
30758W        W46942  16.787  14.983  14.765 -0.0666  0.1889  0.1684
30759W        W46943   5.722   0.410   0.810  0.3248 -0.1302  0.1442
30760W        W46944   3.278  15.686   4.329  0.1196  0.0274  0.1806
30761W        W46945  18.690   3.448  13.468  0.0921 -0.2268 -0.1899
30762W        W46946  14.989  14.061  12.733 -0.2803  0.2291  0.2308
30763W        W46947   1.194   1.099  14.915 -0.1485  0.3222  0.0161
30764W        W46948   9.977  12.903   3.421 -0.0824 -0.2366  0.1345
30765W        W46949  19.116  16.799  10.046 -0.1678 -0.0779 -0.2164
30766W        W46950  12.642   3.594  12.921  0.1779  0.2106 -0.4344
30767W        W46951  13.854  17.589   0.464 -0.3328 -0.0215  0.0569
30768W        W46952  13.424  12.684   1.583 -0.1827  0.0948  0.0534
30769W        W46953  19.385   5.109   4.717 -0.0233  0.1043 -0.1526
30770W        W46954  13.571   1.536  13.218 -0.0245  0.2507  0.0257
30771W        W46955   7.603   4.985   2.814  0.1588 -0.0151  0.1655
30772W        W46956   0.451  11.983  13.631  0.1832 -0.0381 -0.0965
30773W        W46957   3.261   7.896   2.693 -0.3436  0.4066  0.1084
30774W        W46958  16.586   8.019   2.085 -0.1560 -0.1164  0.1721
30775W        W46959   3.575   8.732  12.455  0.0553 -0.0504 -0.0108
30776W        W46960   3.217  15.185  13.094  0.0520  0.0063  0.2569
30777W        W46961  14.653   7.988  11.782 -0.1279  0.0324  0.0371
30778W        W46962  12.421   3.219   1.766  0.2142 -0.0446 -0.0213
30779W        W46963  13.438  17.481   1.847  0.3728 -0.1071  0.3242
30780W        W46964  14.701   2.121  12.984 -0.0540  0.1395 -0.0145
30781W        W46965   2.931  14.930   1.521  0.3328 -0.1994 -0.1895
30782W        W46966  18.274   5.601  11.414 -0.1719 -0.0544  0.2725
30783W        W46967   1.008  18.478  13.906 -0.3277  0.0119  0.2297
30784W        W46968  17.819   6.873  13.186  0.1636 -0.0618 -0.1377
30785W        W46969  14.615   9.957  12.427 -0.0232 -0.1247 -0.0938
30786W        W46970   3.213   0.459  14.381 -0.0742  0.1722 -0.1756
30787W        W46971  19.252   4.857   5.125 -0.1186  0.1654 -0.1346
30788W        W46972   4.318   8.877   1.292 -0.2099 -0.1076  0.2708
30789W        W46973  11.868  17.844   0.623 -0.0163  0.1174 -0.1570
30790W        W46974   9.067   3.026   1.447  0.0520 -0.1503  0.0814
30791W        W46975   9.324  18.780  13.850 -0.1007  0.0312  0.4279
30792W        W46976  17.873   5.044  12.124 -0.1678 -0.0372  0.0823
30793W        W46977  18.306   1.542   3.637 -0.1500 -0.0938 -0.0827
30794W        W46978  18.730  12.000   5.398  0.0744  0.0201 -0.4879
30795W        W46979   7.152  11.436  14.155  0.1956  0.1584 -0.1481
30796W        W46980   6.604   8.170   0.100 -0.0127  0.3068  0.3046
30797W        W46981   2.050  13.734   2.859  0.2115  0.1135  0.0858
30798W        W46982  11.954  11.150   3.715  0.0511 -0.3317 -0.4837
30799W        W46983  12.650  14.881   4.118 -0.1590 -0.0879  0.0786
30800W        W46984  19.095   3.898   3.941  0.0092 -0.2854  0.2029
30801W        W46985  12.537  18.109   2.587  0.1836 -0.1309 -0.0062
30802W        W46986   8.330   3.323  11.565 -0.1202  0.0796  0.2509
30803W        W46987   2.202  17.337   3.785 -0.0768 -0.1239 -0.1727
30804W        W46988   9.795   5.115   5.198  0.0187  0.0782  0.1156
30805W        W46989  13.895   0.793   3.021 -0.1998 -0.0542 -0.0768
30806W        W46990   4.887  15.347  12.317  0.0942  0.0289 -0.1629
30807W        W46991   5.663   2.630   9.706 -0.1039 -0.2746  0.0269
30808W        W46992   8.591  16.344   0.083 -0.2057 -0.3151 -0.7443
30809W        W46993   6.505   3.544  11.601  0.1798  0.0911  0.0130
30810W        W46994  15.131  16.326  13.356  0.0770  0.0258 -0.2040
30811W        W46995   8.798  13.815   3.898 -0.3707  0.0350  0.3641
30812W        W46996  17.644  10.550  11.165 -0.1798  0.2357  0.1922
30813W        W46997  18.025  11.082  10.717  0.2139 -0.6689  0.0222
30814W        W46998  12.099   2.297  10.374 -0.4463  0.0118 -0.0778
30815W        W46999  18.414   9.288  14.699 -0.2010  0.0166  0.0418
30816W        W47000   5.691   4.662   0.096 -0.0240  0.4702 -0.1156
30817W        W47001  14.178   4.567  11.081  0.1935  0.1861 -0.0927
30818W        W47002   6.565  19.084   4.900  0.2683 -0.1453  0.0606
30819W        W47003   1.478   2.016   4.275  0.0848 -0.4811 -0.2755
30820W        W47004   0.199   3.142   2.463 -0.0535 -0.0961 -0.0814
30821W        W47005   1.196  17.725  13.866 -0.2723 -0.2133 -0.2284
30822W        W47006  18.712  10.460   3.394 -0.1905  0.4242 -0.3393
30823W        W47007   4.327   1.729   0.844  0.2002  0.0343  0.1539
30824W        W47008   1.529   7.480  14.644  0.0836 -0.0775  0.0836
30825W        W47009  18.154   4.346  14.433  0.0686  0.2112  0.0591
30826W        W47010  10.164  11.821   4.438 -0.0379 -0.0096  0.0489
30827W        W47011   8.720  18.153   3.682 -0.0536 -0.2637  0.3097
30828W        W47012   2.519   7.744   0.217  0.0027  0.0608  0.2423
30829W        W47013   2.913   3.961  13.088 -0.1539 -0.0486 -0.0931
30830W        W47014  18.458  11.799   2.791 -0.1345  0.1250  0.0020
30831W        W47015   8.303   2.404  11.161  0.1737  0.0138  0.1496
30832W        W47016   7.328   4.335  10.291 -0.2857 -0.4401 -0.1011
30833W        W47017   1.171   6.755  14.348 -0.0766 -0.0637  0.0975
30834W        W47018   5.708   5.734   4.545 -0.2741 -0.1023 -0.1248
30835W        W47019   8.681  14.946   0.753 -0.0005 -0.1596  0.1082
30836W        W47020  11.635  18.948  14.686  0.1356 -0.0685  0.5204
30837W        W47021  12.694  12.912  13.803 -0.1799  0.0861 -0.1693
30838W        W47022   0.710  13.770  14.602 -0.1275 -0.0024 -0.3231
30839W        W47023   1.176   2.006   2.267 -0.0027 -0.0366  0.2631
30840W        W47024  15.795   6.897  14.886 -0.0389  0.0367 -0.2641
30841W        W47025  11.816  10.292   4.070  0.1429 -0.0866 -0.0529
30842W        W47026   2.443   0.929  14.626 -0.4659 -0.0206  0.2453
30843W        W47027   6.039  14.324   4.883  0.1695 -0.2211 -0.0262
30844W        W47028  18.051   6.905   1.183  0.1613 -0.0139 -0.0357
30845W        W47029  16.773   0.150  10.242 -0.0149 -0.4307  0.0818
30846W        W47030  16.752  12.097  11.385  0.1393 -0.0688  0.3247
30847W        W47031  10.609   9.874  10.382  0.0149  0.1291  0.0318
30848W        W47032  10.960  11.757  13.185 -0.1429  0.1051 -0.1653
30849W        W47033  12.514   7.301   4.364  0.0612 -0.1243  0.4118
30850W        W47034   5.998   1.388   3.391 -0.1259  0.3177 -0.0321
30851W        W47035  14.118  16.708   2.901  0.0751 -0.3035 -0.1518
30852W        W47036   2.563   2.024  14.352  0.2885 -0.2551 -0.1009
30853W        W47037   0.027  13.270  10.642 -0.2211  0.2121 -0.0330
30854W        W47038   8.117   7.976   1.876  0.2754  0.1259 -0.0704
30855W        W47039  11.647   8.676   0.119  0.2833  0.1842 -0.2504
30856W        W47040  19.027   6.495  13.696  0.4440 -0.3084 -0.0695
30857W        W47041   3.987   1.816   6.095 -0.1570  0.2436  0.6819
30858W        W47042   4.870  18.115  14.465  0.0079  0.0282  0.1492
30859W        W47043   7.855   0.080   2.588 -0.1061 -0.0747  0.1930
30860W        W47044  11.979   4.957   0.644  0.3996  0.0764  0.1307
30861W        W47045  15.827   7.657  14.782  0.0441  0.0368 -0.1254
30862W        W47046  16.080   2.573   3.621 -0.0791  0.4147  0.0426
30863W        W47047   0.933  11.975   2.763  0.1163 -0.1277 -0.0107
30864W        W47048  13.536  11.710  13.950  0.0257  0.1310 -0.2271
30865W        W47049   1.057  15.847   3.099  0.1567  0.3441 -0.2132
30866W        W47050   6.572   9.919  11.636  0.2803 -0.0367 -0.1542
30867W        W47051  19.095  12.263   4.318  0.1115  0.1427  0.0992
30868W        W47052  12.038   8.116   1.109  0.1200  0.1949 -0.1121
30869W        W47053   8.988   4.313   0.040  0.0403 -0.2839  0.2876
30870W        W47054   4.843  17.798   2.280  0.3051 -0.4017  0.1809
30871W        W47055  11.938   7.183   5.065  0.1984  0.3176 -0.0070
30872W        W47056   2.313  19.228   1.021  0.1103 -0.0417 -0.1497
30873W        W47057   6.902   6.404   2.962 -0.2336 -0.0279 -0.1513
30874W        W47058  13.102   6.654  10.201  0.0275 -0.1302  0.0562
30875W        W47059   1.267  14.921   3.466  0.2502 -0.3547 -0.1621
30876W        W47060   2.350  14.328   1.296  0.1679 -0.0799 -0.0688
30877W        W47061  16.912   1.243   2.151 -0.2579  0.0811 -0.0853
30878W        W47062  11.714  17.955   2.475 -0.0128 -0.0687 -0.2369
30879W        W47063  13.174  17.926   0.858  0.0606  0.0277 -0.0334
30880W        W47064   2.851   9.291  13.942  0.1136 -0.2258  0.0524
30881W        W47065  17.829   5.882   2.892  0.1224  0.0387 -0.0729
30882W        W47066   1.610  10.419  13.387  0.1541 -0.5446  0.1072
30883W        W47067   8.278   9.388   1.314  0.0127 -0.1052  0.1120
30884W        W47068   5.764   1.895  14.016  0.0024 -0.0331  0.0488
30885W        W47069  15.089  14.315  11.880  0.3126  0.0033  0.1606
30886W        W47070   0.334   9.136  13.770 -0.1801  0.0198  0.0028
30887W        W47071   2.273   6.503  10.628  0.1010 -0.0690  0.0081
30888W        W47072  12.612   6.263  12.622  0.1963  0.4325 -0.0935
30889W        W47073  12.308   9.621  11.156 -0.0665 -0.0690  0.1881
30890W        W47074   3.338   2.669   5.939 -0.4396 -0.1464 -0.2956
30891W        W47075  11.676  16.206  12.090  0.1401 -0.3386  0.0008
30892W        W47076   1.756  17.110   1.186 -0.0954  0.0825  0.0598
30893W        W47077  11.049  11.019  11.858 -0.2549 -0.2998 -0.3349
30894W        W47078  15.327   8.886   3.569 -0.1323  0.1040 -0.1798
30895W        W47079   5.568   1.862   4.872 -0.0022  0.3136  0.0132
30896W        W47080   2.552   1.111  13.656  0.1295 -0.1439  0.0962
30897W        W47081  10.676   6.780  12.664  0.0403 -0.1042  0.0978
30898W        W47082   9.838  14.072  14.052 -0.1963  0.3753 -0.0995
30899W        W47083   1.838  12.930   1.182  0.1487 -0.1310  0.2991
30900W        W47084   4.366   5.782   0.803  0.0462 -0.2695 -0.3939
30901W        W47085   2.679   6.561   2.623 -0.0734  0.1856  0.0671
30902W        W47086   4.391  16.755  11.153  0.3029 -0.1430  0.0841
30903W        W47087  12.930   4.126   4.072  0.0906  0.2622 -0.0708
30904W        W47088   2.052   3.390   3.737  0.0624  0.2232 -0.0994
30905W        W47089   7.148   8.367  13.927  0.0761 -0.0407  0.2424
30906W        W47090   0.528  11.249   1.541  0.1349 -0.2253 -0.1023
30907W        W47091  19.160  12.060   1.209 -0.0778  0.1862 -0.1255
30908W        W47092   6.018  14.577  12.631  0.2248 -0.2339 -0.1593
30909W        W47093   3.353  11.739   0.909 -0.1314 -0.2358  0.1807
30910W        W47094  10.626   6.161   5.089 -0.2014 -0.0864 -0.3730
30911W        W47095   4.137   0.325  10.887  0.2850  0.0357 -0.2460
30912W        W47096   2.325   5.595   2.632 -0.1742  0.1870 -0.0314
30913W        W47097   1.035   7.072   0.612  0.1152  0.2134 -0.4942
30914W        W47098  18.734   6.133   1.759  0.2474 -0.1100  0.1641
30915W        W47099   1.443  10.380  12.790  0.0968 -0.1984 -0.0244
30916W        W47100  14.388  10.209   1.750  0.1163 -0.3083 -0.0632
30917W        W47101   8.460   8.240   4.771  0.0689 -0.0296 -0.2478
30918W        W47102   2.127   3.823   1.043  0.0950 -0.0462  0.2093
30919W        W47103   3.294   9.667  14.860  0.1627  0.2634  0.0039
30920W        W47104   5.010  19.139  13.104 -0.3091  0.0594  0.1406
30921W        W47105   4.213  12.287  14.674 -0.0489  0.0190  0.0472
30922W        W47106  14.095   4.611   2.046  0.0634  0.1127  0.2213
30923W        W47107   1.598  11.487   1.812  0.1007 -0.0659 -0.0971
30924W        W47108   7.000   8.228  12.003 -0.1051  0.0114  0.0762
30925W        W47109  12.044  16.469  12.233  0.0283 -0.0288  0.1991
30926W        W47110   8.739   1.159   3.681  0.1722  0.0665  0.2442
30927W        W47111   7.821  15.022  10.722 -0.1917  0.0326  0.2683
30928W        W47112   7.004  14.317  12.807  0.4044  0.3276  0.0662
30929W        W47113   0.836  12.052   0.786  0.0412  0.3420  0.3143
30930W        W47114  11.670  13.790   2.366 -0.0364 -0.0806 -0.0553
30931W        W47115   2.053  16.579   2.325  0.1964  0.1434  0.0200
30932W        W47116   4.996   8.498   4.931 -0.2324 -0.2044  0.1067
30933W        W47117   9.884   4.919   3.451 -0.2392 -0.0801 -0.0872
30934W        W47118   4.000  15.342  12.386 -0.1689 -0.2352 -0.0077
30935W        W47119  17.190   4.430  10.960  0.2635 -0.0891  0.3139
30936W        W47120   0.359  18.570  10.877  0.1772 -0.1032 -0.0020
30937W        W47121  12.444  18.449   1.244  0.2044 -0.2724  0.1396
30938W        W47122  12.702  14.826  13.359 -0.1988 -0.3131  0.0271
30939W        W47123   7.437   9.709   1.128 -0.1792 -0.4064 -0.0570
30940W        W47124  15.902   6.046  10.579  0.1020  0.3164  0.2429
30941W        W47125   0.872  17.361  13.123  0.0828  0.3035 -0.0833
30942W        W47126  17.509  15.531   4.064  0.2910  0.1057 -0.0064
30943W        W47127  14.323   6.290  13.055 -0.1233  0.0121  0.1800
30944W        W47128   8.957  17.300   0.447 -0.2195 -0.1188 -0.3540
30945W        W47129  17.539  12.814  13.529  0.2137 -0.1586 -0.2127
30946W        W47130   8.033   4.043  14.623 -0.1677 -0.2248 -0.1613
30947W        W47131   9.609  17.714   3.896 -0.1630  0.2419  0.1517
30948W        W47132   5.605   3.808   2.370 -0.2371 -0.1554  0.1862
30949W        W47133   6.553   8.451  11.845 -0.0686  0.1694 -0.2124
30950W        W47134  11.778  10.688   5.102 -0.0835 -0.1080  0.0308
30951W        W47135  11.362   4.407   0.056  0.1079 -0.3502 -0.0131
30952W        W47136   0.435  15.044  10.760 -0.0106 -0.0712 -0.0330
30953W        W47137   8.083   4.030  13.336  0.4460  0.0549 -0.0730
30954W        W47138  10.930  14.264  14.315 -0.2149 -0.0781  0.3763
30955W        W47139   0.837  10.295   0.017  0.0689 -0.1233 -0.3426
30956W        W47140   4.805   3.231   4.658 -0.1601  0.0290  0.2270
30957W        W47141  15.809   2.787   9.507 -0.1959 -0.1088  0.0300
30958W        W47142  10.316  18.530  13.233  0.2214 -0.0610  0.1785
30959W        W47143   0.169  15.416   0.718  0.1120  0.0944 -0.1189
30960W        W47144   3.746   6.651  13.384  0.0526  0.1622  0.1942
30961W        W47145  17.184   5.216   2.583  0.0826 -0.2725  0.1494
30962W        W47146  10.798   4.010  14.849  0.1113 -0.1833 -0.0149
30963W        W47147   6.924   6.308  14.375  0.2964  0.0065 -0.1789
30964W        W47148   3.147   7.079   6.114  0.1436  0.1193 -0.2171
30965W        W47149   9.365   3.091  10.729 -0.0217  0.2337  0.0835
30966W        W47150  11.130  14.857  12.555  0.0485  0.0232  0.1636
30967W        W47151   1.796   5.143   1.901 -0.0855 -0.1823  0.2475
30968W        W47152   8.080  10.821   2.788  0.0335 -0.3366 -0.0085
30969W        W47153   0.534  11.337   5.030 -0.2446 -0.2585 -0.1185
30970W        W47154  15.634   9.022  14.422  0.3153 -0.0661  0.2753
30971W        W47155  17.113   8.035   2.009  0.1068  0.1948  0.0527
30972W        W47156  13.148   4.938  12.628 -0.2279  0.2854 -0.1855
30973W        W47157   6.531   1.548  13.848 -0.3342  0.0939  0.1952
30974W        W47158   7.621  16.176   2.895  0.1379 -0.2207 -0.0099
30975W        W47159   5.371  17.378  10.701  0.0765  0.0916 -0.0355
30976W        W47160   6.763   6.983   4.124 -0.0311 -0.4207 -0.0030
30977W        W47161   2.265  14.782  10.955  0.0955  0.0092 -0.0456
30978W        W47162   9.440  14.721   1.796 -0.0095  0.0954  0.3590
30979W        W47163   6.443   6.014   1.496 -0.1279 -0.2131  0.0999
30980W        W47164   0.115  12.337   3.775 -0.1667 -0.0430  0.1682
30981W        W47165   1.874  19.009  10.834  0.0441 -0.0442 -0.1542
30982W        W47166  10.013   8.830  12.539 -0.1022  0.0110  0.1030
30983W        W47167   7.355   5.472   1.601 -0.1765 -0.1844  0.0569
30984W        W47168  17.958  18.999  10.957 -0.4222  0.0446  0.3922
30985W        W47169   8.323   1.025   1.621  0.0385 -0.0385  0.2624
30986W        W47170   8.754   7.004   0.567 -0.2421 -0.2379 -0.0960
30987W        W47171   2.079   7.817   4.653  0.0064  0.2289 -0.1247
30988W        W47172   6.612  18.528  14.797 -0.3437 -0.1980 -0.1103
30989W        W47173   4.135   7.096  13.482 -0.0340  0.2216 -0.0296
30990W        W47174   9.807   7.236   0.008 -0.1377  0.0592  0.2108
30991W        W47175  10.954  19.093  12.033 -0.0985 -0.1903  0.0302
30992W        W47176  15.828  11.342  11.214 -0.0848 -0.1134  0.1315
30993W        W47177  13.983   0.271   1.685 -0.4039  0.0572  0.2744
30994W        W47178   0.439  12.167  10.548  0.0571  0.2672  0.1545
30995W        W47179  19.060   3.453  11.828  0.0652 -0.1026 -0.0799
30996W        W47180   2.679   8.355  12.277  0.0855 -0.1448  0.2175
30997W        W47181   9.039   6.311   4.535  0.0911 -0.2104  0.0740
30998W        W47182  11.040  12.372  11.267  0.0533  0.4571 -0.0585
30999W        W47183   8.077   7.428  10.573  0.0036  0.2387 -0.1898
31000W        W47184   4.736   2.318   2.468 -0.0838 -0.0057  0.2660
31001W        W47185  16.367   8.615   1.013 -0.2585 -0.3409  0.0778
31002W        W47186  16.588  18.658   5.195  0.1598 -0.0769  0.0129
31003W        W47187  18.838   7.731   4.805  0.2608  0.1255  0.0316
31004W        W47188  16.714   8.343  14.209 -0.0676  0.3135 -0.1277
31005W        W47189  16.129   2.832  14.767  0.1600 -0.1974 -0.2281
31006W        W47190  10.535   9.575  11.021 -0.0351  0.2161  0.0577
31007W        W47191   4.021  13.405  12.217  0.1117  0.0257  0.0477
31008W        W47192   7.984   6.950  14.019 -0.2910 -0.1465  0.1020
31009W        W47193   0.939  12.370  11.988 -0.0449 -0.1435 -0.1715
31010W        W47194   9.408  16.630   0.079 -0.1964  0.2919 -0.3213
31011W        W47195  13.805   5.256   4.202  0.0970  0.0684 -0.1640
31012W        W47196  10.678  15.720   3.256 -0.1902  0.3065 -0.1095
31013W        W47197  16.956  10.319   3.750 -0.1334  0.0735  0.2337
31014W        W47198  13.077  16.108  14.168  0.2106  0.0626  0.0434
31015W        W47199  12.189   9.365   4.736  0.0349 -0.2078 -0.4576
31016W        W47200  11.788  12.012   0.873 -0.0270  0.0365 -0.1389
31017W        W47201  19.331   3.492  14.165  0.2390  0.0154 -0.0300
31018W        W47202   4.436  17.567   1.959 -0.1889  0.2654 -0.0336
31019W        W47203   7.697   4.723   3.589 -0.0871 -0.1767 -0.0803
31020W        W47204   0.025   5.566   0.861  0.2682  0.2300  0.0888
31021W        W47205   4.337   7.426   5.667  0.3368 -0.3363 -0.2377
31022W        W47206   2.960   2.071   4.795  0.0683 -0.0800  0.1322
31023W        W47207   7.775  18.782   3.452 -0.0780 -0.0202  0.1518
31024W        W47208  18.898  16.582  14.321 -0.0862  0.0002  0.3416
31025W        W47209  18.822   2.826   0.243  0.0868  0.0643 -0.2843
31026W        W47210   4.308   3.884  11.482  0.3862  0.0799 -0.0613
31027W        W47211  11.443  14.691   4.579  0.3306  0.2739 -0.1991
31028W        W47212   3.774  15.702  12.618 -0.1689  0.0193  0.0478
31029W        W47213   9.977   1.439  14.571 -0.1785 -0.0287  0.0042
31030W        W47214   2.582   4.252  12.866 -0.1303 -0.0553  0.1439
31031W        W47215   4.467   9.161  11.517  0.1282  0.0532 -0.1361
31032W        W47216  14.126  10.714   4.079 -0.0133 -0.2781 -0.0018
31033W        W47217   5.063  18.199  10.537  0.1598  0.0705  0.3149
31034W        W47218   5.838  10.571   1.694  0.0255  0.1851  0.0492
31035W        W47219  14.694   8.264   3.659 -0.0169 -0.0226 -0.3622
31036W        W47220   1.051  16.566   3.682 -0.0122 -0.1377 -0.0456
31037W        W47221  14.176   7.177   1.328  0.0473 -0.2683 -0.2395
31038W        W47222  15.330   5.250  13.303  0.0780  0.2597  0.0986
31039W        W47223   6.582  12.643   2.482 -0.3393 -0.2181  0.2790
31040W        W47224   5.318   4.389   6.264 -0.0730 -0.0448  0.2141
31041W        W47225   9.871  16.512  13.068 -0.1169 -0.1874  0.1626
31042W        W47226  14.860   1.449  10.786 -0.0298  0.2395 -0.0249
31043W        W47227  12.463   2.906  10.990  0.1858 -0.1786  0.0042
31044W        W47228   9.207  17.847  10.508 -0.1126  0.0775  0.4648
31045W        W47229  11.252  12.333   3.449  0.3055 -0.0130  0.3853
31046W        W47230  15.310  17.526   1.037  0.1536 -0.2061 -0.3088
31047W        W47231  16.489  10.500  12.612 -0.0992  0.1619  0.5411
31048W        W47232  12.825   3.585   0.504 -0.1005  0.0928 -0.1622
31049W        W47233   5.635  16.120  10.431  0.1552  0.3259  0.2306
31050W        W47234   2.382  12.484   4.019  0.0651  0.1641 -0.1225
31051W        W47235  15.755  14.866  10.329 -0.1044 -0.0348  0.5295
31052W        W47236   8.989  18.313  11.622 -0.4452 -0.1319  0.1384
31053W        W47237   0.207   4.862   4.260  0.2184  0.2109 -0.1422
31054W        W47238  14.949  17.082  12.217 -0.0321  0.0127  0.2707
31055W        W47239  15.919  14.955   4.257 -0.0436  0.2115  0.0576
31056W        W47240   2.745   4.633   3.599  0.3644 -0.1290  0.0828
31057W        W47241  13.812   8.485  14.841  0.1332  0.2905  0.0661
31058W        W47242   3.702   2.508  13.930 -0.1928  0.0601  0.2891
31059W        W47243  18.008   4.917   0.934  0.1255 -0.0553 -0.2075
31060W        W47244  10.213  15.611  12.952 -0.1527 -0.0239  0.0373
31061W        W47245   4.583   7.810   5.535 -0.0753  0.1154 -0.1290
31062W        W47246  13.037   2.495   2.351 -0.0561 -0.0907  0.2186
31063W        W47247   2.369  18.630   4.030  0.1513  0.0711 -0.1739
31064W        W47248  12.348  16.833   0.546  0.2604  0.1391 -0.0470
31065W        W47249   8.196   6.357  14.083 -0.5391 -0.1166 -0.0810
31066W        W47250  17.813  18.111   5.703  0.0149  0.1531 -0.0642
31067W        W47251   2.814  17.855  11.801  0.0396 -0.0830  0.0622
31068W        W47252   8.907   1.753   2.475 -0.0612  0.1592 -0.3467
31069W        W47253   1.916   5.002  14.345  0.0356  0.0242 -0.1150
31070W        W47254  16.840  10.999  11.383 -0.3532 -0.0554  0.0370
31071W        W47255   2.470   7.225  12.686 -0.3097  0.4798  0.0115
31072W        W47256  16.892  18.479  10.881  0.1047 -0.2566 -0.4621
31073W        W47257   5.165  15.431  10.823  0.2554  0.0010  0.0179
31074W        W47258  13.776   6.557  10.023  0.1368  0.3933 -0.0420
31075W        W47259   5.924   0.658   0.466 -0.2073  0.1910 -0.2178
31076W        W47260   7.708  17.293  10.470 -0.2370  0.1899  0.0806
31077W        W47261  16.526   9.889   9.499 -0.1024  0.0606 -0.0666
31078W        W47262   9.886  16.817   1.106 -0.2011  0.0139  0.0796
31079W        W47263   2.161  11.728  14.162 -0.2753  0.2637  0.1680
31080W        W47264  13.959  15.785   2.261  0.3351 -0.3790 -0.1919
31081W        W47265  11.292   1.989  14.338  0.3079  0.1173 -0.0852
31082W        W47266  11.296  11.944   1.660  0.0892  0.0704 -0.1247
31083W        W47267   1.107  18.895   4.599  0.0255  0.0828 -0.2299
31084W        W47268   9.734   1.021  14.364 -0.4441 -0.2058  0.1633
31085W        W47269  19.092  17.379  14.407  0.0413 -0.2152  0.0945
31086W        W47270  17.169  13.701   4.197 -0.3276 -0.1877 -0.1897
31087W        W47271   4.311   4.438   0.293  0.1364 -0.1486  0.1165
31088W        W47272   4.002  16.505  10.335  0.0487 -0.4210 -0.2720
31089W        W47273  16.393   4.676   1.097 -0.1135 -0.2847  0.2417
31090W        W47274  18.703  10.726  13.614  0.1962 -0.3543  0.1259
31091W        W47275   2.799   9.392   5.934  0.3955  0.2320 -0.1222
31092W        W47276   6.456   4.523   0.499 -0.1511 -0.1087 -0.2773
31093W        W47277  19.246  13.220   1.768 -0.2877  0.2599  0.1363
31094W        W47278  12.738  10.460   2.497  0.1044  0.2546  0.0383
31095W        W47279  12.052   1.994   3.863  0.2628 -0.1190 -0.0933
31096W        W47280   4.289  13.519  12.773  0.0882 -0.0118 -0.1886
31097W        W47281   3.910   4.518  14.923  0.0465  0.1454 -0.2664
31098W        W47282   0.159  13.880   4.888  0.1270  0.0078  0.1689
31099W        W47283  10.649  16.485  10.197  0.1302 -0.3969  0.3913
31100W        W47284   3.158   9.114   4.542 -0.1298  0.2830  0.2012
31101W        W47285   8.958   8.568   4.011  0.2186  0.2333 -0.0642
31102W        W47286   2.481  12.843  12.245  0.2777 -0.1134  0.1122
31103W        W47287  15.638  15.631  10.974  0.0838  0.0105 -0.0499
31104W        W47288  12.851  19.283  10.287 -0.0711  0.3182 -0.3782
31105W        W47289  10.595   7.807   4.306  0.3070 -0.2957 -0.0656
31106W        W47290   9.617   5.481  12.685 -0.1782 -0.1019  0.1018
31107W        W47291  18.868  12.440   1.420 -0.0211  0.0315 -0.0382
31108W        W47292  10.241  17.172   0.857  0.0137 -0.0615  0.0712
31109W        W47293   1.611   4.710  11.769  0.0156 -0.0567 -0.2125
31110W        W47294   9.396  17.426   3.506 -0.0282 -0.0750 -0.1315
31111W        W47295  16.046  12.462   1.316 -0.0914 -0.0287 -0.4044
31112W        W47296   9.427  13.684   0.459 -0.2872  0.1174  0.3096
31113W        W47297   5.559  16.043  11.068 -0.0287 -0.0441  0.1634
31114W        W47298   2.247   9.950   1.385 -0.0896 -0.0637  0.2004
31115W        W47299   5.977  13.348   4.847  0.2087 -0.0209  0.0199
31116W        W47300  13.001  10.904  12.584 -0.0062 -0.0610  0.2465
31117W        W47301  11.797   2.228  13.149  0.3569  0.1276  0.1694
31118W        W47302  13.674  10.297  11.523  0.0602 -0.1109  0.2388
31119W        W47303  11.266  17.959   3.190  0.0258  0.2442 -0.1564
31120W        W47304   3.634   6.696   5.739 -0.3460 -0.0701 -0.2778
31121W        W47305   3.568   3.676   4.990  0.0547 -0.2871  0.0155
31122W        W47306  12.235   2.994  14.534 -0.0280 -0.1464 -0.3274
31123W        W47307   6.455   8.170  13.293  0.1030 -0.0239 -0.2468
31124W        W47308  17.141  16.448  11.142  0.2040  0.1031  0.1025
31125W        W47309   4.146   6.118   4.897 -0.1274  0.2731 -0.2179
31126W        W47310   8.572   4.348   0.419 -0.0018  0.0004  0.3182
31127W        W47311  17.196  13.628  12.273  0.0194 -0.1979 -0.0088
31128W        W47312  17.722  14.915  14.945 -0.0029  0.2677 -0.0937
31129W        W47313  17.036  18.728  14.665  0.1851 -0.0714 -0.3209
31130W        W47314   4.712  13.115  10.966  0.1687 -0.0417  0.0231
31131W        W47315  16.975   1.912  11.410 -0.1108 -0.2267 -0.2334
31132W        W47316   9.251  10.910   4.184  0.1381  0.0131 -0.0287
31133W        W47317  12.101  10.115  11.133  0.0275  0.2049 -0.1817
31134W        W47318  15.524   7.803   3.070  0.0405  0.1829  0.1905
31135W        W47319  18.680  13.261   0.056  0.0993 -0.0819 -0.1616
31136W        W47320  19.311  11.280  12.233  0.0659  0.0939 -0.3090
31137W        W47321  16.281   4.635  11.340  0.0873 -0.0793 -0.1022
31138W        W47322   2.952  12.647   3.943  0.2472 -0.0681 -0.3241
31139W        W47323  18.535  10.002  11.406  0.0644  0.0932  0.2135
31140W        W47324   1.315   6.757   5.516 -0.0721 -0.1831 -0.1309
31141W        W47325  17.153   3.593  10.667  0.0759 -0.0912  0.2674
31142W        W47326  13.746   4.863  12.651  0.1372  0.1698  0.0595
31143W        W47327   9.644  11.878  12.326  0.2808 -0.3919  0.0920
31144W        W47328   9.753   1.755  11.605  0.0301 -0.1050  0.3894
31145W        W47329   3.999  14.582   2.036  0.1475 -0.0935 -0.1626
31146W        W47330  15.970   7.261  13.109  0.0679 -0.1652  0.3186
31147W        W47331   3.668   4.995   6.075  0.2346 -0.5016 -0.2642
31148W        W47332   3.234  19.191   2.369 -0.1719 -0.1021  0.0321
31149W        W47333  16.198  13.109   2.821 -0.3073  0.0328 -0.0492
31150W        W47334   3.955   4.842  12.312  0.0377  0.1443  0.3202
31151W        W47335  12.067   8.031   2.660  0.2424 -0.1604 -0.0968
31152W        W47336   3.627  17.988  14.637  0.0584 -0.1676 -0.1702
31153W        W47337  10.922  17.676  11.307 -0.1879  0.1278 -0.1072
31154W        W47338   9.469   6.018  13.799 -0.1957 -0.2061 -0.2026
31155W        W47339  13.635   0.623   0.442 -0.0095  0.1033  0.0913
31156W        W47340   3.657   9.410   3.796 -0.0386  0.0462 -0.0862
31157W        W47341   3.367  13.004   4.893  0.4958  0.0927  0.2231
31158W        W47342  15.723  11.538  10.538  0.0314  0.2723  0.0887
31159W        W47343  18.391  13.109  12.230  0.1653  0.2021  0.0214
31160W        W47344   4.339   0.305   3.921  0.3573  0.0886 -0.0830
31161W        W47345   2.957  10.154   3.456  0.1891 -0.2064 -0.0941
31162W        W47346  13.157   1.032  14.383  0.1763 -0.1552 -0.1235
31163W        W47347  10.874  17.083  12.927 -0.0347 -0.0644 -0.2761
31164W        W47348   8.522   0.672   0.721  0.1227  0.1028 -0.2515
31165W        W47349  10.455   1.705  14.393  0.1367  0.2732  0.1337
31166W        W47350  18.432  11.324   1.906 -0.3207  0.2881 -0.2358
31167W        W47351  19.163   1.408   3.764  0.3851  0.0261  0.0621
31168W        W47352  17.180   1.195   3.859 -0.2195 -0.0404 -0.3250
31169W        W47353  13.217   7.585  13.694  0.2245 -0.1247  0.1454
31170W        W47354   5.678   3.089   4.141  0.0050  0.2190  0.1437
31171W        W47355  16.356  18.698  10.216 -0.4275 -0.2503  0.1746
31172W        W47356  13.622   5.917   4.486  0.2156 -0.2124  0.1226
31173W        W47357   9.575  17.652   0.480 -0.0896  0.0881  0.0030
31174W        W47358   0.276   8.458  14.259  0.0595  0.0300 -0.3606
31175W        W47359  18.820   3.535   3.045  0.2281  0.1139  0.0455
31176W        W47360   2.812  18.993  11.663 -0.2631  0.0317  0.3948
31177W        W47361  17.496  18.849   8.923  0.2954  0.1317 -0.0267
31178W        W47362  15.599   7.681   3.532  0.2131 -0.3402 -0.0968
31179W        W47363  10.703  18.315  11.530 -0.1045 -0.2548 -0.1635
31180W        W47364  15.551   1.578  12.988  0.2052 -0.0857 -0.3652
31181W        W47365   6.859   8.156   0.889 -0.0043  0.3035  0.0317
31182W        W47366  17.669  15.072  10.809  0.1697 -0.2319 -0.1871
31183W        W47367  10.921  17.414   4.036  0.2523 -0.0105 -0.0410
31184W        W47368   8.986   8.382  13.390 -0.2331  0.0566 -0.0710
31185W        W47369   8.879  11.427  11.583  0.2998  0.0261 -0.1207
31186W        W47370  12.089   4.299   1.971  0.1715  0.1065  0.2710
31187W        W47371   5.242   9.225  11.997 -0.2008  0.0931  0.0186
31188W        W47372  18.476  12.238  14.893  0.1037 -0.1323  0.1407
31189W        W47373   9.512  11.101  11.683  0.0749  0.0141 -0.2531
31190W        W47374  12.218   2.898  13.630 -0.0821  0.1685  0.2365
31191W        W47375   9.215  13.619  13.668  0.2471 -0.0797  0.0126
31192W        W47376   6.547  14.262   4.761 -0.0020 -0.1427  0.3436
31193W        W47377   5.402   3.536   5.089  0.0300 -0.2386  0.1933
31194W        W47378   1.175  16.292   2.988  0.2277  0.2642  0.3862
31195W        W47379   4.260   7.114   5.009 -0.0774  0.0722 -0.0047
31196W        W47380  13.871  14.201   4.025 -0.0750 -0.1152 -0.0875
31197W        W47381  17.449  15.744  10.696 -0.1570 -0.2728  0.0800
31198W        W47382  18.228  14.179   1.936 -0.0270 -0.0988 -0.0309
31199W        W47383   1.440   5.314  11.271 -0.0880  0.2271 -0.1578
31200W        W47384   3.205  14.914   1.040 -0.4062  0.1129 -0.2866
31201W        W47385  16.958  13.400  11.381  0.0044  0.3870 -0.2019
31202W        W47386   8.420   8.991   2.311  0.0251  0.0350  0.1762
31203W        W47387   0.366  13.387  13.098  0.0058 -0.0712  0.3554
31204W        W47388   9.592  18.568   0.282 -0.2480 -0.1184  0.2585
31205W        W47389  16.842  10.741   5.567  0.1940  0.2055  0.2068
31206W        W47390  14.684   0.384  13.191  0.0422  0.0584  0.2052
31207W        W47391  10.011   6.070   3.269  0.3979 -0.2335 -0.2165
31208W        W47392   8.860   0.207   2.286 -0.0559  0.1552  0.0063
31209W        W47393  12.432   3.501  14.913 -0.0693  0.2213  0.1353
31210W        W47394  12.158  13.331   4.989  0.1484 -0.0234 -0.1370
31211W        W47395   1.273  13.011  12.520 -0.1020  0.2248 -0.2138
31212W        W47396  10.184   2.836  12.197 -0.0701 -0.0087  0.1437
31213W        W47397  11.882  13.840  11.303  0.0617  0.0201 -0.0555
31214W        W47398   6.801   8.201   4.234  0.1143  0.1622  0.0417
31215W        W47399   1.189   9.558   4.326 -0.0346  0.1681  0.2155
31216W        W47400   3.495   7.863   3.884  0.0556 -0.0297  0.1486
31217W        W47401   6.527  15.600   4.720 -0.0515 -0.1612 -0.0343
31218W        W47402  18.075   8.401  13.334  0.0364  0.1709  0.3244
31219W        W47403  13.177  12.399   1.944  0.0061 -0.1197 -0.0101
31220W        W47404   7.311  13.256   5.905 -0.2209 -0.2115 -0.0229
31221W        W47405   3.862  16.073   2.416  0.2081  0.0688 -0.1705
31222W        W47406  14.660  16.420  13.898  0.1103 -0.0750  0.0362
31223W        W47407   8.547  19.237  14.388  0.2008 -0.0878 -0.0125
31224W        W47408   4.607  10.839  11.799 -0.5566  0.6034  0.1239
31225W        W47409   9.271   0.317  13.984 -0.3520  0.0904  0.1300
31226W        W47410  14.301   6.541  11.089  0.0877  0.1233 -0.0911
31227W        W47411   9.526  15.893  11.304  0.0521  0.0208 -0.1510
31228W        W47412   1.188  12.823  13.905 -0.1006  0.1837 -0.2550
31229W        W47413  15.423  12.322   0.349  0.1081 -0.1441 -0.0230
31230W        W47414   5.554   7.100  13.885  0.0619  0.0441 -0.0393
31231W        W47415  11.322  11.344   4.448 -0.1034  0.1565 -0.3316
31232W        W47416  12.499   4.566   3.792 -0.1237 -0.1362 -0.0970
31233W        W47417  10.539  13.964   3.004  0.2859 -0.2114  0.1107
31234W        W47418  13.878  11.372  12.143  0.1244  0.0019  0.3035
31235W        W47419   0.266  18.102   4.749  0.2721 -0.0855 -0.1279
31236W        W47420   6.988  16.848  14.655 -0.2951  0.2566  0.0182
31237W        W47421   2.778  11.763   3.599 -0.2836 -0.2642  0.1388
31238W        W47422  10.730  15.128  13.947  0.2479 -0.3871  0.0556
31239W        W47423  14.501  17.815   5.249  0.3342 -0.0065  0.0869
31240W        W47424   9.284  19.278   3.331  0.2272  0.2647 -0.1505
31241W        W47425  17.304  14.532  12.893 -0.0606 -0.0864 -0.0004
31242W        W47426   3.038  13.979   1.846 -0.0895  0.2023 -0.5046
31243W        W47427   9.808   1.377   3.788  0.4717 -0.2727 -0.1478
31244W        W47428   0.646   7.755  13.162 -0.0314  0.0192  0.0571
31245W        W47429   2.916   0.143   3.910 -0.3336 -0.0145 -0.4039
31246W        W47430  12.094   3.639  12.114  0.3528  0.0591  0.5699
31247W        W47431  10.184  13.651   4.320  0.3814  0.0176  0.0206
31248W        W47432   9.396   2.263  13.805  0.0162 -0.2455  0.0072
31249W        W47433  15.910   5.582   0.386 -0.1876  0.1156  0.1798
31250W        W47434  12.769  13.821   1.570 -0.2826 -0.1872 -0.2441
31251W        W47435  18.180  16.870   3.303  0.2694  0.0358  0.2344
31252W        W47436   3.942   6.651   4.116 -0.2024 -0.0741 -0.0001
31253W        W47437  15.894  19.208  14.155 -0.0173  0.0147 -0.1531
31254W        W47438   4.135  17.634  13.144  0.0950  0.1330 -0.3342
31255W        W47439  14.252   4.683   4.290  0.1642  0.2802  0.0706
31256W        W47440   0.497   5.530  12.292  0.1269  0.1354  0.0368
31257W        W47441  11.866  18.767   0.264  0.0645  0.1111 -0.1630
31258W        W47442   9.384   7.993  12.260 -0.1529 -0.1151  0.0927
31259W        W47443   4.860  15.006   1.575 -0.0185  0.0166  0.0579
31260W        W47444  13.220   8.844  10.748  0.0847  0.3914  0.0538
31261W        W47445  15.638   8.094  12.831  0.5098  0.3093 -0.0020
31262W        W47446   1.808   7.458   0.169 -0.0433 -0.0797 -0.0247
31263W        W47447  18.796   3.336   2.514 -0.1387  0.2838  0.1353
31264W        W47448  18.258  18.978   1.471 -0.1079 -0.1635 -0.1275
31265W        W47449   9.851  14.980  12.622  0.2787  0.2532  0.1225
31266W        W47450  18.750  10.293   1.027 -0.3550 -0.1543  0.1314
31267W        W47451   6.652   1.354  14.382 -0.0114 -0.1419  0.1737
31268W        W47452  15.302  16.730   4.957 -0.0434  0.1399 -0.0606
31269W        W47453   1.066  15.685  13.866  0.1238 -0.0304 -0.1877
31270W        W47454  15.603   1.907  13.363  0.0405 -0.0169 -0.2042
31271W        W47455   2.109   9.056  12.644 -0.3660 -0.0844  0.1584
31272W        W47456   7.732  17.590   4.065  0.1020 -0.3298 -0.1291
31273W        W47457  17.621  11.017   2.138  0.0904 -0.2220  0.1996
31274W        W47458   8.193   0.147   1.621  0.3852  0.1921 -0.0624
31275W        W47459  19.097  11.928   3.454 -0.1804  0.0555 -0.0061
31276W        W47460   0.327   3.882   3.091  0.0419 -0.3207 -0.3679
31277W        W47461   6.853  17.123  10.825  0.0721 -0.3727 -0.1863
31278W        W47462  18.253  10.329   2.089 -0.3550 -0.1212  0.0287
31279W        W47463  16.357   1.231  13.520  0.3652 -0.0095  0.0910
31280W        W47464  15.073  10.945   0.584 -0.1240  0.3319 -0.1719
31281W        W47465  10.876   6.265   2.637 -0.2820  0.2943 -0.1255
31282W        W47466   5.457  11.616   5.726 -0.0575 -0.1696 -0.0474
31283W        W47467   7.442   6.852   4.761 -0.2452  0.1248 -0.1609
31284W        W47468   0.836   9.983   5.118  0.3970 -0.4300  0.0314
31285W        W47469  13.571  17.134  10.559  0.1522 -0.1349 -0.0004
31286W        W47470   0.212   1.469  11.705 -0.0952 -0.0349 -0.0737
31287W        W47471  17.534  11.441  11.488 -0.0596 -0.0666  0.3041
31288W        W47472   7.556  11.350   2.054  0.0810  0.1840  0.1546
31289W        W47473  12.006  13.338   2.841 -0.1989  0.0140  0.0846
31290W        W47474  15.468  18.695   2.524  0.0614  0.0333 -0.3139
31291W        W47475  14.794  15.050   3.007  0.2633 -0.0608  0.1322
31292W        W47476   2.749   3.451  13.992 -0.1159  0.0352 -0.3624
31293W        W47477   1.615  15.629   1.361 -0.3310 -0.2292  0.3325
31294W        W47478  10.281  15.545  10.375 -0.1867  0.3449  0.0761
31295W        W47479  19.257  12.380   0.430  0.3482 -0.1508  0.0435
31296W        W47480   6.666   4.783   0.120  0.0260 -0.1189 -0.0891
31297W        W47481   1.461  13.289  11.267 -0.1319  0.1833 -0.2073
31298W        W47482   8.519   4.223  12.485  0.0321  0.1175  0.1455
31299W        W47483  14.286   1.403  13.002 -0.0762 -0.3179 -0.0497
31300W        W47484   0.036  17.512   2.043  0.0697 -0.0658  0.1581
31301W        W47485   0.292  19.009   3.836 -0.2052 -0.0129  0.1134
31302W        W47486  11.968  14.299  14.548  0.3259  0.1017  0.1875
31303W        W47487  10.010   3.576   2.371  0.2041  0.1195  0.0838
31304W        W47488  18.074  17.429  10.908  0.0902 -0.1693  0.2832
31305W        W47489   2.622  12.277   5.123  0.1624 -0.1513 -0.1545
31306W        W47490  17.156   6.431  11.928 -0.2090 -0.0139 -0.3127
31307W        W47491  13.549   5.915   0.264  0.1618 -0.2504 -0.2323
31308W        W47492  10.605  13.911   1.034 -0.0545  0.0858 -0.4381
31309W        W47493   7.528  10.683  11.209 -0.1905  0.0480 -0.3119
31310W        W47494   1.141  12.908   0.315 -0.0893 -0.4356  0.0187
31311W        W47495   2.349  14.043  13.806 -0.1446  0.3753  0.0351
31312W        W47496   8.929  11.487  13.721 -0.0013  0.1368 -0.0456
31313W        W47497   5.969   2.354   3.382 -0.2423  0.2123  0.0169
31314W        W47498   7.748   7.471  12.720  0.1456  0.2348 -0.3264
31315W        W47499   0.763   2.423   3.231 -0.1506  0.3136  0.1514
31316W        W47500  12.814  17.401   4.789  0.2998 -0.0159  0.0574
31317W        W47501  10.244   0.566  14.913  0.0377  0.1726  0.1410
31318W        W47502   0.579  12.034  14.126 -0.0737  0.0362 -0.1223
31319W        W47503  18.000  18.023  11.626  0.0653 -0.1322 -0.1140
31320W        W47504  18.275   4.710  10.799 -0.2803  0.0572 -0.1933
31321W        W47505  18.273   8.591   3.658 -0.0047 -0.0414  0.2345
31322W        W47506  11.507   9.535  14.914  0.1047  0.0210 -0.3369
31323W        W47507  14.632  13.811   0.841  0.1060  0.0609 -0.1131
31324W        W47508   9.428  16.697  13.302  0.2595  0.0424  0.4940
31325W        W47509  10.131   5.159  14.259  0.1020  0.0805 -0.1127
31326W        W47510  15.158  15.388  12.915  0.3648  0.0061 -0.0554
31327W        W47511  10.466   7.148   0.577 -0.4185  0.1225 -0.0132
31328W        W47512  19.090  17.907   4.929  0.1273 -0.1649  0.1258
31329W        W47513   9.796   9.371  13.858 -0.1478  0.0163  0.2104
31330W        W47514   6.571  17.858   2.528  0.0242  0.2694 -0.1478
31331W        W47515  17.063   4.296  14.483 -0.0309 -0.4588 -0.0821
31332W        W47516   9.239   1.585   1.550 -0.2305 -0.1094 -0.2845
31333W        W47517   2.500  10.463   4.695  0.0859 -0.0596  0.2485
31334W        W47518   3.575   4.071   3.499  0.0901  0.2377 -0.4357
31335W        W47519   5.748  11.630   0.007  0.0952 -0.4141 -0.0567
31336W        W47520   9.687   2.262  11.371 -0.2052 -0.0012  0.1186
31337W        W47521   6.439  12.558  12.829  0.1093 -0.3173 -0.2368
31338W        W47522   2.198   2.151   0.671  0.3472 -0.0993 -0.0292
31339W        W47523   0.678  17.758  14.314  0.0551 -0.0757  0.3108
31340W        W47524   2.104  15.054   2.796 -0.0189 -0.2367 -0.3088
31341W        W47525  16.777  10.696   0.236  0.3757 -0.0408  0.0578
31342W        W47526  15.563  17.828  14.522 -0.3692  0.1280 -0.2897
31343W        W47527   2.296  18.305  10.361 -0.1675  0.0885  0.0924
31344W        W47528  16.830   0.062   4.253  0.0658 -0.3334 -0.1946
31345W        W47529   5.255  17.755  13.477  0.2341  0.0147 -0.2348
31346W        W47530  15.525  14.136   3.126  0.0755 -0.0624 -0.4158
31347W        W47531   1.439   9.136   4.294  0.1537 -0.2582  0.1173
31348W        W47532   6.634  18.343   2.345 -0.1941  0.1103 -0.0788
31349W        W47533  16.649  19.217   2.389  0.0752  0.0450  0.3273
31350W        W47534  14.353   2.205   0.012  0.1685 -0.0472 -0.2182
31351W        W47535  11.393  18.623   9.909 -0.0998  0.0360 -0.1390
31352W        W47536   2.569   5.248   2.963 -0.0240 -0.2090  0.2450
31353W        W47537   8.184  16.216   5.090 -0.0639 -0.0578  0.0303
31354W        W47538  10.351  13.919   2.211 -0.0685 -0.0199  0.1854
31355W        W47539  11.832  18.428   2.082  0.1727 -0.1072  0.0451
31356W        W47540   5.952   8.757   1.614 -0.0880  0.0767  0.0689
31357W        W47541   0.629  12.670  10.834 -0.0896  0.0225  0.0808
31358W        W47542   7.407  18.434   3.641 -0.0213 -0.3527  0.0459
31359W        W47543  13.333   4.136   5.111 -0.0387 -0.0017  0.2672
31360W        W47544  10.375   4.195   1.923  0.0463  0.1687 -0.1956
31361W        W47545   2.033   1.967   2.523 -0.1106 -0.2525  0.3361
31362W        W47546  10.414  15.565   1.772  0.0247 -0.0415 -0.0824
31363W        W47547   5.564  13.237  13.625  0.0797 -0.0673  0.4433
31364W        W47548  16.611   2.945  11.100 -0.0550 -0.4363 -0.0904
31365W        W47549   5.555  14.474   1.540  0.0608 -0.0636 -0.0581
31366W        W47550   3.584  12.964  12.127 -0.2850  0.3435  0.3723
31367W        W47551  17.151  18.850  11.281  0.0291  0.0672  0.1192
31368W        W47552  10.621   0.591  14.597  0.3143 -0.0556 -0.0275
31369W        W47553   1.670  18.527  12.439  0.1417  0.2374 -0.2249
31370W        W47554   9.980  15.295   2.217 -0.0180  0.1308 -0.1174
31371W        W47555  13.154  13.505  10.618 -0.1532 -0.2420  0.3256
31372W        W47556  12.886   7.606  11.532  0.0251 -0.1696  0.2490
31373W        W47557   1.054  10.011  12.405 -0.1197 -0.1339  0.1227
31374W        W47558  14.851   6.500   4.758 -0.0274 -0.1091 -0.0074
31375W        W47559   4.272   8.721  11.436 -0.0979 -0.2350  0.0854
31376W        W47560  14.298   6.233  13.654  0.2411  0.0365 -0.2347
31377W        W47561   2.654  10.233   5.503 -0.0383  0.3289  0.1676
31378W        W47562  14.320   5.786   1.082  0.0151 -0.1138  0.0096
31379W        W47563   8.691   0.143  11.134  0.1275  0.1047  0.1230
31380W        W47564   0.831   9.448   1.663 -0.1414 -0.4311  0.0040
31381W        W47565  12.853   9.092  12.883 -0.2121  0.1113 -0.0457
31382W        W47566   0.121   3.851  13.876  0.1076 -0.0317  0.1547
31383W        W47567  10.267   8.962  10.458 -0.0387  0.0703 -0.2061
31384W        W47568   3.228  10.012   0.356  0.1526 -0.2688 -0.0248
31385W        W47569   3.234   5.268  14.292 -0.2497  0.2097  0.1293
31386W        W47570   4.054  13.667   5.348 -0.1432  0.2405  0.1897
31387W        W47571   0.647  11.043   2.022 -0.1820  0.0156  0.0659
31388W        W47572  15.685   7.375  12.201 -0.2809 -0.1235 -0.1523
31389W        W47573  17.194  13.171   3.822 -0.1238  0.0171  0.1340
31390W        W47574   8.364  18.891   4.813 -0.1759 -0.1712  0.0877
31391W        W47575   8.556   6.018   2.759 -0.1334 -0.3893  0.0806
31392W        W47576   4.543   4.010   3.396  0.1945 -0.1280 -0.4031
31393W        W47577  14.238   9.353  12.944  0.2069 -0.0543 -0.1448
31394W        W47578  14.836   0.720  12.520  0.4440 -0.1613  0.2424
31395W        W47579  15.858   9.804   1.161 -0.1808  0.0238  0.5016
31396W        W47580  10.924   1.513  13.653 -0.1133  0.1365  0.1513
31397W        W47581   9.556   0.383   1.599  0.0538  0.1640 -0.1325
31398W        W47582  12.409   8.477   1.253  0.0956 -0.1354 -0.0381
31399W        W47583   0.775   8.595  12.314  0.0096  0.0711 -0.1214
31400W        W47584   5.843  15.749   0.448 -0.0904 -0.5623  0.1627
31401W        W47585  14.949  17.042   0.058  0.0222 -0.2266 -0.0442
31402W        W47586   0.857  14.148  11.683  0.1775 -0.0591 -0.4650
31403W        W47587   3.571   0.362   3.483  0.1533 -0.4610 -0.0101
31404W        W47588   0.176  14.888   2.535  0.0354  0.0347  0.1265
31405W        W47589  10.823  16.703   4.684  0.2000 -0.1245  0.1211
31406W        W47590   9.503   5.350   1.861 -0.0637 -0.1763 -0.1006
31407W        W47591  14.363   2.568   4.787 -0.4272 -0.1553  0.1359
31408W        W47592   9.987   6.537   2.005  0.2742  0.0677  0.1099
31409W        W47593   3.986   1.386   4.297 -0.1205 -0.0627  0.3150
31410W        W47594   0.002  15.092  11.076  0.0851  0.1342 -0.0763
31411W        W47595   7.503  18.527   1.576  0.1926  0.0510 -0.1589
31412W        W47596   2.318   8.531  11.437 -0.1399  0.1295 -0.4088
31413W        W47597  18.610   0.818  13.114  0.0933 -0.0276 -0.0040
31414W        W47598   7.860  19.358  12.658 -0.3239 -0.2046 -0.0840
31415W        W47599  17.890  12.000  14.729 -0.2379 -0.0662 -0.0988
31416W        W47600   4.804  10.275   2.048 -0.2237 -0.1277  0.0065
31417W        W47601   1.913   7.872  13.785 -0.0068  0.5050 -0.4772
31418W        W47602   9.716   6.303  11.529  0.0295  0.2840  0.4598
31419W        W47603   1.886  15.223  10.755  0.0792  0.0841  0.3950
31420W        W47604   1.322   7.314  11.927  0.1788 -0.0700 -0.0200
31421W        W47605  16.866   0.514   0.495 -0.2034  0.1424  0.2327
31422W        W47606  11.457   5.747  14.446 -0.1880  0.1508 -0.2329
31423W        W47607  10.333   5.464   2.600 -0.1736 -0.0020 -0.0327
31424W        W47608  13.360  11.235   9.882 -0.1232  0.2506  0.0097
31425W        W47609  16.373   2.108  12.715 -0.1486  0.0817  0.2523
31426W        W47610   6.627   5.899  12.531 -0.3719  0.1022 -0.2942
31427W        W47611  11.983  16.832   0.187  0.1505  0.1336  0.0254
31428W        W47612  18.759  16.288   2.965  0.0629  0.2988 -0.4640
31429W        W47613   5.120   8.352  13.471 -0.0990 -0.0024  0.2901
31430W        W47614  10.639  12.195  10.855 -0.1595 -0.1445  0.0986
31431W        W47615  19.247  17.071   2.286  0.3148 -0.2284 -0.2406
31432W        W47616  18.533  10.094   1.471  0.2260 -0.1148  0.3013
31433W        W47617   0.303  13.655  10.704  0.0745 -0.2801 -0.1419
31434W        W47618   7.861   4.781   0.558 -0.0806  0.1616  0.3349
31435W        W47619  16.545   6.081   2.759  0.0111  0.0412 -0.1667
31436W        W47620   8.616   7.046  12.736 -0.2307  0.0763 -0.2487
31437W        W47621  15.805   2.223   1.033 -0.2280  0.2406 -0.0591
31438W        W47622  12.811  17.147   2.543  0.0519 -0.0702 -0.1251
31439W        W47623  12.761  15.232   0.819 -0.4091 -0.4718 -0.1104
31440W        W47624   2.199  12.467   3.339 -0.0639  0.2838 -0.0270
31441W        W47625  13.622   4.644   2.485  0.1680 -0.3067 -0.0861
31442W        W47626   9.757   6.163  14.196  0.0808  0.2726  0.0363
31443W        W47627  13.489   2.779  12.305  0.0929  0.0148 -0.0423
31444W        W47628   6.227  16.460   1.997 -0.2307 -0.0412 -0.2795
31445W        W47629  11.013   6.685   1.939 -0.0655 -0.0708 -0.0351
31446W        W47630   7.698   8.554   0.303  0.0310  0.0876  0.0956
31447W        W47631  11.336   9.299   1.212  0.0534 -0.2350  0.2171
31448W        W47632   7.550   5.308   4.521  0.2443 -0.0635 -0.1428
31449W        W47633   3.443  13.903   5.391 -0.0160 -0.0046 -0.1680
31450W        W47634   6.215   8.398  10.119 -0.1751 -0.3624 -0.0686
31451W        W47635   9.892  16.464  10.643  0.3271 -0.3351  0.0157
31452W        W47636  11.756  17.648  14.229  0.0774  0.1225 -0.1391
31453W        W47637  18.058   1.097  13.145  0.1747  0.1383  0.0591
31454W        W47638   2.980   4.978   0.967  0.0363  0.1497 -0.2043
31455W        W47639  10.418   7.535   3.116 -0.4946  0.1655  0.1414
31456W        W47640  16.064   7.638   2.090 -0.1696 -0.1768  0.1108
31457W        W47641  11.488  13.618  12.560 -0.0621 -0.4970  0.3121
31458W        W47642   8.218   3.579   4.866  0.5175  0.2357 -0.1311
31459W        W47643   4.038   5.475   3.230  0.1207 -0.0578 -0.0470
31460W        W47644   4.311   8.488  14.928 -0.1165  0.3146 -0.0031
31461W        W47645   2.316  18.772  11.666  0.0614 -0.2187 -0.2236
31462W        W47646  10.033  10.966  13.153  0.5223 -0.0015 -0.1115
31463W        W47647   5.154  16.382   3.229  0.0471 -0.2440  0.2944
31464W        W47648  13.219   6.633  14.560 -0.0292 -0.1562 -0.0101
31465W        W47649   8.281  12.501   3.348 -0.1374 -0.3446 -0.3130
31466W        W47650   6.240  18.498  13.706 -0.1109 -0.1196 -0.3008
31467W        W47651  15.417   2.028   0.738 -0.0842 -0.0491  0.3058
31468W        W47652   7.384   2.378   3.581 -0.1249  0.1030 -0.2453
31469W        W47653   0.272  14.653  13.419  0.0607 -0.0664  0.2624
31470W        W47654  18.090  19.372  11.898 -0.1673 -0.1283 -0.1732
31471W        W47655  17.852   8.203   2.625 -0.3416 -0.0808  0.2100
31472W        W47656   1.939  15.856  11.392 -0.0936 -0.2402 -0.0622
31473W        W47657   8.930  17.319  13.544 -0.2405 -0.0153 -0.0442
31474W        W47658  16.693   4.847   3.398 -0.1931 -0.1942  0.0200
31475W        W47659  17.039  15.693   1.881  0.1139  0.1159 -0.1474
31476W        W47660   4.455   4.704   1.861 -0.0943 -0.2419  0.2338
31477W        W47661  16.330   8.024   0.205  0.0637 -0.0734  0.0424
31478W        W47662   4.506  10.210  12.692  0.1213  0.3572  0.2517
31479W        W47663  17.702  18.898  14.168  0.3349  0.1101 -0.1722
31480W        W47664   6.591   6.819  11.361 -0.1158  0.1826 -0.2414
31481W        W47665   2.137   7.492  11.749 -0.3891  0.3001 -0.1921
31482W        W47666  12.446  18.408  13.626  0.0658 -0.0635  0.5722
31483W        W47667   2.119   2.157   3.012  0.2592 -0.0014 -0.1353
31484W        W47668   1.293   7.458   0.107 -0.2095 -0.0342 -0.1906
31485W        W47669   8.004  12.970  14.276 -0.0972 -0.1632 -0.4523
31486W        W47670  14.089   4.104  13.858  0.2219  0.0312  0.0787
31487W        W47671   2.024  17.847  13.871 -0.2824  0.2505 -0.2055
31488W        W47672   0.798  15.514   3.976  0.0803 -0.6247 -0.0654
31489W        W47673   4.748  10.825   2.147  0.0068  0.1268  0.0911
31490W        W47674   0.695  19.011  10.868  0.1931 -0.3243  0.1238
31491W        W47675  11.037  13.805  11.346 -0.2661 -0.2022  0.0790
31492W        W47676   7.520  12.648  14.036  0.2186  0.0771  0.2464
31493W        W47677  16.085   2.737  10.967 -0.1683 -0.1943 -0.1867
31494W        W47678   0.746   4.768  12.680 -0.0213 -0.3130  0.1081
31495W        W47679   0.798   9.897   2.969  0.2205 -0.0990  0.1737
31496W        W47680  15.333  13.221   3.909  0.1746 -0.0296 -0.2534
31497W        W47681  12.686   4.495  14.259  0.2371  0.2090  0.1657
31498W        W47682  13.177  11.869  14.306  0.4296  0.0895 -0.1302
31499W        W47683   4.656  16.825   3.307  0.1018 -0.0749 -0.2088
31500W        W47684  17.289  16.874  11.381 -0.3564 -0.1505  0.0457
31501W        W47685  17.721  12.660   4.902 -0.3674  0.0838 -0.1500
31502W        W47686   4.648   8.735  12.286  0.0196 -0.1190  0.0857
31503W        W47687   8.341   3.784  11.345  0.0626 -0.0768 -0.0962
31504W        W47688   0.646   3.798   2.665 -0.1111 -0.0801  0.2428
31505W        W47689  10.292  17.215   3.114 -0.2703 -0.0083 -0.1700
31506W        W47690  13.348   3.055  11.438 -0.1459 -0.2112  0.3247
31507W        W47691  19.375  13.768  13.278 -0.0688  0.0590 -0.3009
31508W        W47692  11.144  18.288  14.768  0.1685  0.3153  0.2478
31509W        W47693  17.384  13.071  11.402  0.3267  0.0762  0.2512
31510W        W47694   0.724  16.566  13.775  0.3028  0.0492  0.1254
31511W        W47695  18.727  19.383  12.586  0.0197 -0.2690  0.1086
31512W        W47696  10.865   5.406   2.618 -0.0290 -0.0318  0.0924
31513W        W47697  14.565   6.243   3.616  0.2487  0.1654  0.1338
31514W        W47698  12.018   7.118  14.935  0.0520 -0.3709 -0.0894
31515W        W47699   2.429  10.570   5.181 -0.1743 -0.1566 -0.0828
31516W        W47700   5.099  17.812   3.075  0.0400 -0.3167 -0.0556
31517W        W47701  11.242   7.328  12.289 -0.1197 -0.2488  0.1536
31518W        W47702  17.878   4.703  12.946  0.4757  0.2794  0.0368
31519W        W47703   9.588   9.049  12.755  0.0349 -0.0790 -0.2519
31520W        W47704   6.615  17.628   0.833  0.0319  0.1390  0.0559
31521W        W47705   9.790  16.575   2.458  0.0384 -0.1339  0.1131
31522W        W47706   7.783   5.701   1.271 -0.0541 -0.3569  0.0598
31523W        W47707  14.660  13.154  12.208 -0.0658  0.0172  0.4251
31524W        W47708  18.105   2.834   0.838 -0.1542 -0.0939 -0.0411
31525W        W47709   7.501   2.614   4.308 -0.1775 -0.0982 -0.1559
31526W        W47710   1.537  13.755  12.862  0.0204 -0.0508 -0.0259
31527W        W47711   7.115  18.215  14.205  0.0414 -0.2958  0.0215
31528W        W47712   5.054  17.019  10.477 -0.1152 -0.0303  0.1493
31529W        W47713   1.318   3.599   0.914 -0.2845 -0.0145 -0.1869
31530W        W47714   8.214   9.047  12.096  0.0534  0.1965  0.0593
31531W        W47715   6.459   4.690   2.989  0.0911  0.1320  0.0775
31532W        W47716   8.080  19.237   9.364 -0.2054 -0.0882 -0.0737
31533W        W47717   7.967  18.037   4.155 -0.0665  0.1494  0.1917
31534W        W47718  16.944  15.921  13.579 -0.0627  0.0970 -0.0293
31535W        W47719   6.514   5.823   0.181 -0.0284  0.3725 -0.0759
31536W        W47720  16.030   4.581  13.415 -0.3394 -0.1463  0.0940
31537W        W47721  15.483  16.088   0.414 -0.2746 -0.2477 -0.1040
31538W        W47722   8.688  11.919   4.637 -0.2874 -0.5759 -0.1486
31539W        W47723   3.447   0.589   4.709 -0.3429 -0.1985 -0.1112
31540W        W47724   1.436   7.066   0.313 -0.1702 -0.0416 -0.1839
31541W        W47725  10.434  17.556   1.180  0.1514  0.4264 -0.0183
31542W        W47726   4.915   6.016  10.480  0.3924  0.1384 -0.2235
31543W        W47727   3.984  18.473   0.223  0.1466 -0.1456 -0.0616
31544W        W47728   3.781   4.402  12.614  0.2067  0.2762 -0.0158
31545W        W47729  16.833  16.194   2.037 -0.3476 -0.2070  0.0837
31546W        W47730   6.540   8.862   0.696  0.1353 -0.2310 -0.3182
31547W        W47731  16.304  15.889   2.387  0.3522 -0.1300  0.2851
31548W        W47732   6.432   9.178  13.251  0.2116  0.2445  0.2876
31549W        W47733  13.983   9.555   0.726  0.2162 -0.1442  0.0580
31550W        W47734   7.729   4.274   2.278 -0.2245  0.0563  0.4014
31551W        W47735   6.691   4.432  12.925 -0.0449  0.1092 -0.3708
31552W        W47736   8.158   5.813   2.891 -0.2684 -0.0836  0.4126
31553W        W47737   2.230  13.589  13.440  0.0389 -0.0576 -0.0461
31554W        W47738   9.248   0.215  14.720  0.0441 -0.1657  0.0244
31555W        W47739   0.119   5.873   4.293 -0.1219  0.0514 -0.1321
31556W        W47740  13.818   0.484  13.571 -0.0172  0.0652  0.0366
31557W        W47741  18.275   2.984  13.932 -0.3189  0.2032 -0.0693
31558W        W47742   6.311   0.041   3.395  0.0737  0.3383  0.3586
31559W        W47743   3.703  16.444  11.472  0.0957  0.1762  0.3334
31560W        W47744  17.136  12.803  11.813  0.0330 -0.1770  0.1551
31561W        W47745   0.892   6.839   5.285 -0.2856  0.3279 -0.2015
31562W        W47746  17.503   8.245   1.223 -0.1033  0.1186  0.1386
31563W        W47747  15.704  12.372   0.918  0.2049 -0.1785  0.1013
31564W        W47748  17.817  10.626  12.888 -0.2131 -0.4889  0.1570
31565W        W47749  17.927   4.952   0.006 -0.2654 -0.1271 -0.2354
31566W        W47750  12.487   2.018   3.201  0.1948 -0.0216  0.1328
31567W        W47751   0.905  15.488   1.355 -0.1496 -0.0691  0.0018
31568W        W47752   6.883   0.058   1.680 -0.2442 -0.1093  0.2027
31569W        W47753   3.160   5.912  13.456  0.0317  0.0384 -0.0451
31570W        W47754  14.059   9.740  11.188  0.0117  0.0523 -0.1205
31571W        W47755  11.900  14.568  13.895 -0.3851 -0.2028 -0.0154
31572W        W47756  12.211  13.124  14.560  0.0220  0.0730  0.3587
31573W        W47757  18.952  11.799  14.678  0.0174 -0.0571 -0.0370
31574W        W47758  15.403   4.821  10.234 -0.0299 -0.1009  0.2314
31575W        W47759  15.332   7.987   5.094 -0.5703 -0.0119  0.2053
31576W        W47760   8.212  17.466   1.933 -0.0105  0.1163 -0.1339
31577W        W47761  14.556   6.056   9.134 -0.0614 -0.0436  0.2896
31578W        W47762   6.317  11.820   5.657  0.0887 -0.2536  0.0939
31579W        W47763   1.639   2.150   3.305 -0.0203 -0.1820 -0.0589
31580W        W47764   2.546   0.835   0.508 -0.4016 -0.0264 -0.1221
31581W        W47765   9.319  10.347  10.114 -0.1842  0.0352  0.4713
31582W        W47766   3.203   1.183  11.322 -0.0945  0.1607 -0.3420
31583W        W47767  11.658   9.986  13.111  0.0495  0.0445  0.0036
31584W        W47768   8.754  10.489  14.066  0.0116  0.2780 -0.0778
31585W        W47769  13.905   4.969  11.247  0.4757 -0.1584  0.1995
31586W        W47770  12.956   0.290  11.292 -0.3559  0.2281 -0.2394
31587W        W47771   3.374  17.592   2.997  0.0533  0.0270 -0.1162
31588W        W47772   7.860   9.644   2.020 -0.3243 -0.1208 -0.1137
31589W        W47773  11.276   4.402   2.108 -0.1062  0.2274 -0.0079
31590W        W47774   9.211   3.575  10.786 -0.2288 -0.1892  0.1403
31591W        W47775  18.017   8.231   1.447  0.0788  0.0525 -0.1980
31592W        W47776   4.459   9.721  11.633 -0.0747  0.0357 -0.1052
31593W        W47777  17.867  12.757  11.195 -0.1255 -0.3237  0.3420
31594W        W47778  14.999   0.822   2.587 -0.0587 -0.1315 -0.0687
31595W        W47779   1.667   0.394   0.678 -0.3460  0.2077 -0.0631
31596W        W47780   9.027  18.800   3.131  0.0637  0.1966 -0.1736
31597W        W47781   4.016   8.559  13.550  0.1731 -0.2852 -0.3550
31598W        W47782  10.833  17.701  13.435  0.3900 -0.0166  0.0341
31599W        W47783   1.551   6.265   0.905 -0.2935 -0.0145  0.3346
31600W        W47784   0.578  17.833  13.022 -0.0511  0.1316 -0.0229
31601W        W47785  11.933  16.586   2.061  0.1742 -0.0246  0.1438
31602W        W47786   3.709  10.044   1.254  0.2687  0.0709  0.1676
31603W        W47787  18.339   5.693  10.937 -0.2751  0.1007  0.0271
31604W        W47788   2.137   8.440   4.119  0.3909 -0.2247  0.3818
31605W        W47789  19.056   8.923   4.577 -0.2081  0.1189  0.1548
31606W        W47790  11.819   1.219   0.740  0.0668  0.0810  0.0946
31607W        W47791   5.846  14.660  11.561 -0.0261  0.1547  0.1858
31608W        W47792   4.174  11.532   3.811 -0.4152  0.1714  0.0727
31609W        W47793   9.082  15.406  14.882  0.1084  0.0302  0.4233
31610W        W47794  14.249  14.384  10.638  0.1670 -0.0024 -0.0399
31611W        W47795   6.690  10.209   3.044  0.0805  0.0588  0.1615
31612W        W47796  10.681   8.625  10.763  0.1136 -0.0965 -0.5097
31613W        W47797  10.991  13.448  13.936 -0.1397 -0.3021  0.1967
31614W        W47798  16.532   2.003   4.522  0.0583 -0.0729 -0.2318
31615W        W47799   8.891   2.479   4.235 -0.0863  0.0877  0.3715
31616W        W47800   1.779   9.292   2.504  0.1071  0.0851  0.6344
31617W        W47801  15.935  12.185  11.140 -0.1278 -0.2750  0.1692
31618W        W47802   2.447  11.690  11.962 -0.1481  0.4579 -0.1597
31619W        W47803   0.488  10.069  14.041  0.0881  0.2836 -0.2782
31620W        W47804  14.078   5.923  13.306 -0.1177 -0.0206 -0.3091
31621W        W47805   4.147  16.423   2.159  0.2509 -0.0957 -0.0247
31622W        W47806   4.644  13.308  14.626  0.1036 -0.2116 -0.1681
31623W        W47807   2.136   4.587  10.321  0.1023  0.2052 -0.0692
31624W        W47808  13.390   9.614   2.022  0.0922 -0.0209 -0.0694
31625W        W47809  14.936  15.839  14.406  0.0604  0.1718 -0.0599
31626W        W47810  17.301   5.663   0.516  0.0172  0.3592  0.2499
31627W        W47811  10.466   1.378   9.501  0.2230 -0.0957  0.0993
31628W        W47812   5.300   3.898  14.609  0.0443 -0.1903  0.0627
31629W        W47813   0.018  14.729  11.535 -0.0757  0.0864 -0.0150
31630W        W47814   5.188  16.428   2.320 -0.0156  0.0503 -0.1817
31631W        W47815   7.465  16.309   1.929 -0.1048 -0.0484  0.0163
31632W        W47816   9.118   7.740   0.272  0.1408  0.1580 -0.2508
31633W        W47817   2.824   2.526   2.729  0.0776 -0.2415 -0.0025
31634W        W47818  18.851   5.924   2.248  0.0219  0.1970  0.1153
31635W        W47819  10.074  15.185   4.251 -0.1910  0.1423 -0.2587
31636W        W47820   9.619   5.815  12.249 -0.1899 -0.0314 -0.2685
31637W        W47821  16.944  10.454  13.338  0.0627  0.0473  0.1394
31638W        W47822  11.192  14.731  14.624 -0.0968  0.1722  0.1295
31639W        W47823   8.768   9.240   1.945 -0.0622  0.1976 -0.2000
31640W        W47824  16.962  17.127  12.711  0.0565  0.0174 -0.0350
31641W        W47825  15.424  11.795   3.255 -0.0739  0.0145 -0.4768
31642W        W47826  12.372  15.690   0.349  0.1279  0.1374  0.0712
31643W        W47827  17.662   1.946   1.461  0.0465 -0.0914 -0.1138
31644W        W47828   1.114  13.992  10.817  0.4698 -0.0965 -0.1629
31645W        W47829  16.561   7.961   3.319  0.1315  0.0197  0.0334
31646W        W47830   0.984   2.126   1.278  0.0310  0.2944 -0.3205
31647W        W47831   8.494   9.134   4.436  0.0772  0.2721 -0.4292
31648W        W47832  10.711  14.461   0.253 -0.3710 -0.0940 -0.1042
31649W        W47833   7.814   1.485  13.380  0.0369 -0.2997 -0.2516
31650W        W47834   4.378  13.017  12.998  0.0978 -0.1580  0.1317
31651W        W47835  19.017   3.721   1.738  0.2813 -0.2370  0.1449
31652W        W47836  11.095   2.815   2.486  0.1567  0.0492 -0.0872
31653W        W47837   4.124  12.296  11.742 -0.0050 -0.0637 -0.0603
31654W        W47838  19.278   6.197   0.762  0.4141  0.0502 -0.3156
31655W        W47839  13.882  10.665   2.435  0.1143 -0.0584 -0.1119
31656W        W47840  15.806   4.007   0.704 -0.3391 -0.1732 -0.0135
31657W        W47841   3.171   8.851   4.130 -0.0277  0.0623  0.0121
31658W        W47842   0.803  15.066   3.666  0.2104  0.2680 -0.4280
31659W        W47843   9.931  15.600  12.017 -0.0436  0.3029 -0.2398
31660W        W47844  14.523   0.007  13.946 -0.0032 -0.1976  0.1267
31661W        W47845   5.929  12.081  14.829  0.0272 -0.1274 -0.0651
31662W        W47846   2.304   6.542   0.511  0.0359 -0.0874  0.2380
31663W        W47847  13.179   1.098  10.234  0.2786  0.2031 -0.3021
31664W        W47848  16.226   9.656   3.365  0.0012 -0.1402  0.2462
31665W        W47849  12.994   5.312   2.528 -0.0466  0.3108 -0.0239
31666W        W47850   3.115  15.506   4.811  0.1545 -0.0557  0.0178
31667W        W47851  14.841  12.513   3.490 -0.1519 -0.0915  0.1140
31668W        W47852   2.878  12.251   2.255 -0.1870 -0.0230  0.1084
31669W        W47853  15.356  13.550   3.196 -0.1518  0.1511  0.0812
31670W        W47854  12.430  19.158   1.979 -0.2684 -0.3235 -0.1134
31671W        W47855  17.735  17.081   0.628  0.0160 -0.1918  0.0317
31672W        W47856  14.872   6.241  12.335 -0.2439  0.1521 -0.0842
31673W        W47857  12.772   3.067   3.733  0.1105  0.0229 -0.0700
31674W        W47858   7.569   5.374  11.652  0.2168 -0.0518 -0.1169
31675W        W47859  14.421  16.580  12.842  0.2318  0.2413 -0.1073
31676W        W47860  10.524   1.848  12.544 -0.2500  0.1917  0.2213
31677W        W47861  13.826  16.574  13.967 -0.0447  0.2425 -0.1373
31678W        W47862  17.479   9.472   1.849 -0.0873 -0.1472 -0.0945
31679W        W47863  16.545  10.324  14.865  0.3068 -0.0343  0.1400
31680W        W47864   9.633  15.586  14.673 -0.1252 -0.0643  0.1566
31681W        W47865   7.790  18.899   1.421 -0.2803  0.0650 -0.3420
31682W        W47866   0.755   2.916  11.016  0.2060  0.5210 -0.2633
31683W        W47867  15.611  11.038   0.533 -0.1194 -0.0339 -0.1349
31684W        W47868   5.611  18.008  11.304  0.1373 -0.0282 -0.2661
31685W        W47869  13.844   0.172   2.623 -0.0883  0.1466 -0.3353
31686W        W47870  12.825   6.166   0.123  0.2809  0.1159  0.0365
31687W        W47871  15.945   5.042   4.897 -0.1607 -0.0158  0.1345
31688W        W47872   2.589   9.231   1.729  0.0012  0.3580  0.0591
31689W        W47873   8.822  18.049   9.953  0.0040 -0.1499  0.0393
31690W        W47874   5.609  18.452  12.466  0.1097  0.2067 -0.0099
31691W        W47875  11.327  19.090   0.242  0.0759 -0.3670 -0.3111
31692W        W47876   2.450   3.877  13.239  0.1623 -0.0469 -0.1023
31693W        W47877   5.194   5.271   2.416 -0.1489 -0.0885  0.0231
31694W        W47878   7.585   8.272   4.821  0.0524 -0.0780  0.1771
31695W        W47879   5.303   6.025   0.333  0.0708  0.0438 -0.1241
31696W        W47880   7.883  12.105   3.407 -0.3420  0.0695  0.3608
31697W        W47881   8.479  12.788  14.317  0.2989 -0.4454 -0.3375
31698W        W47882   5.000  12.408  12.154  0.3133  0.0190  0.3908
31699W        W47883   1.399  19.019  11.418 -0.2730  0.2143 -0.1507
31700W        W47884  12.636  11.877   2.563 -0.0309  0.4304  0.0685
31701W        W47885   0.438  18.210   0.194 -0.2544 -0.1667  0.0376
31702W        W47886  18.301   6.940   2.351  0.0107  0.0881  0.1630
31703W        W47887  15.396  17.115  12.009 -0.0474 -0.0587 -0.2300
31704W        W47888   6.704   8.506  12.849  0.2370  0.0020  0.1259
31705W        W47889   8.764  18.714  14.641  0.2458  0.2342  0.2438
31706W        W47890   8.055  13.587  12.477  0.1467  0.0061 -0.1120
31707W        W47891   8.671  12.747  12.747  0.1790 -0.2808 -0.0307
31708W        W47892  15.947  16.826   2.697 -0.1010 -0.1135  0.1090
31709W        W47893   2.985  16.207  10.948 -0.4042  0.0302 -0.0363
31710W        W47894  10.073  11.835   2.767  0.0705 -0.2982 -0.2567
31711W        W47895  11.165  14.858  14.049  0.2938  0.2060 -0.3091
31712W        W47896   7.554  15.498   3.277 -0.0495 -0.2887 -0.2870
31713W        W47897   5.966   3.287   3.778 -0.1978 -0.2511  0.2766
31714W        W47898  10.709  11.486   2.164  0.0599  0.2154  0.2125
31715W        W47899  10.174   7.429   2.636 -0.0186  0.2464 -0.1593
31716W        W47900   0.849   2.687   0.003 -0.1823 -0.1198  0.0264
31717W        W47901   5.253  15.663   0.727  0.3184  0.0589  0.0838
31718W        W47902   2.529  14.249  14.903  0.3053 -0.2830 -0.3181
31719W        W47903   8.410   5.187   1.701 -0.2396 -0.4008  0.1379
31720W        W47904  17.442  11.556  12.042  0.0596  0.3900  0.0681
31721W        W47905   7.969  10.562   0.558  0.1622  0.0352 -0.2373
31722W        W47906   1.218   4.780  12.477  0.1730  0.3085  0.2272
31723W        W47907  17.065  14.814  11.421  0.1948 -0.1893  0.2184
31724W        W47908  16.844  11.572   4.380 -0.3011 -0.1362 -0.4605
31725W        W47909  13.890   6.026  14.484 -0.3165 -0.0187 -0.0511
31726W        W47910  18.763  13.534  13.178 -0.0570  0.2795 -0.1804
31727W        W47911  14.173  11.516  12.585  0.2952 -0.1142  0.1963
31728W        W47912  13.968   4.980   5.231 -0.3952 -0.0113  0.3145
31729W        W47913   4.858  11.365   2.467  0.1128 -0.1956 -0.1259
31730W        W47914   9.819   3.149   3.705 -0.0184  0.2187  0.0134
31731W        W47915  12.373   5.945  12.923  0.0711 -0.2509 -0.0884
31732W        W47916  12.874  11.769   5.199  0.0942  0.0265  0.2964
31733W        W47917   8.018  13.857  11.007 -0.0903  0.1383  0.0483
31734W        W47918   8.092  11.796   1.723 -0.2824 -0.0156 -0.2842
31735W        W47919   6.417   1.414   1.160  0.0660 -0.1513  0.3305
31736W        W47920   0.035   7.123  14.772  0.1898 -0.0971 -0.0155
31737W        W47921   1.263  12.467   4.039 -0.0194  0.1162 -0.2197
31738W        W47922   8.336  19.139   1.932 -0.0582 -0.4524  0.0380
31739W        W47923   9.571   5.004   3.874 -0.0930 -0.1302  0.1752
31740W        W47924  18.620   9.036   2.428  0.0636  0.6015  0.1936
31741W        W47925   5.833   4.506  14.556 -0.0548  0.2129  0.1029
31742W        W47926   3.194  12.021   5.318  0.0398 -0.2484 -0.2254
31743W        W47927  11.434  11.965  10.271  0.1861  0.1701 -0.0203
31744W        W47928  15.582   0.911  10.355 -0.3069 -0.0476 -0.2724
31745W        W47929  11.592  11.363   2.342 -0.2810 -0.1970 -0.2449
31746W        W47930  14.770  14.256   4.236  0.2879  0.1881 -0.1379
31747W        W47931   8.376  16.186  10.388  0.3141  0.2591  0.4739
31748W        W47932  12.482   4.928   0.698  0.2924  0.3199  0.0734
31749W        W47933  17.403   6.117  12.404  0.0997 -0.2024 -0.4617
31750W        W47934  18.494   1.780   2.597 -0.1344  0.4870  0.2660
31751W        W47935  11.424   0.448  14.543 -0.0637 -0.1414 -0.2709
31752W        W47936  15.577   5.931   3.208  0.0191 -0.0655  0.2468
31753W        W47937  18.833   5.831  10.065  0.0994 -0.0577 -0.0557
31754W        W47938   0.764   5.086   5.380  0.0319  0.3705  0.0547
31755W        W47939   6.474   3.616  14.920  0.0545 -0.3156  0.0036
31756W        W47940   6.724   6.042  12.027  0.1307  0.1594  0.3331
31757W        W47941   1.025   1.353  11.528  0.0780  0.0120  0.1850
31758W        W47942   3.904   5.363   5.817 -0.0452 -0.0115  0.0803
31759W        W47943  19.371   0.871   2.594 -0.0693  0.3374  0.1982
31760W        W47944  15.550  17.219  12.655  0.2135  0.0852 -0.1296
31761W        W47945   7.351   9.696   2.039  0.0956  0.2820 -0.2683
31762W        W47946  13.875   7.605  13.631 -0.2428  0.4813  0.0730
31763W        W47947  16.490   9.086  11.574  0.0325 -0.1759  0.2319
31764W        W47948   1.989   2.631  13.845  0.0154 -0.0667 -0.3418
31765W        W47949   9.878  15.698  10.953  0.1844  0.0314 -0.3680
31766W        W47950   9.227  13.475   1.512  0.2165 -0.1261 -0.2336
31767W        W47951   6.556   0.326  10.937  0.1140 -0.2016  0.1065
31768W        W47952   8.949  11.314  12.434 -0.0193 -0.2043  0.3108
31769W        W47953  16.955   3.449  14.687 -0.1985  0.4627  0.1686
31770W        W47954   5.316  18.191   4.342  0.1934 -0.0508  0.2121
31771W        W47955   5.639   7.346   4.581  0.0025  0.1697 -0.1615
31772W        W47956  17.339  17.268   0.233 -0.2050  0.0796  0.3035
31773W        W47957   9.710  18.912  12.645  0.0148  0.1657 -0.0412
31774W        W47958   5.223   5.828  13.422 -0.0038  0.1753  0.0399
31775W        W47959  16.789  13.734   3.108 -0.1140  0.0178 -0.2734
31776W        W47960  15.741  19.162   9.688 -0.1176  0.2269 -0.0493
31777W        W47961  18.930   2.538  14.481  0.0409 -0.3200  0.1005
31778W        W47962   3.890  17.397  10.712 -0.5488  0.0833 -0.0663
31779W        W47963   0.755   9.291   5.280  0.1305 -0.2845  0.1766
31780W        W47964  14.394   7.400   3.770 -0.4785 -0.2319  0.1052
31781W        W47965   9.215   2.504   0.196 -0.2290  0.3101 -0.1528
31782W        W47966  11.805   4.638   1.035  0.0801 -0.1606  0.2447
31783W        W47967  18.054  10.716   3.767  0.0946 -0.2386  0.2637
31784W        W47968   4.026   7.707   5.481  0.0047 -0.2783 -0.0933
31785W        W47969   5.488  13.610   0.395  0.1831  0.3172 -0.2347
31786W        W47970  12.547  15.810  14.457 -0.3686  0.0255  0.2268
31787W        W47971   2.201  16.123   0.089 -0.1355  0.1485  0.0893
31788W        W47972  10.072  16.203  11.895  0.4047  0.1235 -0.0096
31789W        W47973   1.165   1.877   5.345 -0.3006  0.1393  0.0417
31790W        W47974   0.095   2.703   2.797  0.1079 -0.1330 -0.2437
31791W        W47975   9.778   6.617   5.355 -0.1448 -0.0753 -0.1026
31792W        W47976   2.251  15.534  13.081  0.1903 -0.0461  0.2502
31793W        W47977  17.031   4.009   3.522 -0.2759 -0.3723 -0.1629
31794W        W47978  17.150  11.743   4.078  0.2260 -0.1138  0.2464
31795W        W47979  10.502  16.041  10.090 -0.1618 -0.0049  0.2525
31796W        W47980  13.755   1.601   1.670 -0.1418  0.0793  0.3087
31797W        W47981  16.933  13.321   2.374 -0.0555  0.1398  0.0109
31798W        W47982   2.793   2.585  13.745 -0.0940  0.1705 -0.1604
31799W        W47983   6.959  14.683  12.378  0.1279 -0.2193  0.1049
31800W        W47984  12.136   6.985   9.963 -0.3004 -0.2559  0.0829
31801W        W47985  12.113  16.426  12.901  0.0991  0.1459 -0.0858
31802W        W47986   0.908   9.106   4.523 -0.0833 -0.0580  0.0936
31803W        W47987   2.757  18.950  13.408  0.2634  0.0754  0.1061
31804W        W47988  14.216   6.992   3.603 -0.1524  0.0297 -0.1013
31805W        W47989  18.391  11.214  14.889 -0.1033  0.3825 -0.4107
31806W        W47990   9.200  14.861   3.381  0.1112  0.0821 -0.1698
31807W        W47991   9.079   6.729  11.263  0.1216 -0.2078 -0.0222
31808W        W47992  16.296  10.146   1.204 -0.0860  0.0966  0.1487
31809W        W47993   9.851  15.063   3.736  0.2256 -0.1630  0.1716
31810W        W47994  11.226   3.979  13.159  0.1883 -0.0764 -0.2290
31811W        W47995   5.734   1.524   4.379  0.2336  0.2027 -0.0592
31812W        W47996  14.321  13.616  11.796 -0.3806 -0.1484  0.1269
31813W        W47997   9.640   8.599  11.728  0.2168  0.2372 -0.0639
31814W        W47998   6.056   7.862   1.039  0.0601 -0.2291  0.2635
31815W        W47999   6.108  12.568  11.836  0.0325 -0.0840  0.0848
31816W        W48000  15.928  12.438   0.442  0.1010  0.2370  0.0828
31817W        W48001  12.559   5.895   9.937  0.2097  0.2054  0.0316
31818W        W48002   6.150   3.964  14.821  0.0825  0.0217  0.1550
31819W        W48003  15.579  15.590  13.115 -0.1719 -0.1231  0.1373
31820W        W48004  12.625   2.643   1.162 -0.3735  0.1849  0.1224
31821W        W48005  12.440  16.097  13.070 -0.0691 -0.0982 -0.0129
31822W        W48006   8.247  13.442   2.865 -0.1457  0.2732  0.0181
31823W        W48007   2.162   3.862   3.596 -0.2605  0.2531 -0.0466
31824W        W48008   4.363   4.497  13.415  0.1502 -0.0496 -0.0395
31825W        W48009  18.997  13.149   3.296  0.0884  0.1514  0.0435
31826W        W48010  13.281  17.988  12.554  0.2408 -0.1565 -0.0525
31827W        W48011   5.669   5.587  12.650 -0.2158 -0.1950 -0.0877
31828W        W48012   4.423   7.474   6.214  0.2984  0.3706  0.4569
31829W        W48013   5.719  19.238  13.600  0.3126  0.1554  0.0049
31830W        W48014   5.892   1.058  11.299  0.4158  0.2482 -0.1830
31831W        W48015   8.652  14.888  11.436 -0.0064  0.0422  0.1573
31832W        W48016  10.210   6.390  14.384  0.3386 -0.1110  0.1335
31833W        W48017   2.546   3.200   3.861 -0.0745  0.0734  0.0786
31834W        W48018  13.218  17.378   2.778 -0.2478 -0.1013 -0.3155
31835W        W48019  14.944   5.394  13.785  0.0128  0.1448 -0.1950
31836W        W48020  13.938  12.986  14.619  0.3170 -0.0811  0.1469
31837W        W48021   1.049  16.855  12.842  0.0380 -0.1555 -0.0387
31838W        W48022   3.227   7.559  12.099 -0.1946  0.1868 -0.1392
31839W        W48023  16.053   6.819   2.522  0.1941 -0.1800  0.2995
31840W        W48024  13.529   3.222  14.059 -0.1820 -0.1186  0.0784
31841W        W48025  19.371   1.769   4.501 -0.1300 -0.0656  0.1812
31842W        W48026   1.747  13.309  11.685  0.0576 -0.2181 -0.1377
31843W        W48027  16.283   5.428   4.774 -0.0133  0.1792 -0.2681
31844W        W48028   5.899   4.535   5.015 -0.2806  0.0736  0.0314
31845W        W48029  14.192   1.597  14.073  0.0444 -0.2006 -0.2372
31846W        W48030   4.721   6.333  12.937 -0.1798  0.1444  0.1569
31847W        W48031  14.601   4.898   4.757  0.1207 -0.0703 -0.0047
31848W        W48032   7.255   7.749  13.795 -0.0644 -0.3026  0.0627
31849W        W48033   7.689   7.854  11.177  0.3153 -0.2698 -0.1090
31850W        W48034   8.110  13.433   1.360 -0.2305  0.1616 -0.3155
31851W        W48035   0.640  12.504  13.105  0.2999  0.0255 -0.0712
31852W        W48036  17.728  16.308   2.599 -0.4767  0.2703 -0.1809
31853W        W48037   9.719   3.087  14.146 -0.1714  0.1448  0.3527
31854W        W48038   9.495  17.477  13.742 -0.0527 -0.1439  0.3191
31855W        W48039  13.190   2.713   9.098 -0.0717  0.1568 -0.1380
31856W        W48040  14.777  11.896  11.920 -0.3935  0.2302 -0.1717
31857W        W48041   0.212  18.194  10.488  0.3116  0.1254 -0.1048
31858W        W48042   4.632   5.323   4.749  0.2752 -0.4145  0.0380
31859W        W48043  14.693  17.102   2.915 -0.3196 -0.1151 -0.5354
31860W        W48044   0.264   5.651   4.872  0.0825 -0.1388  0.1763
31861W        W48045   9.338  16.308   3.187 -0.0065 -0.3743  0.0302
31862W        W48046  15.549  13.128   4.373 -0.1957 -0.1259  0.1738
31863W        W48047  14.905  10.977  11.758 -0.0165 -0.1570 -0.0245
31864W        W48048   8.655   2.721   3.340  0.1917  0.1705 -0.4361
31865W        W48049  14.831  18.787  12.711 -0.3315 -0.0276  0.0784
31866W        W48050   7.667   3.256  11.066  0.0553 -0.0008 -0.0715
31867W        W48051  14.062   4.887   3.893 -0.0610  0.0270  0.0874
31868W        W48052   1.168  13.436   3.615 -0.0589  0.0821 -0.0719
31869W        W48053  16.178   3.877  10.678 -0.1151 -0.1551  0.2764
31870W        W48054   9.084   5.085   3.934  0.0560  0.0628 -0.5101
31871W        W48055   1.136  15.447   5.040  0.3072 -0.3275 -0.2290
31872W        W48056  12.500   3.013  12.287  0.4227  0.0043 -0.0551
31873W        W48057  13.156  17.896   4.046  0.0668  0.0407 -0.3100
31874W        W48058   9.536   7.347   4.336  0.3385  0.0293  0.0636
31875W        W48059  10.070   1.161  12.097  0.0439  0.1405 -0.3985
31876W        W48060  14.174  18.379   1.351  0.3748 -0.3289 -0.2557
31877W        W48061  15.700   7.645  10.326  0.0339 -0.0429  0.2559
31878W        W48062   9.843   8.537  10.581  0.1499 -0.0724  0.1660
31879W        W48063  18.318  17.812  10.528 -0.3145  0.1409 -0.2397
31880W        W48064   3.044  15.518  10.394 -0.1260 -0.1962 -0.1219
31881W        W48065   8.326   3.026  13.180 -0.1136 -0.0522 -0.1864
31882W        W48066  16.978   9.845   3.419  0.1686 -0.1152  0.3637
31883W        W48067   3.301   2.538  11.774 -0.0291  0.2419  0.0274
31884W        W48068  17.001   8.976  11.691 -0.0725 -0.0301 -0.1358
31885W        W48069  16.201   3.627  10.027  0.2321  0.3314  0.0388
31886W        W48070  15.501  17.050   0.863 -0.1735  0.0868 -0.1878
31887W        W48071   6.433   6.279   2.026 -0.1005 -0.0130  0.1343
31888W        W48072  17.313   6.930   2.648 -0.4737 -0.1279 -0.3254
31889W        W48073  14.205   9.737   2.224 -0.0565  0.3746  0.3266
31890W        W48074  10.524   5.348   4.011  0.0849  0.0938  0.3558
31891W        W48075  16.665   9.774   4.342 -0.0689 -0.0509  0.1824
31892W        W48076  15.274   4.222   2.757 -0.0408 -0.2429  0.1097
31893W        W48077  19.048   0.254  14.355  0.3082  0.1004 -0.1880
31894W        W48078   0.581  13.884  13.133 -0.3619  0.2582  0.2327
31895W        W48079   9.792   4.397   3.675  0.0245 -0.0573  0.4685
31896W        W48080  12.835   1.454   0.852 -0.1217 -0.2761 -0.1345
31897W        W48081   9.328   8.913   3.891  0.0507 -0.0818  0.0992
31898W        W48082   4.174   6.480  14.556  0.3096 -0.2964  0.0595
31899W        W48083  19.225  18.966  12.580  0.1364 -0.3665  0.2512
31900W        W48084   3.329   0.126  12.385  0.0306  0.2489  0.2104
31901W        W48085   4.328   9.931  13.274 -0.2514 -0.0596 -0.4049
31902W        W48086  18.728   3.511   3.821 -0.1326 -0.3464  0.4476
31903W        W48087  11.177   8.158   0.216  0.2452 -0.2209 -0.2682
31904W        W48088   6.172  14.026   3.228 -0.0788  0.1029 -0.6198
31905W        W48089   4.380   9.643   2.559 -0.2040  0.0398 -0.0643
31906W        W48090   7.821   2.350  10.302  0.2718  0.2428  0.1448
31907W        W48091  17.662  12.603   3.209  0.1425 -0.1440 -0.0376
31908W        W48092  11.610   9.568   2.422  0.2297  0.0602  0.2004
31909W        W48093   8.548   5.339  11.490 -0.0636  0.0115  0.0732
31910W        W48094  14.198   6.314   1.155  0.0023  0.5483 -0.1455
31911W        W48095   2.172   3.600  11.943 -0.1314  0.2509 -0.0405
31912W        W48096   5.328   8.766  13.613  0.3081 -0.0372 -0.4456
31913W        W48097  19.064   9.839   1.152  0.0577  0.2812 -0.0840
31914W        W48098  14.419   1.642  10.210  0.1100  0.5943  0.3262
31915W        W48099  16.780   0.653   1.562 -0.1623  0.0620 -0.0692
31916W        W48100   2.648  18.176  14.317  0.0749 -0.2609 -0.0341
31917W        W48101   3.676  18.380   1.690 -0.6572 -0.2384  0.1239
31918W        W48102   9.434  11.017  13.085  0.0268  0.0599  0.1381
31919W        W48103   0.882  15.534  13.458 -0.0178  0.1036  0.1257
31920W        W48104   5.039  12.969  12.831 -0.1551 -0.1599  0.0186
31921W        W48105   9.875   7.516  10.502 -0.1548 -0.3372 -0.1119
31922W        W48106   0.047   4.628  11.221  0.1239  0.0908 -0.0970
31923W        W48107   3.126  10.749  12.358  0.0137 -0.0317 -0.0900
31924W        W48108  15.548   1.420  10.352 -0.0338  0.0325  0.2217
31925W        W48109  16.228   4.103   0.512  0.2087 -0.0385  0.2225
31926W        W48110   3.763   7.633   0.469 -0.2663  0.0906 -0.2217
31927W        W48111   1.650  14.961  13.619  0.0277  0.1120  0.1399
31928W        W48112   1.185  15.067   1.278 -0.2323  0.0855  0.0881
31929W        W48113   3.477   7.438   1.609  0.0418  0.0433 -0.1558
31930W        W48114  15.851   0.693   4.130 -0.2523 -0.2038 -0.0941
31931W        W48115  12.523   2.181  10.010  0.0415  0.0957  0.2347
31932W        W48116   4.773  10.546  13.918 -0.2182  0.0523 -0.2739
31933W        W48117   2.943  17.700  10.767  0.1516 -0.2898 -0.0900
31934W        W48118  12.978   2.517  14.228  0.1488  0.0184 -0.0671
31935W        W48119   4.202   6.053  12.360  0.1345  0.0287 -0.3707
31936W        W48120  12.694   9.151   0.486 -0.2472  0.1866  0.0210
31937W        W48121   1.110   0.984  12.899 -0.0306  0.1767  0.3283
31938W        W48122  17.771  13.869  10.152 -0.5080  0.1790  0.1600
31939W        W48123  15.886  18.421  10.844  0.1377 -0.1395  0.5036
31940W        W48124  16.199   4.520   3.404 -0.0754  0.0599  0.1176
31941W        W48125  12.120  14.906  14.718 -0.1267  0.1286  0.0041
31942W        W48126  16.939  13.723  14.064  0.1336  0.2695 -0.1120
31943W        W48127   1.469   0.529  10.584 -0.3315  0.0347  0.1299
31944W        W48128  15.011  14.780  10.731  0.0593 -0.1260  0.0927
31945W        W48129   2.422   1.927   1.032  0.0402 -0.1940 -0.1242
31946W        W48130   8.873   2.202  11.723  0.0765  0.0801  0.2513
31947W        W48131   0.030   9.858   3.578  0.1530  0.1266  0.2915
31948W        W48132   4.174   5.049   4.978  0.0263 -0.0738 -0.1050
31949W        W48133   1.062   5.785   6.231 -0.0722 -0.0519  0.2001
31950W        W48134  10.351  18.376   5.410 -0.1615 -0.1728 -0.0348
31951W        W48135   5.837  13.151   2.308  0.1763 -0.0380 -0.1029
31952W        W48136   1.426   2.067   1.492 -0.0381 -0.0531 -0.0743
31953W        W48137   8.188   9.998  13.347 -0.0268 -0.1999 -0.0865
31954W        W48138  14.977  16.157   3.845 -0.2459  0.1773  0.0446
31955W        W48139  17.602  18.093  10.756 -0.0221  0.0278 -0.0492
31956W        W48140   9.738   0.086   1.240 -0.0855 -0.1126  0.2754
31957W        W48141   0.667  16.985  13.314  0.1085 -0.1077  0.1917
31958W        W48142  19.342   7.328  10.133 -0.3858  0.0364  0.0352
31959W        W48143  15.386   4.745   0.493 -0.0860  0.1790 -0.0518
31960W        W48144  19.294   6.684  14.489  0.1128  0.0613  0.1723
31961W        W48145   5.682  18.307   3.407  0.3354 -0.2882  0.1844
31962W        W48146   9.158   2.934   2.802 -0.2698  0.2753  0.1826
31963W        W48147   2.895   7.557  11.728  0.1024  0.0498 -0.1446
31964W        W48148  12.278  10.075  14.554  0.0931 -0.0328 -0.2852
31965W        W48149   7.079  16.723   0.614 -0.2867 -0.2962  0.1862
31966W        W48150  16.583  17.747  14.395 -0.0092 -0.2328 -0.1155
31967W        W48151   4.805  12.500  11.647 -0.1186  0.1075  0.1866
31968W        W48152  12.566   5.601   2.558  0.0974  0.0470  0.0508
31969W        W48153   2.188   5.812   5.400  0.1241 -0.4028  0.2682
31970W        W48154  12.063   0.352  12.353  0.1813  0.2193  0.4027
31971W        W48155  17.202   2.192  11.800  0.2362  0.1153  0.2571
31972W        W48156  14.950  14.996  12.770 -0.2896  0.2816  0.0556
31973W        W48157  15.112  10.491  14.420 -0.0178  0.2366  0.0026
31974W        W48158  14.416  19.380   3.486 -0.2437 -0.2246  0.0354
31975W        W48159  17.443   8.637   1.558 -0.0441  0.1534 -0.0532
31976W        W48160   0.615  14.513  14.281 -0.0833 -0.1316  0.0365
31977W        W48161  18.344  15.970   0.252  0.5789 -0.0874 -0.0228
31978W        W48162   1.653  15.158  12.440 -0.1235  0.0009 -0.1661
31979W        W48163   4.517   7.038  12.887  0.0663 -0.0494  0.2026
31980W        W48164   9.482   5.549  11.036 -0.0138 -0.0962  0.0320
31981W        W48165   0.959   6.584   3.688  0.2659  0.0094  0.0351
31982W        W48166   4.444  11.801   0.805 -0.1305 -0.4293  0.0658
31983W        W48167  10.425   4.492   4.393  0.0383 -0.0967 -0.1967
31984W        W48168  19.184   4.009   0.857 -0.3229  0.0620  0.2212
31985W        W48169   9.244  10.883   3.619  0.2733 -0.1859  0.2647
31986W        W48170  14.482   3.760  14.010  0.0171 -0.2272 -0.2669
31987W        W48171  15.979  14.717  14.300 -0.0675  0.1641 -0.0231
31988W        W48172  18.650  18.074   3.709 -0.2227 -0.1631  0.2693
31989W        W48173   1.980   1.701   2.088 -0.3302  0.1246 -0.1749
31990W        W48174  14.484  15.607   1.444  0.0194  0.0052  0.0131
31991W        W48175   0.891   8.476  13.789  0.2486  0.2070 -0.0077
31992W        W48176  13.627  14.871  11.952  0.0968  0.1181  0.1705
31993W        W48177  14.320  15.454  12.255  0.0991  0.2312 -0.0583
31994W        W48178  16.466   4.274   1.808  0.2118 -0.0365  0.1982
31995W        W48179   7.059   5.514  10.908 -0.0762  0.1109  0.0842
31996W        W48180  17.858  14.999  10.306  0.1593  0.3380  0.0058
31997W        W48181   1.829   6.728   2.703  0.2267  0.4407 -0.0107
31998W        W48182  17.583   2.772  12.486  0.2992  0.1847 -0.1188
31999W        W48183  11.621   9.685  13.473  0.0385 -0.0090 -0.2597
32000W        W48184  10.130  17.693   0.634 -0.0726  0.0387 -0.1038
32001W        W48185   6.300   5.409   5.105  0.0689  0.0675 -0.2330
32002W        W48186   5.734   8.820   0.042 -0.0233  0.0823  0.1750
32003W        W48187  13.422  15.535   1.600  0.0443  0.0373  0.0158
32004W        W48188   7.851  18.517   4.019 -0.2022  0.0711  0.0330
32005W        W48189  12.724  15.889   2.183  0.0385  0.1313 -0.0516
32006W        W48190  19.292  10.125  14.761  0.3005 -0.1220 -0.1657
32007W        W48191  15.572   0.846   9.102 -0.1676 -0.1871 -0.0077
32008W        W48192  11.879   0.188  13.913 -0.1649  0.2059 -0.0012
32009W        W48193   4.760  12.089  13.051  0.2059  0.1893  0.3294
32010W        W48194   7.510  10.480  12.393  0.0814 -0.1852 -0.1078
32011W        W48195  10.846   3.479  10.356  0.0163 -0.0512  0.1618
32012W        W48196  19.055   7.607   1.313  0.0874  0.1498  0.1919
32013W        W48197  14.799   6.948   1.118 -0.0682 -0.1525  0.2085
32014W        W48198   5.950  14.285  14.006 -0.1148 -0.2199  0.2307
32015W        W48199  19.339  18.163   5.650 -0.2598 -0.0746 -0.0941
32016W        W48200   8.829  10.752   3.291  0.0789 -0.3250  0.0552
32017W        W48201  13.620  12.753  12.835 -0.1407  0.1304  0.2622
32018W        W48202  19.055   8.194  11.048 -0.0811  0.0828 -0.1015
32019W        W48203  17.772  18.859   0.217  0.2095  0.1901  0.2161
32020W        W48204  12.038  15.919  10.498 -0.1381 -0.0529 -0.0808
32021W        W48205  17.834  13.120  13.236 -0.1289  0.1221 -0.1133
32022W        W48206  17.387   3.160   2.355 -0.4036  0.2385 -0.1624
32023W        W48207   3.830  16.095   1.909  0.4369 -0.0470 -0.1299
32024W        W48208  10.761   3.874  13.057 -0.1272 -0.1137  0.0049
32025W        W48209   9.333   1.020  14.028 -0.1638 -0.0595  0.1386
32026W        W48210  10.651  16.394   9.261  0.0589  0.1985  0.2401
32027W        W48211   0.704  10.561   2.417  0.1774  0.1794  0.2481
32028W        W48212  12.840   5.865  13.750  0.0760 -0.0451 -0.1669
32029W        W48213  19.161  14.609  14.039  0.0554 -0.1413  0.1845
32030W        W48214   3.797  10.558   3.700 -0.2172  0.1002  0.0071
32031W        W48215  11.363  14.125   0.105  0.0618  0.1399 -0.1445
32032W        W48216  18.454  14.145  14.461  0.1037  0.0421 -0.1616
32033W        W48217   7.022   6.768  12.607 -0.4147 -0.0746  0.0179
32034W        W48218  17.257   1.637   2.258 -0.1400  0.1082  0.0890
32035W        W48219  11.958  11.406   1.246 -0.1425 -0.2024  0.0793
32036W        W48220  12.662   4.122   2.425 -0.3980 -0.0274 -0.0696
32037W        W48221  17.437  10.226   5.078 -0.0453  0.0401 -0.0368
32038W        W48222   9.159   4.595  12.253 -0.0084 -0.0834  0.0482
32039W        W48223   4.989  11.253   3.152  0.0384  0.1977  0.2585
32040W        W48224  18.598   1.716   3.177  0.0013  0.1185  0.1221
32041W        W48225   1.246  13.226  13.010 -0.0994  0.0375  0.0955
32042W        W48226  12.764  16.258  11.686  0.2123 -0.0844  0.4993
32043W        W48227   9.531  10.140  12.748 -0.5163  0.1247 -0.1582
32044W        W48228   1.017   1.491   1.007  0.1446 -0.2144 -0.0648
32045W        W48229   1.044  12.369   3.442  0.0753 -0.6016  0.0603
32046W        W48230  15.319   1.150   2.409  0.1448  0.0607 -0.2111
32047W        W48231   3.143  13.746   1.083  0.1094 -0.2009  0.0672
32048W        W48232   3.615  18.197  11.976 -0.1787 -0.1480 -0.2859
32049W        W48233  18.088  10.250  11.259  0.2997  0.3459  0.1184
32050W        W48234   4.010   2.821  10.986 -0.1164  0.0774  0.0561
32051W        W48235   6.070   7.177  10.919  0.0732 -0.1739 -0.0927
32052W        W48236   9.789   1.605   1.644 -0.2648 -0.3215  0.0632
32053W        W48237   7.819   4.504  11.271 -0.0723 -0.3727 -0.1545
32054W        W48238  16.867   6.902  14.381 -0.2990  0.0398 -0.0406
32055W        W48239   2.647   1.111   1.795 -0.4923 -0.0769 -0.1345
32056W        W48240  13.218  16.126   3.878 -0.0258  0.0883 -0.2026
32057W        W48241  11.618   0.895   3.157  0.2533 -0.2301  0.0507
32058W        W48242  15.160  11.149  10.415  0.1562  0.0476 -0.0829
32059W        W48243   3.468   5.505   2.552  0.0609 -0.2474 -0.1722
32060W        W48244   4.075   1.971   4.914 -0.2037  0.0628  0.0527
32061W        W48245   8.834  15.960   3.423  0.2681 -0.0630  0.1442
32062W        W48246   0.958   4.909  13.158  0.0263 -0.1155 -0.1607
32063W        W48247  14.155  17.256   4.266 -0.2527 -0.2261  0.0692
32064W        W48248  10.780   0.962  13.841 -0.4347 -0.3015  0.0106
32065W        W48249   2.100  15.113   4.040  0.0818 -0.0881  0.0851
32066W        W48250  18.024  14.728   4.218 -0.0539  0.4762  0.0264
32067W        W48251  13.734  13.493   4.344 -0.0681 -0.1342 -0.1397
32068W        W48252  12.057  15.711  14.247  0.1234  0.1556  0.0113
32069W        W48253   8.447   0.433  12.680  0.0843 -0.3284 -0.0147
32070W        W48254  15.074  18.746  10.530  0.0326 -0.1728 -0.1072
32071W        W48255   8.483   6.390  11.616  0.1408  0.0350 -0.1915
32072W        W48256   8.489   8.621  14.642  0.2546  0.2108 -0.2390
32073W        W48257  15.639  15.593   0.651 -0.1855 -0.0455  0.3637
32074W        W48258   4.778  15.800  10.765 -0.1350  0.1142 -0.2107
32075W        W48259   1.522   3.638   2.909 -0.0722  0.0014  0.0972
32076W        W48260  12.887   8.082  11.609 -0.0202  0.0956  0.3611
32077W        W48261  11.679   3.879   1.319 -0.3604 -0.0283  0.1494
32078W        W48262  13.398   9.093  11.195  0.1271  0.2145  0.3655
32079W        W48263   6.683   9.999  14.878  0.0095  0.1307 -0.1525
32080W        W48264   0.878  12.249  13.629 -0.0962  0.1388  0.2133
32081W        W48265   2.352  17.580  12.051 -0.0830 -0.1144  0.0905
32082W        W48266   8.609  16.337   3.858 -0.1973  0.2193  0.5236
32083W        W48267   5.414  11.978   1.187  0.1457 -0.1392  0.2263
32084W        W48268   8.219   3.094   2.394  0.0508  0.1000  0.3007
32085W        W48269  14.230  11.526   4.066  0.3234  0.0570  0.0032
32086W        W48270   7.589   4.104  12.916  0.0050  0.0525  0.1365
32087W        W48271   5.325  10.505   1.996  0.3224  0.3512 -0.0292
32088W        W48272  14.837  12.893   2.868 -0.1250 -0.0062 -0.0905
32089W        W48273   3.997   9.886   1.642  0.1379 -0.0045 -0.1434
32090W        W48274  12.542  14.523   2.203 -0.0627  0.1277  0.1417
32091W        W48275  13.292   6.165   1.665  0.1459  0.3268  0.0907
32092W        W48276  13.866  19.020  10.837 -0.0007 -0.0712  0.1626
32093W        W48277  13.340   2.673   0.218  0.0647 -0.0393  0.1953
32094W        W48278   2.156  17.184   0.204  0.1791 -0.1144 -0.3349
32095W        W48279  18.055  18.471   1.426 -0.1057 -0.0891  0.0087
32096W        W48280  12.084  12.578   3.921 -0.1030 -0.2291  0.0300
32097W        W48281  13.469   8.021   2.735  0.0666 -0.3917 -0.0434
32098W        W48282   6.276   0.809   2.376  0.3145  0.1283  0.3773
32099W        W48283  17.274   8.068   2.880 -0.1869  0.0311  0.1884
32100W        W48284  15.367   1.586  10.812  0.0605  0.0524 -0.0418
32101W        W48285  18.045  12.822   2.876 -0.0209 -0.0152 -0.0020
32102W        W48286  13.802  18.521   4.901  0.0049  0.0829 -0.0169
32103W        W48287  16.787   4.620   1.647  0.0271  0.2584  0.2530
32104W        W48288  11.757  14.721  13.109 -0.0406  0.0029 -0.0984
32105W        W48289   9.821  13.578   0.748 -0.5115 -0.0959  0.0603
32106W        W48290   2.553   2.766   3.105  0.0083 -0.3113 -0.0269
32107W        W48291   6.006  12.942  13.835 -0.2771 -0.3835  0.2366
32108W        W48292   5.959   3.318   0.798 -0.3046 -0.0659  0.3421
32109W        W48293   4.732  18.904   1.844  0.1847 -0.2473  0.3178
32110W        W48294   1.153  14.640  10.990  0.2380 -0.1229 -0.1711
32111W        W48295   1.513   1.914  10.998  0.1159 -0.1984  0.0421
32112W        W48296  12.514   7.318  10.330  0.0788 -0.2919 -0.0674
32113W        W48297  17.279   0.414   5.414  0.4962  0.0851  0.1628
32114W        W48298   5.563  11.808   5.191 -0.0360 -0.1671 -0.0635
32115W        W48299  16.273  12.801  13.366  0.3022 -0.0473 -0.0781
32116W        W48300  11.135   3.252   0.907 -0.2132 -0.0675  0.3129
32117W        W48301  19.129   2.016   0.143 -0.0641 -0.1316  0.3308
32118W        W48302  16.298  18.888  13.625 -0.2273  0.1620  0.1782
32119W        W48303  12.398   5.130   9.642 -0.2337  0.3298 -0.1986
32120W        W48304   6.522  13.114   5.802  0.1073  0.0355 -0.2911
32121W        W48305  10.544  18.967  10.114  0.1572 -0.2079  0.0486
32122W        W48306   3.082  10.564  13.295  0.4420 -0.3809  0.0463
32123W        W48307   7.436   8.768  12.410 -0.2912 -0.1732 -0.0203
32124W        W48308   1.971  16.238  11.845  0.1815  0.0486 -0.0921
32125W        W48309   9.717  17.284  14.897 -0.0886  0.0606  0.0719
32126W        W48310  13.330   4.781  13.585  0.3426  0.2452 -0.2562
32127W        W48311  12.061   7.983   0.269  0.1362  0.0512 -0.2294
32128W        W48312  18.882   3.133  13.127  0.1779 -0.1133  0.1491
32129W        W48313  14.329  11.205  12.214 -0.1049 -0.2123  0.0516
32130W        W48314  15.634   7.167   3.783 -0.0392 -0.0675 -0.0017
32131W        W48315  18.526  13.456   4.120 -0.2393 -0.2344  0.0752
32132W        W48316  13.324  13.734   3.501  0.1678 -0.2697 -0.3027
32133W        W48317   0.228  17.967  13.357 -0.0023 -0.0171  0.1163
32134W        W48318  12.360   4.763  10.678 -0.1325  0.3102 -0.0792
32135W        W48319   3.491  17.402  11.766 -0.0347 -0.1532  0.3757
32136W        W48320   9.897  16.673   5.342  0.3079  0.0336 -0.0705
32137W        W48321  13.112   1.273  14.897 -0.0412 -0.1818 -0.3116
32138W        W48322  15.281   0.879  13.690 -0.1363  0.0677  0.0204
32139W        W48323   8.458   8.141   5.704 -0.3178  0.1886 -0.1655
32140W        W48324  10.149   7.134  14.640  0.1193 -0.2893 -0.0448
32141W        W48325  12.293   2.303   0.781  0.0238 -0.0006 -0.1047
32142W        W48326  13.796  12.080  14.739  0.1465  0.1740  0.1562
32143W        W48327  17.730  18.362   3.215 -0.1596 -0.2003 -0.0351
32144W        W48328  11.199   1.505   0.169  0.3364  0.2410 -0.0216
32145W        W48329   6.813  12.100  13.550 -0.1490 -0.2929 -0.0513
32146W        W48330  16.408   3.648   2.859  0.3850 -0.1112  0.1614
32147W        W48331   1.541  10.153  12.287  0.1117  0.0903  0.3794
32148W        W48332   3.274   6.495   1.737 -0.0405 -0.2472 -0.1428
32149W        W48333   7.245  15.632   2.448 -0.1921  0.0686 -0.2433
32150W        W48334   9.326   7.124   1.446  0.1208  0.0121 -0.2139
32151W        W48335  18.382   0.777   1.373 -0.1297 -0.3062 -0.1095
32152W        W48336   6.757  11.122  14.383  0.3039  0.3357  0.2383
32153W        W48337   1.042  11.267   1.440  0.2591  0.2560 -0.0311
32154W        W48338  17.819   3.333  11.817 -0.0543 -0.0715 -0.0012
32155W        W48339   6.872   9.930   0.385 -0.0104  0.2475  0.0688
32156W        W48340   5.029   5.907  11.461 -0.2022  0.3243  0.4236
32157W        W48341   9.470   3.702  13.699 -0.1945 -0.0319  0.2291
32158W        W48342   8.726  11.537   1.009 -0.1810 -0.3255  0.0974
32159W        W48343   4.213  15.314  14.425 -0.0272 -0.1386  0.1618
32160W        W48344  11.447   7.588  13.198 -0.0310  0.1643  0.2272
32161W        W48345  15.431   6.677  12.715  0.0000  0.0273 -0.0453
32162W        W48346  14.769   9.534   2.998 -0.0980  0.1895 -0.4108
32163W        W48347  12.546   4.051   2.959  0.1448  0.1043 -0.1631
32164W        W48348  18.364   4.138   1.866  0.0857  0.0182  0.1066
32165W        W48349   6.348  13.166   4.030 -0.2812 -0.3019 -0.0174
32166W        W48350  10.734   1.387  12.520  0.3079 -0.0606 -0.3526
32167W        W48351  15.727  10.421  14.448  0.0904 -0.1605 -0.0940
32168W        W48352   6.899  13.017   2.603 -0.0321  0.1078  0.4833
32169W        W48353  15.680   8.623   4.731  0.1349 -0.1556 -0.0157
32170W        W48354  15.651  15.262   3.017 -0.1910  0.3997 -0.0806
32171W        W48355  11.873  13.683  14.721 -0.2047  0.1109 -0.0165
32172W        W48356   0.243   1.677  12.195  0.0509 -0.0100 -0.4169
32173W        W48357   0.187   7.013  11.183  0.1163 -0.1982 -0.0534
32174W        W48358   7.900   4.962  13.683  0.1344  0.0143  0.1594
32175W        W48359  13.431   0.748  11.250  0.1688 -0.0364  0.3848
32176W        W48360   2.173  12.952   5.671  0.1537 -0.2733  0.0463
32177W        W48361   9.771   9.474   1.512 -0.1391  0.1499 -0.1477
32178W        W48362   9.867  13.864  13.555 -0.2473  0.0142 -0.0139
32179W        W48363  15.576  13.512  10.214 -0.0942 -0.1372  0.1942
32180W        W48364  12.547   4.486   9.890 -0.0272 -0.2336 -0.0987
32181W        W48365   5.933  18.411   5.273 -0.0917  0.0564  0.0270
32182W        W48366  14.633  15.780   0.633 -0.2075  0.2455  0.3849
32183W        W48367   3.303  18.439   0.632 -0.0468  0.2898 -0.0556
32184W        W48368  15.040   6.784  14.668 -0.0814  0.0114 -0.0030
32185W        W48369  10.308  15.918   9.171  0.1955  0.4283  0.2495
32186W        W48370  13.520  16.895  13.712  0.3298  0.1645  0.4421
32187W        W48371  10.088   2.666   1.033  0.0415 -0.0748  0.2236
32188W        W48372   5.164   3.667   4.679  0.2957 -0.0672 -0.0513
32189W        W48373  14.510   2.514  13.192  0.3622 -0.1178 -0.1350
32190W        W48374   3.343   7.051  12.313 -0.1228 -0.3428 -0.0028
32191W        W48375   7.102  13.459  14.475 -0.2343  0.3293 -0.2623
32192W        W48376   5.305  12.545   0.668 -0.0954 -0.1793 -0.4633
32193W        W48377  10.518  11.165   0.224  0.1378  0.2852 -0.0736
32194W        W48378   8.579  16.888   4.677  0.0536 -0.2356 -0.1742
32195W        W48379  11.432  19.262  11.680 -0.0238  0.0730  0.0874
32196W        W48380  11.572  17.896   5.301 -0.1015  0.3233 -0.0211
32197W        W48381  16.548  10.025  10.732  0.0192  0.1124 -0.1437
32198W        W48382  13.439  14.742  13.640 -0.1693 -0.0106 -0.1932
32199W        W48383   0.676   0.139  12.217  0.2730  0.1875  0.1472
32200W        W48384  11.196  15.384  10.756  0.1297 -0.0042 -0.0359
32201W        W48385   1.165   8.131   4.759  0.1184 -0.1247 -0.0957
32202W        W48386   6.767   0.869   4.334  0.0237  0.0635  0.0925
32203W        W48387   9.694  18.374   9.984  0.3282  0.3351  0.0440
32204W        W48388  15.415  12.179  13.285 -0.1824 -0.0222 -0.1494
32205W        W48389   7.970  18.170  13.858  0.2408  0.2301  0.0584
32206W        W48390   7.719  17.955   2.296 -0.0184  0.0462 -0.2784
32207W        W48391  12.982   3.046  14.777  0.0696 -0.1851  0.0318
32208W        W48392   7.298   8.495   1.307 -0.0012  0.2713 -0.1649
32209W        W48393  18.615   0.384   4.526 -0.0468 -0.1728 -0.0427
32210W        W48394  12.902  16.977   2.009 -0.0526  0.4004 -0.0715
32211W        W48395  17.924   3.189  12.299  0.0425  0.0336 -0.2717
32212W        W48396   0.996  18.423   1.115 -0.4471  0.1587 -0.1210
32213W        W48397   6.705   9.132  12.786 -0.0799  0.0642  0.0783
32214W        W48398   2.790   7.320   0.410  0.0824 -0.1231 -0.3139
32215W        W48399  16.509   7.349  13.988  0.2030  0.0225  0.0640
32216W        W48400  16.451   1.715  13.701 -0.0046  0.0515  0.3353
32217W        W48401   1.471  14.897   0.118  0.0344 -0.1711 -0.1143
32218W        W48402   4.926  17.914   0.825  0.1034 -0.0897 -0.0848
32219W        W48403  12.680  12.779   1.449 -0.0924 -0.0893  0.1527
32220W        W48404   5.188  12.368   9.985 -0.1502 -0.1096  0.2110
32221W        W48405   1.168   2.842   3.738  0.0296  0.0736 -0.0831
32222W        W48406  19.043  13.102   4.800  0.3539  0.3107  0.0559
32223W        W48407   9.628  13.236   1.685  0.1314  0.0645 -0.0122
32224W        W48408  10.691  19.112   0.865 -0.1899 -0.0811 -0.3033
32225W        W48409   4.588  15.572  14.301  0.0404 -0.3639  0.1383
32226W        W48410   0.308   8.338   0.471  0.0390 -0.0149 -0.2381
32227W        W48411  10.916   5.773   4.906 -0.0304  0.1611 -0.0912
32228W        W48412   3.059  11.711   4.440 -0.0974  0.0742 -0.2160
32229W        W48413   9.715  15.916  12.791 -0.1378  0.0634 -0.0810
32230W        W48414  13.408  12.778  12.299  0.1699 -0.1624 -0.0380
32231W        W48415  11.161   1.997  13.856 -0.0548  0.3117  0.3639
32232W        W48416  12.169   1.988   2.203  0.2122  0.5581  0.1337
32233W        W48417   7.235   6.336  13.961  0.0078  0.1050  0.2751
32234W        W48418  10.066  10.630   2.577  0.1845 -0.4127 -0.0786
32235W        W48419  18.460   5.313   1.649 -0.1506  0.0916 -0.2061
32236W        W48420  16.047  12.813   2.286  0.3107 -0.0274  0.0597
32237W        W48421  10.209  12.226  13.059  0.1827 -0.3940  0.0130
32238W        W48422  17.265  16.985   2.951  0.0276 -0.0012  0.1998
32239W        W48423   8.615   8.203  12.547  0.1251 -0.3558 -0.0338
32240W        W48424   0.591   8.806  14.068  0.4168  0.3925 -0.1747
32241W        W48425   0.504  17.985  11.716  0.1562 -0.0711 -0.0301
32242W        W48426   0.775   6.190   3.998  0.0674 -0.1107  0.0945
32243W        W48427   8.219  19.074   4.400 -0.1150 -0.1804  0.0389
32244W        W48428  11.493   7.739  12.569 -0.1775 -0.2202 -0.3336
32245W        W48429  12.860   2.167  13.607  0.2913 -0.0227  0.3668
32246W        W48430  14.553  12.315   3.030  0.1839  0.0205  0.2917
32247W        W48431   6.707  14.888   0.387  0.0003  0.0968 -0.0589
32248W        W48432  10.546  18.261  14.174  0.1996 -0.1169  0.0507
32249W        W48433  11.917  17.083   1.095 -0.0340  0.2717 -0.0737
32250W        W48434   3.003  14.624   0.721  0.0387  0.1806 -0.2850
32251W        W48435  13.757   9.486   4.818 -0.0839 -0.0017 -0.0909
32252W        W48436  12.552   3.586   0.949 -0.0340  0.1277  0.1790
32253W        W48437   0.133  18.533  13.415 -0.1065 -0.2497 -0.1222
32254W        W48438  12.713   6.751   3.277 -0.2694  0.1518  0.2325
32255W        W48439   4.449   6.305   1.024  0.0745 -0.4426  0.1892
32256W        W48440  12.010  14.258  13.165  0.1282 -0.2049 -0.1167
32257W        W48441  13.026   1.468  10.676 -0.0788  0.1100 -0.0813
32258W        W48442  12.629  17.684   2.901 -0.0522 -0.2224  0.3989
32259W        W48443  15.795  18.329  11.667 -0.0128  0.1948 -0.1642
32260W        W48444   9.586  13.735   1.897 -0.0080  0.0111 -0.0020
32261W        W48445   3.506   8.403  12.976  0.0924  0.0669 -0.1420
32262W        W48446  12.062   3.959   2.817  0.2704  0.1644  0.3073
32263W        W48447  12.977  12.228  10.500  0.0540  0.2330 -0.1170
32264W        W48448  10.640  12.425  12.464  0.1123  0.0629  0.0046
32265W        W48449   5.741  18.403   4.520 -0.0790 -0.0192 -0.0443
32266W        W48450   2.856  11.344   2.472  0.4718 -0.0466 -0.0403
32267W        W48451  14.508  13.661   9.238  0.1804  0.1296 -0.0012
32268W        W48452  13.004   7.701   0.910  0.0817 -0.1018  0.1637
32269W        W48453  13.065   0.490  13.358 -0.0792 -0.0128 -0.1555
32270W        W48454  17.290  18.976   3.634 -0.0515  0.1577 -0.5686
32271W        W48455  13.458  16.118   0.977 -0.0188 -0.0423 -0.0306
32272W        W48456  16.739   1.571  12.877 -0.1389  0.1958 -0.2315
32273W        W48457  13.610  15.155   0.853  0.0568  0.0420  0.2087
32274W        W48458   5.629  11.273   4.893 -0.3177 -0.1110  0.0630
32275W        W48459   6.939   1.352  13.961 -0.3192 -0.2305 -0.1459
32276W        W48460   4.522   1.702   3.561  0.0354  0.1475  0.4144
32277W        W48461   8.356  18.712   2.163  0.5764  0.1876 -0.0634
32278W        W48462   9.225   2.123   0.901  0.2435  0.1285 -0.0914
32279W        W48463  11.352   4.225  10.717 -0.3670  0.0075  0.2035
32280W        W48464  10.135  17.362  11.871  0.3458 -0.0805 -0.2234
32281W        W48465  14.255   1.779   9.693 -0.4446  0.0431 -0.0931
32282W        W48466  14.635  13.259  10.012  0.2833 -0.1184  0.2469
32283W        W48467  12.086  10.480  10.044 -0.0410  0.0358 -0.2094
32284W        W48468   6.494   6.080  13.446  0.0362  0.1362 -0.0327
32285W        W48469  16.384  17.378   1.269 -0.1479  0.1829 -0.0783
32286W        W48470   6.767  10.385  12.809 -0.1195  0.2037 -0.0917
32287W        W48471   4.103  10.249   4.398 -0.1325  0.0262 -0.1850
32288W        W48472  19.314  11.397   4.116  0.0753 -0.1310  0.1189
32289W        W48473  16.478  14.295   4.572 -0.0343  0.1393 -0.4082
32290W        W48474   7.362  16.751  11.808  0.2357 -0.1052  0.3317
32291W        W48475   2.173  12.548   1.457 -0.1307  0.0715 -0.2745
32292W        W48476  17.192  18.360  11.310 -0.1987  0.1978  0.0766
32293W        W48477  17.748   9.813  12.497 -0.0291  0.2514 -0.0044
32294W        W48478  16.332  15.453   4.526  0.0756  0.0186 -0.0096
32295W        W48479   6.635   6.731   3.301 -0.0799 -0.1047  0.1745
32296W        W48480  15.657  13.823  11.390 -0.1055  0.0282  0.2047
32297W        W48481  10.180   0.456  12.674 -0.2505  0.0382  0.0587
32298W        W48482   4.928   4.005  12.503  0.0399 -0.1663  0.1374
32299W        W48483   9.303  14.876   4.175 -0.1556  0.0068  0.1436
32300W        W48484   0.717   7.129   0.205  0.3724 -0.0352  0.1547
32301W        W48485  17.098  11.201   2.652  0.1473 -0.2251  0.1167
32302W        W48486   3.297   7.360  13.271 -0.1214 -0.0388 -0.3384
32303W        W48487   4.230  12.729   1.251 -0.1510  0.0188 -0.1819
32304W        W48488   3.153   6.398   0.545  0.3511 -0.3218  0.1567
32305W        W48489  10.173   0.991  14.060  0.2194  0.2338  0.1032
32306W        W48490  11.777  18.939   1.218 -0.0466  0.1393 -0.0072
32307W        W48491  15.557  12.269  10.670  0.1455  0.0776  0.1547
32308W        W48492  11.685  19.273   1.697  0.2155 -0.0151 -0.5042
32309W        W48493   6.173  18.991  13.509  0.0591 -0.2882 -0.2440
32310W        W48494  15.422   3.213   3.664  0.2896 -0.0029  0.4385
32311W        W48495   9.364   2.557   9.947 -0.3144 -0.1788  0.1523
32312W        W48496  14.684  12.289  12.540  0.0283 -0.0062 -0.3708
32313W        W48497  10.572  10.206   0.447  0.1471  0.1476  0.0978
32314W        W48498  14.585  10.597   4.471 -0.1003 -0.0347 -0.0990
32315W        W48499   4.498   4.122  14.230  0.2577 -0.0806  0.0188
32316W        W48500   2.672   0.572   4.056 -0.3071 -0.2575  0.0349
32317W        W48501  15.101   7.915   9.613  0.0607 -0.3053  0.2500
32318W        W48502   8.670  18.867  12.435 -0.4145  0.0558  0.0393
32319W        W48503   7.892   4.487   4.766 -0.0078 -0.2216  0.2099
32320W        W48504   4.486   2.943  11.144  0.0210  0.1208 -0.0535
32321W        W48505   8.623  17.084   3.253 -0.0331  0.1960  0.1656
32322W        W48506   5.708  15.805   1.484 -0.2182 -0.0655  0.3897
32323W        W48507  18.097   7.458  12.410  0.0600 -0.0937  0.2232
32324W        W48508  11.749   2.380   1.168  0.1562 -0.0167  0.0252
32325W        W48509  14.470  18.188   4.293 -0.0561 -0.1707  0.2631
32326W        W48510   7.839   8.729   1.907  0.2059 -0.2061  0.1442
32327W        W48511  10.721  17.723   2.424  0.1474 -0.1366 -0.0916
32328W        W48512   2.588   3.455  12.331  0.2627  0.1398  0.0978
32329W        W48513  10.838  17.797  11.808  0.0912  0.0769 -0.1660
32330W        W48514  15.484   9.997  10.567 -0.0454 -0.0430 -0.0825
32331W        W48515   0.101   7.144   1.178  0.3127  0.2355 -0.1336
32332W        W48516   4.750   9.404   4.419 -0.1446  0.1293 -0.4127
32333W        W48517  11.681   1.266  13.221 -0.5024 -0.1224  0.0793
32334W        W48518   0.605   2.621  12.086  0.1657 -0.0493 -0.4104
32335W        W48519  18.000  18.675  12.407 -0.1223  0.2313 -0.0001
32336W        W48520   1.695   7.961  13.339  0.1025 -0.0726 -0.1679
32337W        W48521  12.327   8.365   0.182  0.1030  0.0547 -0.1641
32338W        W48522  13.602   8.112   4.633  0.2394 -0.1448 -0.1127
32339W        W48523  14.899  19.111  10.210 -0.0258  0.0182 -0.1243
32340W        W48524  11.934   9.193   2.463 -0.0345  0.1763 -0.0124
32341W        W48525  13.624  10.872   2.859  0.2711  0.2338  0.0980
32342W        W48526   5.150  14.677   1.836  0.0018  0.0368 -0.1560
32343W        W48527   1.879  18.767  11.362 -0.0217  0.1595  0.2517
32344W        W48528  18.177  18.932  13.252  0.3240  0.1613  0.0126
32345W        W48529   1.558  18.868   4.374  0.1009  0.0606 -0.1260
32346W        W48530   6.051   8.553   4.882  0.0155  0.3367 -0.2180
32347W        W48531   6.884   5.851   2.241 -0.1083  0.1454  0.3506
32348W        W48532   8.864   8.691  14.117  0.0957 -0.2488 -0.1926
32349W        W48533  13.216   4.638   2.868 -0.0383 -0.1564 -0.3070
32350W        W48534   6.805  17.647   1.292 -0.2943 -0.0547 -0.2938
32351W        W48535   8.870  14.682   0.378 -0.0977 -0.2696 -0.0889
32352W        W48536  15.681   5.223  14.940  0.0093 -0.0162  0.0098
32353W        W48537  13.554   5.610  12.256  0.0448 -0.5807  0.1238
32354W        W48538   0.030  14.935   3.493  0.1603  0.0540  0.0335
32355W        W48539   0.368   0.221   0.249 -0.2143  0.2446  0.1520
32356W        W48540  17.535  14.972   3.023 -0.0181  0.1062  0.1190
32357W        W48541   8.662  15.451   1.496  0.2237 -0.2474 -0.3586
32358W        W48542   8.079   5.305  11.744  0.0935 -0.3716 -0.0958
32359W        W48543  10.930   8.846   2.733 -0.1426 -0.0014 -0.3811
32360W        W48544  14.010  17.795  11.601  0.1645  0.0109  0.1007
32361W        W48545   6.930   6.924   2.842  0.1948  0.0449  0.5158
32362W        W48546  11.293  10.666   1.270 -0.2412 -0.1800 -0.0640
32363W        W48547  18.304  18.993  11.633  0.3296  0.1443 -0.4166
32364W        W48548   8.766  13.795  11.542 -0.2077 -0.0502  0.3951
32365W        W48549  17.141  17.628   0.568  0.0564 -0.3106 -0.1171
32366W        W48550   5.892   9.021  11.399 -0.1574  0.0786 -0.1501
32367W        W48551  13.049  16.223  12.255  0.3081 -0.0865  0.3289
32368W        W48552   1.365   4.285  12.273 -0.1156 -0.2376 -0.1669
32369W        W48553  17.237  12.259   2.804 -0.0077 -0.0372 -0.2129
32370W        W48554   2.556  14.371  14.315  0.4282 -0.0347  0.2975
32371W        W48555   1.893   6.372  10.289  0.1893  0.2399 -0.2118
32372W        W48556  19.281   5.812   2.560 -0.2491  0.1458 -0.2265
32373W        W48557  14.403  12.159  12.962 -0.0399  0.0463 -0.1638
32374W        W48558   9.764   8.721   0.822 -0.0022 -0.2678 -0.0982
32375W        W48559   0.927   8.546   4.542 -0.2330  0.1808  0.3148
32376W        W48560   1.331  17.710  11.087  0.1898 -0.1192  0.2457
32377ION     NA48561   5.284   9.321   0.844  0.0119 -0.0430 -0.0904
32378ION     NA48562   0.801  13.495   9.926  0.1370 -0.0709  0.0337
32379ION     NA48563  13.555   9.479   2.504  0.2898  0.1320 -0.0699
32380ION     NA48564  14.168  12.965   9.207  0.1409  0.3038  0.1616
32381ION     NA48565  12.418   0.764  10.073 -0.0305  0.2592 -0.1605
32382ION     NA48566  14.701   0.556   3.560  0.3038 -0.1087  0.0678
32383ION     NA48567  11.420  19.064   9.366 -0.1007  0.0690 -0.0529
32384ION     NA48568  18.652   4.239  14.616  0.1595  0.1776 -0.1187
32385ION     NA48569   4.922   1.749  11.628 -0.1244  0.0747  0.1191
32386ION     NA48570  12.781   7.007   9.195 -0.0383  0.3114 -0.0290
32387ION     NA48571  12.975   1.707   9.537  0.0639  0.0885 -0.2761
32388ION     NA48572  12.345  12.749   4.340  0.2549 -0.3050  0.0831
32389ION     NA48573   9.616  18.336   9.457 -0.1818  0.1565 -0.1583
32390ION     NA48574   2.564   0.897  14.134  0.3015  0.1125 -0.2764
32391ION     NA48575  14.803   8.383   9.703 -0.0779  0.1304  0.1030
32392ION     NA48576   7.238   6.292   9.871 -0.0407  0.2884  0.0412
32393ION     NA48577  18.507  13.078  10.593 -0.1503  0.1041 -0.0262
32394ION     NA48578   1.248   8.814   2.176 -0.0379 -0.5537  0.0011
32395ION     NA48579   7.331  15.730   0.378  0.1387  0.0688 -0.3216
32396ION     NA48580   4.667  10.849  10.895  0.2301 -0.0009 -0.2068
32397ION     NA48581   3.098  14.968   9.688 -0.0670  0.3651 -0.0257
32398ION     NA48582   6.317  16.750  14.938 -0.2072  0.3220  0.0639
32399ION     NA48583   3.524  14.995  10.043  0.0285 -0.2111  0.0813
32400ION     NA48584  10.362   8.964   5.339  0.0234 -0.2637 -0.0492
32401ION     NA48585   2.505  14.397   0.802 -0.1983  0.1030 -0.0847
32402ION     NA48586   6.937  17.118   4.115 -0.1821  0.1988 -0.0269
32403ION     NA48587   5.493  18.754   9.325 -0.2539 -0.0987  0.1385
32404ION     NA48588   6.896  18.124  10.293  0.0484 -0.0443 -0.1127
32405ION     NA48589  13.441   8.433   5.066  0.1686 -0.0803 -0.0501
32406ION     NA48590   2.900  16.994   4.934 -0.0189 -0.3820  0.0465
32407ION     NA48591   8.455   1.420   5.011  0.0196  0.1355 -0.2411
32408ION     NA48592  11.036  10.654  10.879  0.0337 -0.3415  0.1365
32409ION     NA48593   1.138  16.876  12.274 -0.0883 -0.3508  0.1054
32410ION     NA48594   4.060  17.197   2.669  0.0871 -0.2783 -0.0504
32411ION     NA48595   2.843  18.466   1.816 -0.0483 -0.1160 -0.0122
32412ION     NA48596   5.828   1.729   9.792 -0.0860  0.0242  0.3973
32413ION     NA48597  10.149   8.481  10.202 -0.2763  0.0048  0.2362
32414ION     NA48598  11.011   4.293   4.772  0.2393  0.2595 -0.3004
32415ION     NA48599  15.484  15.162  10.010  0.0669 -0.0877 -0.0601
32416ION     NA48600   8.252  15.547   2.898 -0.0938 -0.4322 -0.0696
32417ION     NA48601  18.936   0.278   2.183  0.1436  0.2258  0.0374
32418ION     NA48602  17.524   0.199   9.588  0.0697 -0.3049  0.3340
32419ION     NA48603  13.486   0.641   9.338 -0.4039 -0.1773  0.0179
32420ION     NA48604   4.609   3.172  14.877  0.0504 -0.1190  0.0484
32421ION     NA48605  12.345   1.942  13.822 -0.1821 -0.0527 -0.2440
32422ION     NA48606  15.577  18.329  11.203  0.1201 -0.0208  0.1829
32423ION     NA48607   3.551  10.759  10.327 -0.0224  0.2423  0.0956
32424ION     NA48608  11.142  17.669   3.659  0.0961 -0.1213  0.3300
32425ION     NA48609  17.515   4.274   9.597 -0.1801 -0.1861  0.3299
32426ION     NA48610  15.684  15.502   9.226  0.4206  0.0012 -0.0920
32427ION     NA48611  12.288   1.260   9.286  0.2836 -0.0477 -0.2820
32428ION     NA48612  10.480  17.856   3.701 -0.2353  0.0144  0.0618
32429ION     NA48613  14.229  14.711   3.365 -0.1548  0.2058 -0.1806
32430ION     NA48614   0.943  11.629  10.182  0.1496  0.1308 -0.0313
32431ION     NA48615  12.758   2.899   1.584  0.1139  0.0438  0.0121
32432ION     NA48616  10.192  13.113   0.674  0.3043 -0.2194  0.0537
32433ION     NA48617  17.800   8.326   9.842 -0.0555 -0.0984 -0.2429
32434ION     NA48618  12.393   2.477   4.975  0.0164 -0.2652  0.0812
32435ION     NA48619  17.551  16.944   9.344 -0.0953  0.1369  0.1481
32436ION     NA48620  11.148  17.481   9.501  0.0375 -0.3258 -0.2345
32437ION     NA48621   1.471  10.057   2.457 -0.0097 -0.0541 -0.0642
32438ION     NA48622   1.591   9.732  10.362 -0.0585  0.0234  0.1734
32439ION     NA48623  15.493   3.520   2.398 -0.0619  0.1016 -0.1541
32440ION     NA48624   5.073  14.704   3.581 -0.0156 -0.0410  0.1412
32441ION     NA48625   7.180  19.216   9.340  0.4527 -0.0188  0.5038
32442ION     NA48626   1.474  14.102   9.872 -0.1091  0.0423 -0.0146
32443ION     NA48627   4.994  14.249   5.790 -0.1490 -0.0994  0.0902
32444ION     NA48628   8.410  15.069   9.377 -0.1844 -0.1153 -0.3335
32445ION     NA48629  12.763   2.848   9.473 -0.1878  0.2158  0.4128
32446ION     NA48630  14.875   4.437   9.204 -0.1564 -0.1781 -0.1306
32447ION     NA48631  15.108  13.658   4.040 -0.0464  0.4499  0.0943
32448ION     NA48632  12.546  11.247   9.519  0.1264  0.1656  0.0233
32449ION     NA48633  11.016   8.296  13.411  0.1445  0.0494  0.2051
32450ION     NA48634   3.157  13.970   2.327  0.1402  0.0158 -0.1753
32451ION     NA48635  10.949  10.151   5.110  0.3096 -0.2197 -0.1806
32452ION     NA48636  15.759  10.410  10.818  0.1708  0.2094  0.2671
32453ION     NA48637   0.975  19.388   5.094  0.1134  0.3446  0.0852
32454ION     NA48638   6.630   9.530  10.114  0.1235  0.2859 -0.2021
32455ION     NA48639   3.389   0.512  12.089  0.4359  0.2794  0.2967
32456ION     NA48640   3.219  16.401   1.053 -0.0879 -0.1384 -0.0372
32457ION     NA48641   9.832   0.311   4.749 -0.1014 -0.0999  0.3226
32458ION     NA48642   3.345   3.849  14.433  0.0160 -0.0663  0.1053
32459ION     NA48643   9.273  12.674   9.725 -0.0397  0.1598 -0.0934
32460ION     NA48644  10.823  11.015   9.240 -0.2783  0.0929 -0.4682
32461ION     NA48645  10.007  11.998   9.565 -0.0033  0.1987 -0.0515
32462ION     NA48646   7.124   2.577  14.309 -0.2441 -0.1954 -0.1377
32463ION     NA48647  14.149   0.829  14.523 -0.0061 -0.1725 -0.3668
32464ION     NA48648   9.092   3.700   3.491  0.0861  0.7139  0.1775
32465ION     NA48649   7.701  11.068   5.799 -0.1672 -0.1290  0.0806
32466ION     NA48650   0.369   6.347   4.354  0.1892  0.2197  0.3500
32467ION     NA48651   4.886  15.912   3.051 -0.1953 -0.4045 -0.1705
32468ION     NA48652   2.137   8.483  10.958  0.0858 -0.0274 -0.0422
32469ION     NA48653  19.191   1.014   5.081  0.1472 -0.1321 -0.0903
32470ION     NA48654   7.240   5.672  10.439  0.1760 -0.1486  0.0041
32471ION     NA48655  12.385  17.484   9.520 -0.1729 -0.0164 -0.0783
32472ION     NA48656   2.195  10.419  10.541  0.0260  0.1114 -0.1292
32473ION     NA48657   4.536   9.677   0.393 -0.1142 -0.2593 -0.2409
32474ION     NA48658  13.924  15.958   4.902 -0.1512  0.1161  0.4637
32475ION     NA48659   3.102   8.498   2.039 -0.0500 -0.0028  0.0675
32476ION     NA48660  11.504  15.259   9.655 -0.0094  0.2019 -0.0349
32477ION     NA48661  13.085  13.677   9.672  0.3676  0.2797  0.2048
32478ION     NA48662   7.770   8.363   3.453 -0.0812 -0.1056 -0.0938
32479ION     NA48663   3.344  17.689  10.404 -0.2910 -0.1986  0.0341
32480ION     NA48664  12.956   3.314   9.619  0.0941 -0.0117 -0.1197
32481ION     NA48665   0.507  17.688   4.944 -0.3724  0.1454  0.1430
32482ION     NA48666  18.537  12.328  12.516  0.3111  0.3255 -0.0069
32483ION     NA48667  11.913   7.229   9.071 -0.1497  0.2438 -0.2378
32484ION     NA48668   9.260   6.507   9.804  0.3340 -0.0974 -0.1638
32485ION     NA48669  10.574   9.015   1.895  0.0548 -0.1634  0.1393
32486ION     NA48670  10.491  17.033   4.839  0.0614  0.3315  0.0206
32487ION     NA48671  12.602  11.455  13.773  0.1186 -0.0340  0.1978
32488ION     NA48672  17.946   8.067  14.940  0.1563  0.0171 -0.1432
32489ION     NA48673  16.024   7.829   3.216 -0.0469  0.3670  0.0603
32490ION     NA48674   3.896  15.569   9.553 -0.2146 -0.0284  0.1107
32491ION     NA48675   7.371  16.621   1.005  0.2578 -0.1940 -0.0244
32492ION     NA48676   2.431   1.005   5.361  0.0476  0.0595  0.1466
32493ION     NA48677  16.067   9.361  11.707  0.0248 -0.1104 -0.0467
32494ION     NA48678   8.818  15.883   9.398  0.0192  0.3794 -0.2931
32495ION     NA48679   9.505   5.188   9.773  0.2970 -0.0457 -0.2680
32496ION     NA48680  14.177   9.269   9.568  0.2646 -0.0508 -0.0347
32497ION     NA48681   6.123   0.618  14.941  0.1892 -0.2070  0.4778
32498ION     NA48682   1.026   8.247  10.310 -0.4118  0.0043 -0.1232
32499ION     NA48683   2.521  12.579  10.270  0.1137  0.1325  0.0449
32500ION     NA48684   2.710   7.834  10.462  0.2802 -0.0810  0.0661
32501ION     NA48685  15.424   8.823   9.823  0.0215 -0.2194  0.1025
32502ION     NA48686  16.457  15.379   8.950 -0.2206  0.0284 -0.2220
32503ION     NA48687   7.464   6.884   5.578  0.2870 -0.2058  0.2201
32504ION     NA48688  12.326   7.884   9.359  0.0195  0.5788 -0.1027
32505ION     NA48689   3.612   3.978  10.435  0.4281 -0.0347  0.3908
32506ION     NA48690   5.403   5.214  10.178  0.4560  0.1920 -0.1490
32507ION     NA48691   7.035  16.035  13.300  0.0706 -0.1182  0.0133
32508ION     NA48692   6.164  13.642   9.840 -0.0447 -0.2508 -0.0414
32509ION     NA48693  10.807   0.223   9.159 -0.1434 -0.1939  0.1210
32510ION     NA48694   9.132   3.304   9.425 -0.0701  0.0331 -0.2002
32511ION     NA48695   0.061   1.397   9.888 -0.1419  0.2647  0.2373
32512ION     NA48696  16.014  15.764  11.308 -0.0246  0.2247  0.0570
32513ION     NA48697  14.049  13.690   9.423  0.3384 -0.1306 -0.1218
32514ION     NA48698   8.029  18.731   9.245 -0.2793 -0.2208 -0.1426
32515ION     NA48699   1.780  16.744   9.747  0.3174  0.1677  0.3059
32516ION     NA48700   7.196   8.409  10.926 -0.1335  0.1543  0.2569
32517ION     NA48701  16.767   4.562   9.830 -0.2485  0.2625  0.0611
32518ION     NA48702   1.462   7.316   5.414  0.3975  0.2911 -0.2757
32519ION     NA48703  15.949  17.299  13.054 -0.0266 -0.2311  0.0170
32520ION     NA48704  14.671  18.312   9.375 -0.0827 -0.0250  0.1679
32521ION     NA48705   3.686  19.049  10.395 -0.3116  0.0374  0.1072
32522ION     NA48706  18.298  14.455   2.353  0.1772  0.0645  0.1772
32523ION     NA48707  18.461  18.157   9.485  0.0641 -0.4261 -0.0746
32524ION     NA48708   3.524   7.677  14.000 -0.2649 -0.3570  0.1421
32525ION     NA48709  17.646   6.550   9.371  0.2767 -0.1076  0.3309
32526ION     NA48710  10.739  11.512   9.475  0.0114  0.0230  0.1556
32527ION     NA48711   5.364   7.871  14.647  0.1909  0.0046 -0.2645
32528ION     NA48712   7.558   3.917  10.363 -0.2467 -0.0390  0.1123
32529ION     NA48713   8.884  19.253   9.357 -0.1708  0.3909  0.0041
32530ION     NA48714   4.634  17.387   5.136 -0.0498 -0.0323  0.0987
32531ION     NA48715  10.962   4.463   9.577 -0.0123  0.3168  0.1604
32532ION     NA48716   6.078   2.782  13.362 -0.0426 -0.2273 -0.1712
32533ION     NA48717  17.125   7.706  12.639 -0.1551  0.0096  0.1776
32534ION     NA48718  12.720   4.257   9.380  0.2642 -0.0615 -0.1163
32535ION     NA48719   5.677  10.577  10.321 -0.0182  0.0863 -0.4277
32536ION     NA48720  16.807  17.724   5.174 -0.1367 -0.1351 -0.0012
32537ION     NA48721   6.423  19.096  13.069  0.0516 -0.2207  0.2340
32538ION     NA48722  13.450  12.148   9.674  0.0977  0.0331  0.1991
32539ION     NA48723   4.640   5.623  10.720  0.1620  0.0625  0.0286
32540ION     NA48724  17.352   9.831   9.780 -0.0939 -0.0250 -0.0512
32541ION     NA48725   7.739   2.259   5.242 -0.2556  0.3657 -0.1271
32542ION     NA48726   9.346  14.170   9.343  0.2554 -0.2185 -0.2532
32543ION     NA48727   1.769   0.498   9.786  0.3082 -0.0166  0.0151
32544ION     NA48728   1.306  10.714  10.257 -0.0594 -0.4192 -0.2572
32545ION     NA48729  18.391  18.900   5.543  0.0140  0.6599 -0.0020
32546ION     NA48730  10.556   0.918   0.654 -0.1015 -0.2533 -0.2672
32547ION     NA48731  17.854   1.812  10.993  0.0993 -0.0320 -0.1263
32548ION     NA48732   0.872   1.772  10.276  0.5194  0.2727  0.3258
32549ION     NA48733  15.574   0.150   4.851 -0.2293 -0.1443 -0.1488
32550ION     NA48734   8.488  11.520  12.497  0.2899  0.3294 -0.2285
32551ION     NA48735  13.666  12.727  10.810 -0.1343  0.0074 -0.2369
32552ION     NA48736  16.531   5.313   9.499 -0.1217 -0.3364 -0.0334
32553ION     NA48737  16.675  16.794   4.922  0.3190  0.0445 -0.1993
32554ION     NA48738  18.768  19.217   5.294  0.2433  0.2525  0.1618
32555ION     NA48739   3.653  18.406   9.293  0.0800 -0.5048  0.0362
32556ION     NA48740   5.464   0.864   9.952 -0.2672 -0.0659  0.2315
32557ION     NA48741  15.497  10.056  11.851  0.1103 -0.1312  0.0325
32558ION     NA48742  13.317  11.409   9.316 -0.0889  0.0714  0.3386
32559ION     NA48743  16.142  13.066  10.827 -0.2991 -0.0897 -0.0199
32560ION     NA48744   7.019  12.927   1.120 -0.1281  0.0239 -0.0223
32561ION     NA48745  16.535   2.280   9.073  0.2468 -0.0771  0.1178
32562ION     NA48746   5.859   8.816  10.226  0.2354 -0.1011 -0.1144
32563ION     NA48747   4.011   6.637  11.468  0.1026 -0.3840 -0.1860
32564ION     NA48748  14.350   7.462   9.493 -0.1790 -0.1885  0.1563
32565ION     NA48749   5.292  12.002  13.062  0.0932  0.0597 -0.3752
32566ION     NA48750   5.156  19.027   0.917 -0.0119  0.2573  0.1549
32567ION     NA48751  14.743   1.840   4.248  0.4434  0.4073  0.1760
32568ION     NA48752  14.980  17.515   4.617 -0.0403 -0.2142 -0.2447
32569ION     NA48753  12.350  15.161   9.444  0.0421 -0.1182  0.0364
32570ION     NA48754   3.412   9.302   3.385  0.4661 -0.2066 -0.1223
32571ION     NA48755   5.237   9.503   4.593  0.2044 -0.1906 -0.1872
32572ION     NA48756  17.351   9.371   0.586 -0.3726 -0.0262  0.2835
32573ION     NA48757   3.544  13.293  10.162  0.2106 -0.0490  0.5052
32574ION     NA48758   7.792  11.664  10.202  0.1033 -0.1290 -0.0508
32575ION     NA48759  16.334  15.829   9.167 -0.1898 -0.2257 -0.1090
32576ION     NA48760  18.515  13.255   5.521  0.2120 -0.1576  0.0239
32577ION     NA48761  12.817  16.869   1.016  0.1481  0.1794  0.1907
32578ION     NA48762   3.047   9.976   4.125  0.0776 -0.3707 -0.2256
32579ION     NA48763   4.873  10.696   3.795  0.3254 -0.2727  0.2462
32580ION     NA48764  12.262   1.349  13.415 -0.1207  0.1818  0.0412
32581ION     NA48765  18.989  15.963  13.500 -0.3297  0.0307  0.2168
32582ION     NA48766  17.881   5.877   9.793  0.0215 -0.1396  0.3770
32583ION     NA48767   5.422   4.932  11.159 -0.0224 -0.2232  0.0272
32584ION     NA48768   3.099   9.284  10.108 -0.0559 -0.3221 -0.1232
32585ION     NA48769   5.641  15.496   9.879  0.3470  0.0476  0.1304
32586ION     NA48770   0.704   5.578  10.228 -0.0708 -0.1303 -0.0702
32587ION     NA48771  18.407   0.390   9.468 -0.0283 -0.1368 -0.0371
32588ION     NA48772  13.193  17.063   9.480  0.2685 -0.0801 -0.5210
32589ION     NA48773   6.452   3.404   9.865  0.2722  0.0150 -0.0560
32590ION     NA48774   5.357  11.536  10.594  0.0564 -0.0373 -0.1529
32591ION     NA48775  10.064  10.714   9.643 -0.0925 -0.0042  0.1555
32592ION     NA48776  11.700  19.380  14.350 -0.2620  0.3047 -0.2248
32593ION     NA48777  14.966  17.682   5.139  0.0237  0.2173 -0.0786
32594ION     NA48778   9.576   4.373   9.514 -0.0062 -0.1051 -0.2794
32595ION     NA48779  12.601  18.402  11.210  0.0193  0.0269  0.0119
32596ION     NA48780  15.063  12.920   9.178  0.1824  0.1531 -0.0026
32597ION     NA48781   7.613   9.284  10.471  0.0537 -0.4209 -0.3469
32598ION     NA48782  13.345  18.137   9.106 -0.0943 -0.2014 -0.2896
32599ION     NA48783  10.930  19.295  13.886  0.0987  0.0587 -0.0489
32600ION     NA48784  17.312   2.422   9.219  0.1527 -0.0457 -0.0869
32601ION     NA48785   7.541   1.648   9.464  0.1962  0.1395  0.0492
32602ION     NA48786  17.737   2.568  13.504  0.2073  0.1889  0.1553
32603ION     NA48787  10.652   1.530   2.264 -0.2497  0.0047 -0.1127
32604ION     NA48788   8.516  18.851   3.097 -0.1501 -0.1294 -0.1580
32605ION     NA48789   0.384  15.534  12.087 -0.1179  0.4194  0.0294
32606ION     NA48790  13.356   5.293   0.810  0.5367 -0.0011  0.0105
32607ION     NA48791   7.439  18.055   0.088  0.0859  0.0344 -0.0664
32608ION     NA48792   4.223  11.324  14.403  0.0018  0.1984  0.2504
32609ION     NA48793   1.170   4.176  10.364 -0.2137  0.0831 -0.2746
32610ION     NA48794  13.116   5.281   4.896  0.2453  0.1221 -0.0261
32611ION     NA48795   1.809  14.659  14.748 -0.0780  0.2740  0.1974
32612ION     NA48796  11.985   2.307   9.509  0.0345  0.1059  0.1772
32613ION     NA48797  18.155   5.204  10.754 -0.0322  0.4562  0.0728
32614ION     NA48798   0.985   4.812   2.544 -0.1967  0.1629 -0.2137
32615ION     NA48799   3.448  14.010  12.284 -0.1721  0.0892  0.1465
32616ION     NA48800   1.468   0.120   5.338  0.2273  0.0563  0.0551
32617ION     NA48801   3.938   4.910   5.535 -0.2411  0.0612 -0.0006
32618ION     NA48802  11.925  17.911   9.333 -0.1832 -0.0769 -0.2262
32619ION     NA48803   8.688   4.746  10.020 -0.0075  0.4434  0.1659
32620ION     NA48804   6.177  14.622   2.168 -0.0924  0.0961  0.1681
32621ION     NA48805   9.302  19.215  11.081 -0.0908  0.0916 -0.0134
32622ION     NA48806  12.478   1.651   1.309 -0.2073 -0.2937  0.0258
32623ION     NA48807  12.188   3.653   9.351  0.2713  0.0265 -0.0407
32624ION     NA48808   8.755   6.279  12.073  0.0805 -0.0118  0.0805
32625ION     NA48809   2.322   9.628  10.052 -0.0111 -0.0569  0.0342
32626ION     NA48810   3.057   2.575  10.068  0.1221  0.3163  0.0359
32627ION     NA48811   9.745   1.648   9.133  0.1163 -0.0258  0.1010
32628ION     NA48812  14.883  19.184   9.383 -0.0957 -0.2280  0.2095
32629ION     NA48813   0.701  11.292   9.792 -0.3877  0.0172 -0.0158
32630ION     NA48814   8.972   1.426   9.440 -0.2431 -0.2178  0.0719
32631ION     NA48815  15.823   6.963   9.461  0.0020 -0.1578  0.0113
32632ION     NA48816  16.828  14.060   9.326  0.2123 -0.0146 -0.1950
32633ION     NA48817   0.705   0.889   5.457  0.3367 -0.0040  0.1808
32634ION     NA48818   5.334   9.945   4.980  0.1549  0.1907 -0.0440
32635ION     NA48819  17.290   4.018   1.207 -0.2802 -0.2046  0.0433
32636ION     NA48820  18.297  10.972   5.198  0.0951 -0.0138  0.3262
32637ION     NA48821  16.050   0.844   0.852 -0.1326 -0.0817  0.2546
32638ION     NA48822  12.707  11.741  10.509 -0.2069 -0.1710  0.2874
32639ION     NA48823  18.046  13.684   9.398  0.0369 -0.2489  0.0965
32640ION     NA48824   7.703  15.973   3.750 -0.0794  0.0003  0.0739
32641ION     NA48825  17.309  14.024  14.350 -0.2428 -0.0175  0.2452
32642ION     NA48826   8.727  16.404   9.353  0.0309 -0.0586 -0.2380
32643ION     NA48827   2.480   1.098   9.920  0.0225 -0.1067 -0.2676
32644ION     NA48828  10.560  13.523   1.545 -0.1510  0.1020 -0.3881
32645ION     NA48829  13.096  12.708  13.197  0.1385 -0.0519  0.2478
32646ION     NA48830   5.856   4.182  10.089 -0.0141  0.2401  0.0273
32647ION     NA48831  13.049   4.090   3.527  0.0325  0.2364  0.0312
32648ION     NA48832  17.516   5.114  10.212 -0.2979  0.1057 -0.2610
32649ION     NA48833  15.434  10.636   5.028  0.3267 -0.1974 -0.0158
32650ION     NA48834   0.404   2.419  13.034 -0.0612  0.0177 -0.0884
32651ION     NA48835   0.799  18.935   1.409  0.3188  0.1516 -0.1707
32652ION     NA48836   4.256  13.580   4.882  0.1887 -0.2556 -0.0471
32653ION     NA48837  10.655  12.106   0.948  0.1530 -0.5820 -0.1082
32654ION     NA48838  13.906  14.982   9.747  0.1090  0.0270  0.0816
32655ION     NA48839  15.757  16.563   9.193 -0.1055  0.0051  0.1613
32656ION     NA48840  19.200   7.453   3.344  0.0607  0.0864  0.2148
32657ION     NA48841  11.918  13.477   9.683  0.5014 -0.0057  0.0810
32658ION     NA48842   0.274   3.420   9.930 -0.1082 -0.0009 -0.0659
32659ION     NA48843   5.689   1.287   4.830 -0.1974 -0.2812  0.1422
32660ION     NA48844  19.003  14.211   9.458 -0.4603  0.0509 -0.1205
32661ION     NA48845   4.810  13.254  10.044 -0.2105 -0.0362  0.2115
32662ION     NA48846   3.674   0.022   9.393  0.0594 -0.0200 -0.1633
32663ION     NA48847  15.781  10.909   9.340  0.1841 -0.0491  0.0424
32664ION     NA48848  13.589  11.035   3.413 -0.2420  0.1075  0.0049
32665ION     NA48849  18.294  11.478   4.033 -0.0155  0.4021  0.1669
32666ION     NA48850   1.511   7.824   4.518 -0.1495 -0.3383 -0.0842
32667ION     NA48851   0.229   6.138   5.606  0.0369  0.0329  0.0439
32668ION     NA48852  17.747   6.671   4.751  0.0532 -0.2188 -0.4791
32669ION     NA48853  18.243  18.004   5.368 -0.2168 -0.0159 -0.0893
32670ION     NA48854   7.399  19.085   0.299  0.0247 -0.3681 -0.1603
32671ION     NA48855  16.745  10.538   9.917 -0.0113 -0.2262 -0.0236
32672ION     NA48856   4.768  15.015   9.819 -0.0887 -0.0192  0.3515
32673ION     NA48857   0.577   2.680  10.128  0.1284 -0.2648 -0.1175
32674ION     NA48858   4.017   5.863   5.640 -0.2936 -0.0747  0.0124
32675ION     NA48859  11.167  16.768   3.891 -0.0267  0.2073  0.1558
32676ION     NA48860   1.054   1.865  13.933  0.0799  0.2608 -0.2653
32677ION     NA48861   1.862   6.509   4.595 -0.2373 -0.0403 -0.0281
32678ION     NA48862   7.429   3.587   9.800  0.1533 -0.1663  0.1634
32679ION     NA48863  13.592   2.453   9.428  0.1014 -0.1110  0.4003
32680ION     NA48864  15.950  10.441   1.631 -0.0293  0.0419 -0.0443
32681ION     NA48865   1.957  11.757  10.063 -0.0498  0.2282 -0.2745
32682ION     NA48866  14.213   6.826  13.923 -0.0744 -0.0186 -0.2042
32683ION     NA48867   6.970  11.371   0.162 -0.2050  0.0170 -0.0475
32684ION     NA48868   2.784   8.502  12.769 -0.0372 -0.0813  0.3930
32685ION     NA48869   3.638  12.482  10.335  0.0399 -0.0289 -0.0310
32686ION     NA48870  18.722  18.074  12.793 -0.2162 -0.2121 -0.0860
32687ION     NA48871  13.226   6.332   9.227  0.0177 -0.2336  0.0228
32688ION     NA48872   2.460   5.709   6.326 -0.3160 -0.1739  0.1330
32689ION     NA48873   8.386  18.606   3.963  0.1835  0.0812 -0.1894
32690ION     NA48874  10.713   2.151   9.406  0.4638 -0.0528 -0.2695
32691ION     NA48875  17.608  12.101   9.731 -0.0723  0.4302 -0.0070
32692ION     NA48876   5.870   0.544   3.910 -0.0177 -0.5322 -0.0276
32693ION     NA48877  15.683  12.650   9.176  0.1789  0.1343  0.2139
32694ION     NA48878   8.603   9.517   9.881  0.1971 -0.1248  0.1107
32695ION     NA48879  17.567   6.364  11.202  0.0883 -0.2389 -0.1153
32696ION     NA48880  19.230  10.428  10.079 -0.1695 -0.0809 -0.0394
32697ION     NA48881   5.986   5.941  10.196 -0.0844  0.3114  0.3138
32698ION     NA48882  18.604  19.363   3.893  0.1972 -0.0713 -0.1445
32699ION     NA48883   1.315   8.897   5.449 -0.0809 -0.1374  0.2162
32700ION     NA48884  14.082   4.564   9.601 -0.0952  0.0595  0.0182
32701ION     NA48885   3.621   9.349  10.194  0.1681  0.1422 -0.2406
32702ION     NA48886   0.623  13.638   5.750  0.2101  0.2173  0.0173
32703ION     NA48887  14.609  14.406  11.032 -0.1728  0.0580  0.0387
32704ION     NA48888   5.903   8.852  13.417  0.1553  0.1791 -0.2078
32705ION     NA48889   6.168  11.264  10.204 -0.0146  0.1579  0.0320
32706ION     NA48890  18.239  13.032   2.067  0.0700  0.1105  0.1057
32707ION     NA48891  17.978  10.684  10.404  0.1540 -0.2126  0.0194
32708ION     NA48892  17.767   3.969   9.343  0.1135  0.1566  0.4493
32709ION     NA48893  10.998   5.294   0.413  0.0720  0.1664  0.0604
32710ION     NA48894   4.164  16.753   9.658  0.4011 -0.2299 -0.2734
32711ION     NA48895  12.752  14.749   1.165  0.1407 -0.0895  0.0573
32712ION     NA48896  12.466  14.418   9.762 -0.5114 -0.0895  0.2235
32713ION     NA48897  11.769  12.660   1.444  0.3267 -0.0098  0.2190
32714ION     NA48898   4.677   2.991  10.199  0.2962  0.1462 -0.2556
32715ION     NA48899   5.790   6.725  14.306 -0.1441  0.0550 -0.1399
32716ION     NA48900   3.295   0.779   9.566 -0.2322 -0.1708  0.0006
32717ION     NA48901   1.206  11.278   3.292  0.1032  0.1407 -0.1212
32718ION     NA48902  10.676   1.232   9.069  0.0367  0.1565 -0.2728
32719ION     NA48903   4.351  16.938   3.887  0.0748 -0.0167  0.0420
32720ION     NA48904  19.129   8.598  10.106 -0.1057  0.0712  0.2101
32721ION     NA48905   2.161   8.981  10.005  0.2534 -0.1528  0.1498
32722ION     NA48906  15.787   9.971   2.601  0.0240 -0.0238  0.1027
32723ION     NA48907   9.336   7.851   4.416 -0.0173  0.0650  0.0461
32724ION     NA48908  14.868  11.382   9.537 -0.2929  0.0160  0.0708
32725ION     NA48909  14.529  12.694  13.763 -0.1798 -0.0629  0.1112
32726ION     NA48910   2.431  16.669   9.807 -0.1220 -0.0759 -0.2342
32727ION     NA48911  16.818   6.071   9.853  0.0136  0.4380 -0.1032
32728ION     NA48912  16.847  18.792   2.054 -0.0663  0.2607 -0.0542
32729ION     NA48913  11.738  13.592   5.093 -0.1705  0.3206 -0.2276
32730ION     NA48914   7.467  17.880   9.214 -0.0739  0.1652 -0.1836
32731ION     NA48915   9.778   0.298   9.349  0.0399  0.1601 -0.2122
32732ION     NA48916  18.014  15.324  11.694 -0.0125  0.2058  0.0861
32733ION     NA48917   7.628   4.386   9.832  0.1635 -0.0791  0.0553
32734ION     NA48918   7.739   2.993   0.659  0.2731 -0.1239  0.2874
32735ION     NA48919  13.066  11.410   1.601  0.0160 -0.4939 -0.0343
32736ION     NA48920   4.796  16.323  14.840 -0.2599  0.0966  0.0201
32737ION     NA48921  18.870   9.885   9.981 -0.1914 -0.1863 -0.2384
32738ION     NA48922   0.393   7.805  10.101  0.2411 -0.1517  0.2552
32739ION     NA48923  16.836  12.659   9.453 -0.0600  0.1093  0.1896
32740ION     NA48924   3.322   1.589   9.985  0.1123  0.0567 -0.1675
32741ION     NA48925   1.194   3.258  10.061 -0.2184  0.0221  0.1080
32742ION     NA48926  13.926  18.644  11.586  0.1615 -0.4246 -0.3628
32743ION     NA48927  16.925   3.163   9.667  0.1231 -0.2386  0.2305
32744ION     NA48928  19.378  16.725   9.596 -0.1178 -0.0837  0.0456
32745ION     NA48929   2.968  11.796  10.115  0.1382 -0.0935 -0.0417
32746ION     NA48930  12.111  19.300  12.120 -0.1181 -0.1294 -0.0427
32747ION     NA48931  10.778  14.257   1.916  0.0355 -0.3599 -0.3320
32748ION     NA48932   9.494   4.089  12.833  0.1653 -0.2225 -0.1800
32749ION     NA48933  10.038  14.685   9.494 -0.2872 -0.2017 -0.1018
32750ION     NA48934   9.085  13.780   2.254 -0.1023  0.0049  0.1569
32751ION     NA48935   6.054   9.389  11.035 -0.1224 -0.0618  0.1254
32752ION     NA48936  14.014  17.505   9.598  0.1460 -0.2887  0.2140
32753ION     NA48937  12.219  10.298   5.004 -0.3604  0.1515 -0.2278
32754ION     NA48938  15.410   1.708  11.770  0.0962 -0.1983  0.0806
32755ION     NA48939  14.412   5.220   9.401  0.1567 -0.1268  0.3289
32756ION     NA48940  15.084   2.152   9.013  0.1683  0.1226  0.2999
32757ION     NA48941  17.837   2.962   1.459  0.3078  0.1942 -0.1462
32758ION     NA48942  14.013   3.571   9.660 -0.0185  0.0741 -0.2564
32759ION     NA48943  15.687  17.979   3.668 -0.1965  0.1663 -0.4905
32760ION     NA48944  12.556  18.546   9.255 -0.2655  0.1074 -0.0165
32761ION     NA48945  18.427   6.169   9.926  0.1887  0.0634 -0.2261
32762ION     NA48946  10.459  12.207   5.109  0.2772 -0.2237 -0.0018
32763ION     NA48947   9.013  18.240  13.518  0.0068  0.1902  0.3420
32764ION     NA48948   7.181   3.171   9.330 -0.0249 -0.0196 -0.3099
32765ION     NA48949  17.921   3.847   3.474 -0.2994 -0.1091 -0.0404
32766ION     NA48950   4.144  11.239   3.336 -0.0190  0.0925 -0.2395
32767ION     NA48951   1.281   7.011  10.460 -0.0689  0.1224  0.4011
32768ION     NA48952  15.675  11.251   9.768 -0.2536  0.0401 -0.0443
32769ION     NA48953   2.196   6.998  10.611  0.1210  0.1761  0.0176
32770ION     NA48954   1.681  19.170  14.919 -0.2572  0.2338  0.1739
32771ION     NA48955   8.002   9.510  11.930 -0.0067  0.0912 -0.3648
32772ION     NA48956  13.978  10.884   4.587 -0.2743 -0.1154 -0.2970
32773ION     NA48957   3.187  10.195  10.359  0.0958  0.0419  0.0087
32774ION     NA48958   3.927  17.675   9.736  0.0302 -0.0232 -0.0093
32775ION     NA48959  18.149   9.871  10.130 -0.0523 -0.2186 -0.1375
32776ION     NA48960  18.313   4.089   4.971 -0.1177 -0.0781 -0.0275
32777ION     NA48961   7.514  16.158   9.286  0.0417  0.3821 -0.2831
32778ION     NA48962  19.352   0.381   9.487  0.0597 -0.0568  0.0588
32779ION     NA48963  12.265  10.731   0.412 -0.1335  0.1521  0.1380
32780ION     NA48964  19.242  10.278   4.906 -0.2730 -0.0297  0.0020
32781ION     NA48965  10.492  15.078   9.418  0.2695  0.2981  0.1069
32782ION     NA48966  18.220  16.399   9.639 -0.0890  0.2514 -0.0199
32783ION     NA48967   8.501  15.940  14.673 -0.0104 -0.0644  0.3148
32784ION     NA48968   2.749   6.837   1.146 -0.0454  0.2694  0.1984
32785ION     NA48969  11.895   3.226   9.182  0.0101 -0.0329  0.0538
32786ION     NA48970   6.805  12.994  10.227  0.0996 -0.0486 -0.0980
32787ION     NA48971  18.906   4.772  13.002 -0.2872 -0.4111 -0.1816
32788ION     NA48972   1.110   7.484  11.291  0.0735  0.0967  0.0979
32789ION     NA48973   7.202  10.983  14.125 -0.1808  0.2032 -0.2107
32790ION     NA48974  18.096  14.548   0.251  0.3252 -0.1643 -0.1262
32791ION     NA48975   8.172  10.911   9.967 -0.1752  0.0928  0.0481
32792ION     NA48976   1.028   0.815  10.143  0.2179 -0.0053 -0.0769
32793ION     NA48977  15.715  16.548   5.189 -0.0732 -0.2539 -0.1801
32794ION     NA48978  11.343   2.062   0.863 -0.1594 -0.4515 -0.2670
32795ION     NA48979  19.129   3.566  13.253 -0.1636  0.1279 -0.0937
32796ION     NA48980  10.219   6.093  13.283  0.0627  0.1133  0.0474
32797ION     NA48981  13.639   5.700   9.281 -0.0562 -0.0597  0.2812
32798ION     NA48982  13.421   8.474   9.903  0.2830 -0.2381 -0.0752
32799ION     NA48983  15.796   7.974   9.311 -0.3806  0.3532  0.0968
32800ION     NA48984   7.556  15.035   9.973  0.0834 -0.6515 -0.3021
32801ION     NA48985  16.651   1.110   3.698  0.1446  0.0176  0.2183
32802ION     NA48986   2.676  12.169   9.962  0.0337  0.0730 -0.0504
32803ION     NA48987   8.614   1.297  10.346  0.2167 -0.1386 -0.0531
32804ION     NA48988   6.853  16.906   9.416 -0.2358 -0.0460  0.0522
32805ION     NA48989  12.717  18.067   4.153 -0.0677  0.2275  0.2728
32806ION     NA48990  14.320  14.337   5.049  0.0010  0.2883 -0.1484
32807ION     NA48991   9.111   2.276  10.327  0.4740  0.0320 -0.3526
32808ION     NA48992  17.780  14.624   9.419  0.0211  0.2666 -0.1460
32809ION     NA48993  11.308  10.090   4.582 -0.1731 -0.2417 -0.0858
32810ION     NA48994  18.660   0.733   2.219 -0.0195  0.2601 -0.2337
32811ION     NA48995  11.732   8.611   9.422  0.1221  0.0592  0.0439
32812ION     NA48996  16.800  11.444   5.704 -0.2379 -0.1477 -0.2085
32813ION     NA48997  17.882  16.569  10.495 -0.1730  0.1509 -0.2332
32814ION     NA48998   3.571  17.346   9.592 -0.0582 -0.1445  0.0217
32815ION     NA48999   3.395   4.811  10.243  0.0541  0.1967  0.1667
32816ION     NA49000  17.786   1.644   9.285  0.3099 -0.2063 -0.2153
32817ION     NA49001  15.573   9.706   9.374  0.0405 -0.2943  0.0020
32818ION     NA49002   3.897  15.073   9.554 -0.0576  0.2166 -0.2304
32819ION     NA49003  15.605   2.596   8.999 -0.2469  0.0441  0.1433
32820ION     NA49004   0.989  14.946   9.875  0.4366 -0.3995  0.0653
32821ION     NA49005   4.319   2.094   9.921 -0.1130  0.0133 -0.0263
32822ION     NA49006   5.052   6.250  10.080  0.0285 -0.0402 -0.2253
32823ION     NA49007   4.836  16.130   9.957 -0.0313 -0.3503 -0.1131
32824ION     NA49008   2.139   7.822   1.541  0.1083 -0.2030 -0.1363
32825ION     NA49009  14.622  12.219   9.395  0.3542 -0.4447 -0.0401
32826ION     NA49010   9.674   7.383   9.930 -0.3334 -0.1458  0.0755
32827ION     NA49011   4.203   8.441  10.305  0.3797 -0.0308 -0.0434
32828ION     NA49012  13.587   6.270   3.385 -0.1310 -0.0606 -0.1032
32829ION     NA49013   0.480  10.137  10.058 -0.1911  0.0821 -0.0693
32830ION     NA49014   1.922  18.556   0.566  0.1539 -0.1763  0.2166
32831ION     NA49015  12.868   5.338   2.049  0.1253 -0.1205 -0.1043
32832ION     NA49016  10.839   9.686   9.196 -0.2573  0.3467 -0.2314
32833ION     NA49017  10.511  12.672  12.940  0.2201  0.0666  0.3376
32834ION     NA49018  18.616   5.990  12.664  0.1119  0.1891  0.1609
32835ION     NA49019  14.247   1.646   9.154  0.0547 -0.1213  0.0106
32836ION     NA49020   3.300   3.608   5.963 -0.1958 -0.1447 -0.0618
32837ION     NA49021  12.044  16.102   9.666  0.2045  0.0207 -0.1635
32838ION     NA49022  17.878   0.719   0.412  0.2160  0.0023  0.0831
32839ION     NA49023   4.821  10.858  12.409  0.0402 -0.4301  0.0574
32840ION     NA49024  12.680  10.200   9.448 -0.3741  0.2629 -0.2511
32841ION     NA49025   9.099  11.613   9.672 -0.1865 -0.0322  0.1009
32842ION     NA49026  12.661   4.596   2.742  0.0591 -0.0783 -0.1218
32843ION     NA49027  17.640   9.323   5.636  0.2538 -0.2556  0.1267
32844ION     NA49028  18.827  17.860   9.257  0.0206 -0.1131 -0.1194
32845ION     NA49029  16.589  14.922   9.187  0.0312  0.1125 -0.1865
32846ION     NA49030   3.969  13.493   5.778 -0.4723  0.2530  0.0311
32847ION     NA49031  10.637  11.885   4.822 -0.1258 -0.0936 -0.1351
32848ION     NA49032  17.110  18.741   9.322 -0.0024  0.0037 -0.0647
32849ION     NA49033  16.286   7.817  14.747  0.1552 -0.1065  0.5769
32850ION     NA49034   0.119  18.864   9.561 -0.1685  0.1966  0.1004
32851ION     NA49035  16.678  10.961   9.564  0.1231 -0.1265 -0.1764
32852ION     NA49036  10.110   4.135   5.271 -0.0332  0.1783  0.0614
32853ION     NA49037  14.400   8.929   5.179  0.1530 -0.0528 -0.1262
32854ION     NA49038   1.649   2.429  10.129 -0.0746  0.0896 -0.0540
32855ION     NA49039  18.846   3.530  10.054  0.2126  0.0485  0.1126
32856ION     NA49040   1.271   5.657  10.350 -0.1328  0.0637  0.4425
32857ION     NA49041  19.313   8.640   5.311  0.1142 -0.0131 -0.0169
32858ION     NA49042   8.387   8.185   4.255  0.2969  0.4011  0.1777
32859ION     NA49043   6.580  10.461  10.283 -0.2744  0.3049  0.3439
32860ION     NA49044   6.189  14.591   9.577  0.2066 -0.0335  0.2709
32861ION     NA49045   6.974   2.691   4.235 -0.2731  0.2133  0.5085
32862ION     NA49046   6.846   8.716  10.128 -0.0118  0.0080  0.1835
32863ION     NA49047   2.620  19.019  14.499 -0.0940 -0.2444  0.1070
32864ION     NA49048   4.659  12.917   5.826 -0.1129 -0.0468 -0.1739
32865ION     NA49049   7.273   0.775   9.464  0.1421 -0.0705  0.0750
32866ION     NA49050  17.668  18.636   9.362 -0.1644 -0.4454  0.2251
32867ION     NA49051   5.543  16.846   9.854  0.0591  0.0172 -0.3378
32868ION     NA49052  18.398   8.607  13.023  0.2105  0.2037  0.3209
32869ION     NA49053  17.902  13.025   1.115 -0.0311 -0.3334 -0.1796
32870ION     NA49054   6.687  15.930   9.299  0.4931 -0.1777  0.1040
32871ION     NA49055   3.359   5.573  10.586  0.0874  0.3358 -0.0722
32872ION     NA49056  19.353  18.857   5.195  0.0656  0.0216 -0.2448
32873ION     NA49057   4.555   7.156  10.412  0.0649  0.4012 -0.3204
32874ION     NA49058  11.190   5.411   9.417  0.1532 -0.0996  0.5257
32875ION     NA49059  14.817   5.140   2.185 -0.0697  0.0160  0.0497
32876ION     NA49060   8.546  12.795   5.453 -0.0315  0.1722  0.1155
32877ION     NA49061  11.405  17.020   5.115 -0.0817 -0.1844  0.0012
32878ION     NA49062   5.108   1.941   9.778  0.1035 -0.2812 -0.0809
32879ION     NA49063   4.621  16.963   9.641  0.2378 -0.1506 -0.0795
32880ION     NA49064  10.550   9.091   0.815 -0.0503 -0.3083  0.0922
32881ION     NA49065   8.485   0.609   9.190  0.1003  0.0576 -0.0428
32882ION     NA49066  11.168  11.858   9.227 -0.5213 -0.2673 -0.0632
32883ION     NA49067   9.844   5.647   9.299 -0.0367  0.2264  0.1529
32884ION     NA49068  13.092   1.761  11.212  0.0034 -0.4109  0.2209
32885ION     NA49069  11.118   7.421   9.221 -0.0729 -0.0394  0.2524
32886ION     NA49070   9.006  10.358   9.705 -0.1493  0.3055  0.0395
32887ION     NA49071   2.196   5.781   1.291  0.0030 -0.1060  0.1063
32888ION     NA49072   6.886   1.994  10.004  0.0419  0.1685  0.1331
32889ION     NA49073  10.599   5.194  10.842  0.0741  0.1999  0.0840
32890ION     NA49074  14.066  15.330  12.698  0.0886  0.0357 -0.1323
32891ION     NA49075  17.554  16.177   9.548  0.0852 -0.2347  0.0341
32892ION     NA49076  15.897   6.646   5.089 -0.0838 -0.1275  0.0533
32893ION     NA49077   7.359  15.403   9.676 -0.0744 -0.0899 -0.0806
32894ION     NA49078  12.583   1.524  11.901 -0.2209  0.0010 -0.1602
32895ION     NA49079   2.838   1.625   5.043  0.0822 -0.2133 -0.0162
32896ION     NA49080   9.899  16.863  11.073 -0.0466  0.0401  0.0316
32897ION     NA49081  13.855   4.338   5.060 -0.1150 -0.2050  0.2195
32898ION     NA49082   9.757   9.726   9.635 -0.2735 -0.2778  0.1564
32899ION     NA49083   9.360   8.750   9.922 -0.4098 -0.0637  0.3457
32900ION     NA49084   8.629   0.714  11.164 -0.1654 -0.1236 -0.1681
32901ION     NA49085  17.154  10.683  11.092 -0.0202 -0.0516 -0.0432
32902ION     NA49086   4.801   8.523  10.423 -0.1321  0.1633 -0.1039
32903ION     NA49087  13.792  12.292  10.279 -0.1452 -0.0693  0.1383
32904ION     NA49088  17.523   8.538  13.284  0.4438 -0.0561 -0.3577
32905ION     NA49089   1.926  13.455   9.977  0.0587  0.3680  0.0733
32906ION     NA49090   7.508  11.227  12.722 -0.0914  0.0622  0.0387
32907ION     NA49091  17.111   8.008   9.456 -0.0723  0.3095  0.0698
32908ION     NA49092   8.038   5.973   9.940  0.0909  0.2343  0.0478
32909ION     NA49093   8.136   0.750   9.595 -0.0255  0.0819 -0.1123
32910ION     NA49094  18.361   4.714   9.685 -0.0357 -0.0885 -0.4065
32911ION     NA49095  11.176   2.805   9.232  0.0883 -0.0275  0.0702
32912ION     NA49096   0.467  14.243   9.759  0.3267  0.1050  0.0916
32913ION     NA49097  16.755  11.881   9.673 -0.2880  0.1932  0.7041
32914ION     NA49098  12.921  15.380  14.800  0.0929  0.2943 -0.1792
32915ION     NA49099  17.279  11.826  12.519 -0.3936  0.1906 -0.1144
32916ION     NA49100  13.944   2.683   0.985  0.0843  0.1398 -0.1516
32917ION     NA49101   6.355   0.104   1.359 -0.4276  0.2303 -0.3012
32918ION     NA49102   7.520  10.344  10.514 -0.0204  0.1884 -0.0369
32919ION     NA49103  15.275  17.353   9.166  0.1782 -0.0860 -0.1081
32920ION     NA49104   8.671  17.462  12.711 -0.0723  0.1301 -0.3057
32921ION     NA49105   3.124   7.040  10.534  0.2082 -0.5071 -0.0008
32922ION     NA49106  13.992   8.331   9.202 -0.0799 -0.1354  0.0796
32923ION     NA49107  16.248  10.931   4.627 -0.1041 -0.1674  0.0142
32924ION     NA49108   1.523  15.960  12.830 -0.0683 -0.1967  0.1022
32925ION     NA49109  11.078  18.710   4.930 -0.0305 -0.1750  0.3322
32926ION     NA49110  18.012  18.719   0.809  0.3998 -0.4927 -0.2648
32927ION     NA49111  19.288  17.943   0.445  0.0203  0.1703  0.1854
32928ION     NA49112   8.027  14.281   9.700 -0.0636  0.0102  0.2101
32929ION     NA49113  10.151   3.526   9.444  0.1527  0.2012 -0.0192
32930ION     NA49114  19.127   3.606   5.268  0.2031  0.1209 -0.1316
32931ION     NA49115  14.482  14.474   9.076  0.0565  0.0974  0.1201
32932ION     NA49116   0.625   9.427   2.425  0.0504 -0.0642  0.1109
32933ION     NA49117   0.645   1.773   5.313  0.0526  0.1403  0.0645
32934ION     NA49118   4.323   5.820  10.226 -0.1332 -0.1466  0.2247
32935ION     NA49119  11.001  13.826   9.587 -0.0679 -0.2154 -0.1879
32936ION     NA49120   0.207  16.931  12.036 -0.1253 -0.1760  0.2844
32937ION     NA49121   6.056  18.575  10.654 -0.2645  0.1410 -0.2966
32938ION     NA49122  14.947   3.494   9.359 -0.2167  0.1041  0.2446
32939ION     NA49123   6.776   7.486   0.144 -0.3214  0.1389  0.5219
32940ION     NA49124  18.763  12.888   5.780 -0.1385 -0.4103 -0.1173
32941ION     NA49125  11.525   6.869  11.329 -0.2668  0.1598 -0.1128
32942ION     NA49126   8.604   7.862   9.842 -0.1803 -0.2206 -0.0926
32943ION     NA49127   2.140   5.281  10.414 -0.0757 -0.0263 -0.0135
32944ION     NA49128   9.896   7.757   0.832  0.0485 -0.0376 -0.1089
32945ION     NA49129   1.168  14.437  10.493  0.3101 -0.0011  0.0898
32946ION     NA49130   4.315   3.885  10.322 -0.0469 -0.2930  0.0296
32947ION     NA49131  16.355   1.052   9.288  0.3290  0.2255  0.0684
32948ION     NA49132   0.020  10.972  10.219  0.0506  0.0911 -0.1721
32949ION     NA49133  19.084   2.636   9.869 -0.1370  0.0421 -0.0743
32950ION     NA49134  13.772   1.929   2.439  0.0187 -0.1841  0.0572
32951ION     NA49135   4.860  16.938   5.204 -0.0226  0.4753 -0.3657
32952ION     NA49136  18.718  17.574   3.538 -0.0392  0.5254  0.1893
32953ION     NA49137  10.273   2.405   1.841 -0.0583  0.0648  0.1264
32954ION     NA49138  14.418  16.235   9.347 -0.2759 -0.1372 -0.1252
32955ION     NA49139  15.997   3.720  12.633  0.3163 -0.2729 -0.2262
32956ION     NA49140  11.706  11.448   9.200 -0.1480 -0.4027  0.5016
32957ION     NA49141   8.402   2.032   9.615  0.4401 -0.0373 -0.0982
32958ION     NA49142  12.403   9.422   9.257  0.1220  0.1298 -0.1287
32959ION     NA49143   2.580   3.392  13.247 -0.0779 -0.2423 -0.2213
32960ION     NA49144  10.887   3.187   9.500 -0.2495  0.2242 -0.0442
32961ION     NA49145   4.765  19.304   9.286  0.0069  0.1197 -0.2232
32962ION     NA49146  12.950   4.487   5.266  0.0333 -0.0090 -0.1650
32963ION     NA49147   0.524  16.062   5.328 -0.0278  0.4941 -0.1383
32964ION     NA49148  16.597  13.891   4.782 -0.0882 -0.1057  0.1431
32965ION     NA49149  11.762  12.450   9.427  0.2695 -0.0283  0.2380
32966ION     NA49150   3.808   6.890  10.230 -0.1694 -0.2061  0.0163
32967ION     NA49151   9.574  17.036   9.385 -0.0458 -0.0886 -0.0876
32968ION     NA49152  11.961   0.500  14.463  0.3139 -0.2625  0.3318
32969ION     NA49153  10.681  15.983   9.562 -0.1726  0.2512 -0.1942
32970ION     NA49154   6.850  11.156   6.029  0.1991  0.0899  0.5165
32971ION     NA49155  12.389   4.895  14.444 -0.1903 -0.1535  0.2754
32972ION     NA49156   2.204  10.324   3.042  0.0297  0.0921  0.0055
32973ION     NA49157   0.250  15.848   9.316  0.1628 -0.0779  0.3149
32974ION     NA49158  18.453   6.667  10.002  0.2932  0.0959  0.1689
32975ION     NA49159  14.808   0.908   9.230  0.0617  0.3680 -0.1878
32976ION     NA49160  13.228   1.237   4.699  0.0065  0.0082  0.0604
32977ION     NA49161   8.305  14.071   5.583 -0.3211  0.2099 -0.3961
32978ION     NA49162   7.583   5.282  10.119  0.0674  0.0027  0.0245
32979ION     NA49163  11.389  16.450  12.415  0.0564  0.3604 -0.1271
32980ION     NA49164  11.475  14.277   9.906  0.2967 -0.0895 -0.0488
32981ION     NA49165  11.095  10.720   0.782 -0.0417  0.3234 -0.2056
32982ION     NA49166   8.984   2.680   4.967  0.1824 -0.0107  0.0015
32983ION     NA49167   5.588   4.213  14.879 -0.1779 -0.1687  0.0479
32984ION     NA49168   5.480  12.928  11.119 -0.2731  0.0743  0.1228
32985ION     NA49169  15.626   5.518   9.383 -0.1941  0.0655  0.0586
32986ION     NA49170   2.334   9.916  11.992  0.1813 -0.0931 -0.2427
32987ION     NA49171  19.383  15.041   9.718 -0.1259  0.0578 -0.4529
32988ION     NA49172   3.992   8.306  11.654  0.2607  0.3792  0.2061
32989ION     NA49173   5.458   0.284   9.652 -0.2221 -0.0603 -0.1581
32990ION     NA49174  13.192  19.131   9.261 -0.0486  0.0806 -0.2844
32991ION     NA49175  15.945  15.589   5.216 -0.1314 -0.0430  0.0253
32992ION     NA49176   4.739  13.736   9.905  0.1627 -0.2094 -0.2283
32993ION     NA49177   6.174  16.412   9.788 -0.0529  0.1045 -0.1709
32994ION     NA49178   9.232   2.290   9.405  0.0027 -0.0030  0.0676
32995ION     NA49179  12.517   1.182   2.171 -0.2891  0.3110  0.1367
32996ION     NA49180   9.617   8.563  13.512 -0.0172 -0.1829  0.2440
32997ION     NA49181   4.220  11.753  10.567  0.0380  0.0246  0.4232
32998ION     NA49182   9.730   5.677   5.412  0.0943  0.1022  0.0379
32999ION     NA49183   7.390  10.293   9.964 -0.2901  0.0627 -0.1352
33000ION     NA49184   5.838   3.435   9.952 -0.0179 -0.0101 -0.1571
33001ION     NA49185  13.679  16.262   9.525  0.0465  0.2334  0.3127
33002ION     NA49186  14.443   5.776   5.055 -0.1913 -0.1605  0.0904
33003ION     NA49187   8.120  13.226   9.623 -0.3586 -0.0449  0.0572
33004ION     NA49188  10.020  12.793   9.814  0.2590 -0.1148 -0.0271
33005ION     NA49189   9.781  18.658  13.184  0.0885  0.1691 -0.0126
33006ION     NA49190   8.239   7.552  12.472  0.0246  0.0623 -0.1765
33007ION     NA49191   3.625   1.782  10.786 -0.1090  0.3413  0.0656
33008ION     NA49192   2.409   6.351  13.125 -0.2126 -0.1933 -0.0063
33009ION     NA49193   6.029   1.417  10.146  0.1582  0.1748 -0.2360
33010ION     NA49194   1.469   2.382   5.152 -0.2095  0.3097  0.1119
33011ION     NA49195   2.951   1.881   0.162  0.1599 -0.1151 -0.5303
33012ION     NA49196   8.865   5.609  10.116 -0.1566  0.0923 -0.1772
33013ION     NA49197  15.323   6.384   4.965  0.1124  0.0644  0.0733
33014ION     NA49198   2.097  14.932   9.923  0.1465  0.2151  0.0205
33015ION     NA49199   6.770   4.092  13.355 -0.1068  0.1419 -0.1814
33016ION     NA49200   0.882  17.244   9.576  0.0772  0.1690 -0.1361
33017ION     NA49201  10.258  17.600   9.314 -0.3826  0.0709 -0.0333
33018ION     NA49202   1.005  18.685   9.643  0.0358 -0.3813 -0.3767
33019ION     NA49203   0.007  17.334   9.275  0.0020  0.3453 -0.1469
33020ION     NA49204  14.422   1.924  13.758 -0.2594 -0.3234  0.1878
33021ION     NA49205  12.373   0.057   9.430  0.0819  0.0273 -0.4167
33022ION     NA49206  12.898   7.867  11.063 -0.0470  0.0718  0.2783
33023ION     NA49207   5.868  12.148  11.766  0.1900  0.0869 -0.0970
33024ION     NA49208   2.647   6.144  10.742 -0.2582  0.0815  0.1971
33025ION     NA49209  15.500  15.641  14.497  0.1888  0.0900  0.0273
33026ION     NA49210  18.899  12.739   9.820 -0.1278  0.0686 -0.1371
33027ION     NA49211  12.686  14.106   4.927 -0.2842  0.1339 -0.1253
33028ION     NA49212   7.256   7.188   9.822 -0.2926  0.0838 -0.1020
33029ION     NA49213   0.308   6.896   9.994 -0.2909  0.2232 -0.1874
33030ION     NA49214   6.749   0.124   9.414  0.1973  0.1124  0.5549
33031ION     NA49215  11.824  15.097   1.006 -0.2259  0.3174  0.0157
33032ION     NA49216   8.844  17.685   9.085 -0.2851 -0.2497  0.1986
33033ION     NA49217  13.102   9.193   1.943 -0.1120  0.0408 -0.1202
33034ION     NA49218  16.662  16.705   9.227 -0.0798  0.0967 -0.1442
33035ION     NA49219  16.157  17.656   9.364 -0.0014  0.1185  0.1273
33036ION     NA49220  14.380   2.184  11.187  0.3011 -0.2469 -0.1966
33037ION     NA49221  17.331  17.871   4.628 -0.3190  0.4043  0.2536
33038ION     NA49222   4.878   1.149   9.602  0.1546  0.0360  0.4190
33039ION     NA49223  10.600  13.741  11.627  0.1152  0.3930  0.3896
33040ION     NA49224  17.626   9.906  12.951 -0.0457 -0.0548 -0.1880
33041ION     NA49225  10.678   5.530   5.330  0.1713 -0.0642 -0.0470
33042ION     NA49226  15.441  14.527   9.122  0.0023  0.0489  0.0956
33043ION     NA49227  17.473  17.241   9.773  0.3717 -0.2796  0.1040
33044ION     NA49228  11.625   4.507   9.467 -0.1686 -0.4182 -0.2203
33045ION     NA49229  14.714  10.816   9.107 -0.2176 -0.0937  0.0621
33046ION     NA49230   7.444   1.341   5.314  0.2280 -0.1541  0.1529
33047ION     NA49231   1.682   1.486  10.146 -0.0064 -0.2253  0.0732
33048ION     NA49232  11.719   9.923   9.300  0.3041  0.0144 -0.0182
33049ION     NA49233   6.240   1.231  12.164 -0.2132 -0.0760 -0.0575
33050ION     NA49234   3.074   4.517   5.977 -0.2111  0.0392  0.1220
33051ION     NA49235   6.280   5.143  10.508  0.2553  0.0616  0.0027
33052ION     NA49236  10.849   2.304   4.957  0.2783 -0.0204 -0.2023
33053ION     NA49237   2.391  19.192   9.653 -0.2219  0.0035 -0.0913
33054ION     NA49238  18.206  17.267   9.268  0.2156 -0.1606 -0.1553
33055ION     NA49239  15.713   0.071   9.225 -0.2419  0.0572 -0.0867
33056ION     NA49240  11.949  16.173   4.903 -0.1692  0.1238 -0.1157
33057ION     NA49241  11.107  19.047  12.563 -0.1553  0.0516  0.0655
33058ION     NA49242  17.289   7.146  14.486  0.4605 -0.3240 -0.1468
33059ION     NA49243  13.046  15.689   4.048 -0.0891 -0.1643  0.2957
33060ION     NA49244  10.225  13.672  10.188  0.0919  0.2109 -0.4377
33061ION     NA49245  13.300   1.014   2.904  0.0764  0.0104  0.2607
33062ION     NA49246   1.264  15.865   9.558 -0.1596 -0.0297 -0.0429
33063ION     NA49247  15.146   5.568   9.349 -0.0371  0.1718 -0.0277
33064ION     NA49248  14.628  10.012   9.444 -0.0624 -0.3730  0.0805
33065ION     NA49249   3.598   6.436   1.360  0.2672  0.0538  0.4452
33066ION     NA49250   1.804  13.305   5.643  0.1572 -0.1004  0.1748
33067ION     NA49251  13.154  15.060   9.367  0.1673  0.1137 -0.2927
33068ION     NA49252  10.599   7.353   9.561  0.0206  0.0308  0.2801
33069ION     NA49253  15.034   6.129   9.505  0.2443  0.2155  0.4594
33070ION     NA49254  13.648   6.756   8.919  0.2588 -0.4255 -0.0235
33071ION     NA49255  12.183  15.474  13.386  0.5900  0.1729 -0.1913
33072ION     NA49256   6.631  18.552   9.090  0.0140  0.3161  0.1166
33073ION     NA49257   5.594  10.376   5.648 -0.3917 -0.0994  0.2545
33074ION     NA49258   0.680   1.374   3.945  0.2825  0.1500 -0.0629
33075ION     NA49259  10.820   8.686   9.445  0.1838 -0.0167 -0.0721
33076ION     NA49260  14.109  18.314   0.868 -0.2481 -0.3152  0.3245
33077ION     NA49261   8.420   3.998   9.688  0.3404 -0.0473  0.2915
33078ION     NA49262   4.191  10.402   4.985  0.3092 -0.0337 -0.2482
33079ION     NA49263  13.921  10.637   9.508  0.1983  0.4601  0.5158
33080ION     NA49264  19.052   1.513  11.526 -0.0706 -0.2825 -0.0320
33081ION     NA49265  18.600  15.251   3.000  0.0669 -0.0894 -0.2668
33082ION     NA49266   5.950   6.909   9.925 -0.0652  0.1506  0.3171
33083ION     NA49267  11.518   6.426  12.712 -0.0986 -0.1697  0.0166
33084ION     NA49268   3.291   8.363  10.165 -0.0662 -0.1473 -0.0358
33085ION     NA49269  15.778   3.113   4.934  0.1980 -0.1801  0.0607
33086ION     NA49270   5.607   7.535   3.055  0.2273 -0.0340  0.0611
33087ION     NA49271   1.563  13.835   1.918  0.0239  0.1445 -0.1951
33088ION     NA49272   9.307   3.925   9.503  0.3627  0.4284 -0.2115
33089ION     NA49273  15.556   2.889  10.012 -0.0709  0.0337  0.2518
33090ION     NA49274  18.028  11.063   4.267  0.0207 -0.1840 -0.0564
33091ION     NA49275   8.731  11.314   4.895  0.1105  0.2595  0.4203
33092ION     NA49276  11.179  16.300   5.422  0.0158 -0.3633 -0.1946
33093ION     NA49277   6.803   7.617   9.879  0.0433 -0.2031 -0.0891
33094ION     NA49278  10.580  10.092   9.325 -0.1213 -0.0666 -0.2877
33095ION     NA49279  18.221   0.792  12.807  0.1327 -0.2101 -0.0865
33096ION     NA49280   5.967   9.677  12.798 -0.0667  0.0444  0.0498
33097ION     NA49281  12.507   8.667   9.399 -0.2528  0.0480  0.0484
33098ION     NA49282   0.798   8.905   5.655  0.2282  0.2253 -0.1799
33099ION     NA49283  12.102   0.822   3.350  0.1467  0.1549 -0.2706
33100ION     NA49284  14.018  18.951   9.468 -0.1802 -0.1179  0.1703
33101ION     NA49285  13.109  16.727  10.331 -0.1823  0.0161  0.3057
33102ION     NA49286  12.687  15.745   0.943  0.0478  0.0823  0.0603
33103ION     NA49287   6.243  14.184  12.806 -0.0456 -0.2620 -0.2938
33104ION     NA49288  10.232   8.066   1.765 -0.0107 -0.1296  0.0759
33105ION     NA49289   1.502   0.972   5.177  0.2178 -0.0902  0.0329
33106ION     NA49290   6.517  15.615   5.240  0.0368 -0.0443 -0.0369
33107ION     NA49291   0.417  18.067   0.737  0.0917 -0.2271 -0.2948
33108ION     NA49292  13.224  16.458   1.983  0.0684 -0.1532 -0.1868
33109ION     NA49293   0.136   2.948  12.042  0.2327 -0.1851  0.0432
33110ION     NA49294   4.195  10.109  10.324  0.3767  0.2203 -0.0932
33111ION     NA49295   4.190  12.677  10.353 -0.1618  0.3094 -0.0196
33112ION     NA49296  11.436   0.743   4.604  0.1187 -0.2676  0.0556
33113ION     NA49297  12.734  16.514   9.588  0.1860  0.1598  0.0863
33114ION     NA49298  18.145   7.525   9.838 -0.1679  0.3855 -0.1689
33115ION     NA49299  12.255  18.873   9.431 -0.1105  0.3179 -0.1432
33116ION     NA49300   2.685  17.766   9.739 -0.0781 -0.0319  0.0320
33117ION     NA49301  11.354  19.308   1.221  0.3588 -0.0065 -0.1079
33118ION     NA49302  14.772  14.749  14.026  0.0298  0.2938  0.1782
33119ION     NA49303   3.816  14.295  10.254  0.2152  0.1385 -0.0038
33120ION     NA49304   0.711  18.155   9.610 -0.2457 -0.1424 -0.0336
33121ION     NA49305  13.264   9.427   9.510 -0.0627 -0.2707  0.0924
33122ION     NA49306   7.964  10.100   5.734 -0.0178  0.0706 -0.0019
33123ION     NA49307  10.152  11.747  14.300 -0.3841 -0.1827  0.3538
33124ION     NA49308  16.830  18.654   3.243  0.2186  0.1597  0.4514
33125ION     NA49309  16.001  13.532   9.205  0.0086 -0.2496 -0.1590
33126ION     NA49310  14.303   6.471   9.371  0.2427 -0.0370 -0.0931
33127ION     NA49311  17.266   1.442   9.105 -0.2612 -0.0848 -0.3445
33128ION     NA49312   4.496   8.427   6.172 -0.3146 -0.0678 -0.0842
33129ION     NA49313  17.343  10.541  14.443 -0.0622 -0.2999  0.1430
33130ION     NA49314  11.987   2.393   2.440 -0.1198  0.2087  0.1950
33131ION     NA49315  18.272  11.388   9.843  0.2479  0.3654 -0.0805
33132ION     NA49316   8.176   4.267  11.916 -0.0655  0.3865  0.0970
33133ION     NA49317  14.514   2.768   9.392  0.0883 -0.3872 -0.1276
33134ION     NA49318  15.816   3.129  11.181 -0.1737 -0.1937  0.0850
33135ION     NA49319   9.973  13.668   9.426 -0.1348 -0.1467  0.0806
33136ION     NA49320   3.345  15.771   5.193  0.0733 -0.1410  0.2571
33137ION     NA49321   9.002  14.313  13.825  0.1177 -0.1399 -0.2280
33138ION     NA49322  16.200   8.848   4.256 -0.0726  0.1148  0.2531
33139ION     NA49323   3.252  11.183  10.216 -0.2452 -0.1780  0.1326
33140ION     NA49324  12.216   4.520   9.549 -0.3144 -0.2421 -0.5565
33141ION     NA49325   5.586   7.698   4.899  0.1149  0.5026 -0.4098
33142ION     NA49326  12.255   6.354   9.239 -0.1925 -0.0218 -0.0273
33143ION     NA49327  15.896   4.536   9.565  0.4101 -0.1065 -0.3244
33144ION     NA49328   2.059   9.845  13.947 -0.0153  0.3432 -0.1673
33145ION     NA49329   5.997  15.389   4.121  0.0672  0.0388  0.2328
33146ION     NA49330  12.897  12.695   2.267 -0.1408  0.1342 -0.3088
33147ION     NA49331  10.697  10.211   2.007 -0.1531  0.2055  0.3375
33148ION     NA49332  17.943   3.526  13.712  0.0308  0.1640 -0.4587
33149ION     NA49333  16.738  15.922   4.351  0.2304  0.1560 -0.3373
33150ION     NA49334   9.988  19.170   9.364  0.1310 -0.1045  0.1651
33151ION     NA49335   4.105   0.612   9.698 -0.5789 -0.1896  0.0391
33152ION     NA49336   5.714   4.328   4.598  0.2865 -0.0159 -0.1499
33153ION     NA49337  13.340  10.546  12.502 -0.1780 -0.0321 -0.0394
33154ION     NA49338  10.497   8.204   9.410  0.2936 -0.0052  0.3186
33155ION     NA49339   5.714  17.827   9.413  0.1127  0.1918 -0.0029
33156ION     NA49340  18.636   1.806   9.581  0.0405  0.2000  0.4540
33157ION     NA49341  18.323   2.761   9.795  0.1223  0.0444 -0.1073
33158ION     NA49342  19.149   4.397  10.313 -0.1881 -0.0857  0.1648
33159ION     NA49343  11.053  11.852  11.423 -0.0446  0.0235 -0.0213
33160ION     NA49344  12.213  10.453  14.179 -0.0841 -0.0144 -0.1318
33161ION     NA49345   4.579   9.363   9.947 -0.1445 -0.0537  0.0253
33162ION     NA49346   4.143  19.099   5.495  0.1136 -0.0058 -0.1026
33163ION     NA49347  17.053   8.561  12.662  0.0336  0.1805  0.2074
33164ION     NA49348   5.490  14.200   9.810  0.1797  0.2425  0.0842
  19.39070  19.39070  14.95045
