INSANE! Membrane UpperLeaflet>loPI:POPI:DPPI:PYPI:ERGO=180.0:5.0:3.0:2.0:10.0 LowerLeaflet>PSPI:POPI:POPS:YOPS:POPE:YOPE:POPC:YOPC:ERGO=6.0:14.0:21.0:9.0:9.0:21.0:12.0:48.0:60.0
49348
    1loPI    C1    1  14.567  10.412  10.586  0.1065 -0.0358 -0.1051
    1loPI    C2    2  14.936  10.260  10.610  0.0546 -0.1516 -0.0377
    1loPI    C3    3  14.841  10.588  10.818  0.1808  0.0031 -0.2215
    1loPI   PO4    4  14.577  10.390  10.353  0.2427 -0.1058 -0.0736
    1loPI   GL1    5  14.758  10.177   9.856 -0.0439  0.2237  0.0421
    1loPI   GL2    6  14.747  10.527   9.783 -0.2050  0.0100  0.3237
    1loPI   C1A    7  14.802  10.135   9.406  0.0598 -0.0371 -0.1776
    1loPI   C2A    8  14.895  10.095   8.980  0.0710  0.1274 -0.0810
    1loPI   C3A    9  14.923  10.375   8.544 -0.0479  0.0058  0.4022
    1loPI   C4A   10  14.741  10.608   8.176  0.0064 -0.1324 -0.3473
    1loPI   C5A   11  14.570  10.505   7.805  0.1237  0.0718 -0.2195
    1loPI   C6A   12  14.622  10.862   7.640 -0.2966  0.0403 -0.3667
    1loPI   C1B   13  14.542  10.559   9.370  0.1290 -0.1492 -0.0759
    1loPI   C2B   14  14.553  10.581   8.956 -0.1684 -0.1029  0.1138
    1loPI   C3B   15  14.335  10.604   8.565  0.2278 -0.1440 -0.1394
    1loPI   C4B   16  14.097  10.541   8.177  0.0724  0.0212  0.1159
    2loPI    C1   17  12.862   8.868  10.637  0.2119  0.1650 -0.2429
    2loPI    C2   18  12.997   8.995  10.991 -0.1161  0.2213 -0.1356
    2loPI    C3   19  12.959   8.603  10.920 -0.0860  0.2110 -0.0944
    2loPI   PO4   20  13.009   9.039  10.449  0.0313  0.0069  0.1508
    2loPI   GL1   21  13.268   9.265  10.154 -0.2594 -0.0537  0.0716
    2loPI   GL2   22  13.224   9.509   9.967 -0.2178 -0.3899 -0.0003
    2loPI   C1A   23  13.180   9.030   9.766 -0.0595  0.1318 -0.0228
    2loPI   C2A   24  13.231   8.909   9.401  0.0541  0.1166  0.0222
    2loPI   C3A   25  13.234   8.889   8.948  0.0266  0.1710 -0.2291
    2loPI   C4A   26  13.263   8.987   8.462  0.3486  0.0942 -0.1927
    2loPI   C5A   27  13.351   9.328   8.124  0.1442  0.2548 -0.2065
    2loPI   C6A   28  13.670   9.284   7.725  0.1025  0.2945 -0.0277
    2loPI   C1B   29  13.079   9.465   9.645  0.4854 -0.1122 -0.1546
    2loPI   C2B   30  13.281   9.457   9.300 -0.1392 -0.3094 -0.0483
    2loPI   C3B   31  13.403   9.659   8.926 -0.1067  0.2255 -0.3757
    2loPI   C4B   32  13.685   9.540   8.611  0.0092 -0.2626 -0.1258
    3loPI    C1   33   9.312   4.983  10.313  0.0037 -0.1438  0.0194
    3loPI    C2   34   9.176   5.209  10.613  0.1488  0.0954 -0.0917
    3loPI    C3   35   9.274   4.827  10.679 -0.2377  0.0191  0.0658
    3loPI   PO4   36   9.226   5.077   9.992 -0.2488 -0.2713  0.1383
    3loPI   GL1   37   9.285   5.054   9.538  0.2182  0.3584  0.1027
    3loPI   GL2   38   9.551   4.978   9.521 -0.0492  0.0426  0.1546
    3loPI   C1A   39   9.065   5.364   9.265  0.0642  0.1223 -0.1166
    3loPI   C2A   40   8.848   5.464   8.868 -0.0590  0.0492  0.1009
    3loPI   C3A   41   8.695   5.753   8.554  0.0506 -0.1777 -0.2979
    3loPI   C4A   42   8.803   6.093   8.208 -0.0745  0.1330 -0.2216
    3loPI   C5A   43   9.099   6.474   8.030 -0.0901  0.2398 -0.1550
    3loPI   C6A   44   9.279   6.634   7.602  0.2615  0.0890 -0.4154
    3loPI   C1B   45   9.430   5.093   9.069  0.0710 -0.4730 -0.1253
    3loPI   C2B   46   9.443   5.308   8.662  0.1676  0.0302  0.0221
    3loPI   C3B   47   9.185   5.560   8.479  0.4257 -0.2424  0.2927
    3loPI   C4B   48   8.859   5.480   8.190 -0.1190  0.1301 -0.0692
    4loPI    C1   49  15.021  15.259  10.323 -0.1480 -0.0041 -0.1927
    4loPI    C2   50  14.937  15.650  10.311 -0.2737 -0.0293 -0.1556
    4loPI    C3   51  14.654  15.389  10.418 -0.1167 -0.1072  0.0765
    4loPI   PO4   52  15.197  15.275  10.077  0.1705  0.2827  0.1319
    4loPI   GL1   53  15.033  15.345   9.660  0.1063  0.0376  0.3631
    4loPI   GL2   54  14.711  15.335   9.716  0.0327  0.0159 -0.0597
    4loPI   C1A   55  14.979  15.458   9.212  0.0801  0.0868 -0.1982
    4loPI   C2A   56  15.007  15.500   8.769 -0.2110 -0.1081  0.3822
    4loPI   C3A   57  15.146  15.420   8.344 -0.0987  0.3500 -0.0951
    4loPI   C4A   58  15.312  15.409   8.040 -0.0675 -0.1244 -0.1609
    4loPI   C5A   59  15.564  15.589   7.916 -0.0699 -0.1160  0.2861
    4loPI   C6A   60  15.714  15.951   7.997 -0.1394 -0.0103 -0.3627
    4loPI   C1B   61  14.500  15.272   9.326 -0.3736  0.1739  0.2704
    4loPI   C2B   62  14.568  15.291   8.868  0.0643 -0.2716 -0.3934
    4loPI   C3B   63  14.729  15.248   8.467  0.1024 -0.2659 -0.0801
    4loPI   C4B   64  14.808  15.272   8.011 -0.0534  0.0332  0.0248
    5loPI    C1   65  12.603   3.629   9.989  0.0116 -0.1507 -0.0241
    5loPI    C2   66  12.270   3.624  10.210  0.0184 -0.0566 -0.0114
    5loPI    C3   67  12.599   3.438  10.341  0.0476  0.0710  0.0985
    5loPI   PO4   68  12.573   3.954   9.932 -0.1594 -0.0882 -0.0142
    5loPI   GL1   69  12.846   4.047   9.580 -0.2160  0.0576  0.2442
    5loPI   GL2   70  12.543   3.966   9.416  0.3273 -0.0477  0.0173
    5loPI   C1A   71  12.952   4.000   9.159 -0.3242 -0.1520 -0.2702
    5loPI   C2A   72  12.895   3.809   8.794  0.4704  0.1210  0.1419
    5loPI   C3A   73  12.735   3.598   8.494 -0.1679 -0.2955 -0.0162
    5loPI   C4A   74  12.875   3.345   8.193 -0.1996  0.0484 -0.0850
    5loPI   C5A   75  12.968   2.918   7.982 -0.1372 -0.0603  0.4126
    5loPI   C6A   76  13.287   2.660   7.888  0.2381  0.2304  0.1064
    5loPI   C1B   77  12.498   4.192   9.094  0.0033 -0.1000  0.1718
    5loPI   C2B   78  12.461   4.130   8.652 -0.1664 -0.0008 -0.0323
    5loPI   C3B   79  12.631   4.091   8.293 -0.4335 -0.0266 -0.1219
    5loPI   C4B   80  13.012   3.820   8.114  0.1777 -0.3029  0.3599
    6loPI    C1   81   9.140  14.267  10.130  0.2810  0.2127  0.0027
    6loPI    C2   82   8.884  14.365  10.422  0.0690 -0.1187 -0.0656
    6loPI    C3   83   9.194  14.125  10.500  0.1356 -0.0338 -0.0677
    6loPI   PO4   84   9.252  14.564   9.929  0.0529 -0.1189 -0.1174
    6loPI   GL1   85   9.113  14.958   9.668 -0.4215 -0.0329  0.2367
    6loPI   GL2   86   9.138  15.386   9.532  0.0763 -0.0145 -0.0855
    6loPI   C1A   87   9.194  15.023   9.152  0.0809 -0.0788 -0.2328
    6loPI   C2A   88   9.206  15.319   8.721 -0.1346  0.2007  0.1001
    6loPI   C3A   89   9.519  15.244   8.386 -0.0321  0.0453  0.1012
    6loPI   C4A   90   9.579  15.074   7.945 -0.0297 -0.0507 -0.0864
    6loPI   C5A   91   9.702  14.831   7.535 -0.3738  0.0661  0.1705
    6loPI   C6A   92   9.904  14.512   7.177  0.0643  0.1171 -0.1405
    6loPI   C1B   93   9.008  15.544   9.157  0.0817 -0.1812  0.1451
    6loPI   C2B   94   8.868  15.730   8.781 -0.2654  0.1128  0.0422
    6loPI   C3B   95   8.879  15.744   8.302  0.1032 -0.2401 -0.1565
    6loPI   C4B   96   8.901  15.819   7.906 -0.1349 -0.0946 -0.0013
    7loPI    C1   97   3.924   6.085   9.849 -0.0581  0.0956 -0.2129
    7loPI    C2   98   4.089   6.450   9.842 -0.0545  0.0966 -0.0945
    7loPI    C3   99   3.921   6.312  10.178 -0.0644 -0.0073 -0.1415
    7loPI   PO4  100   3.842   6.070   9.667  0.1300  0.4464  0.0394
    7loPI   GL1  101   3.777   5.737   9.295  0.1648  0.0168  0.2552
    7loPI   GL2  102   3.817   6.024   9.143  0.1437  0.2336  0.0676
    7loPI   C1A  103   3.474   5.631   8.984 -0.1519 -0.4139  0.0210
    7loPI   C2A  104   3.619   5.664   8.528  0.0678  0.0553  0.2536
    7loPI   C3A  105   3.888   5.846   8.207  0.3398 -0.2786  0.2472
    7loPI   C4A  106   3.968   6.103   7.812  0.1173  0.1029 -0.1803
    7loPI   C5A  107   3.742   6.147   7.440  0.1699 -0.1621  0.0224
    7loPI   C6A  108   3.476   6.253   7.114 -0.1480 -0.3361 -0.0050
    7loPI   C1B  109   4.065   5.755   8.874  0.1790 -0.0399 -0.2101
    7loPI   C2B  110   4.276   5.582   8.491 -0.0623  0.2399 -0.1608
    7loPI   C3B  111   4.094   5.373   8.153  0.1860 -0.0671 -0.2403
    7loPI   C4B  112   4.020   5.136   7.726  0.1265  0.0264  0.0119
    8loPI    C1  113  11.446  18.287  10.653 -0.0242  0.1046  0.1599
    8loPI    C2  114  11.824  18.182  10.572 -0.0736  0.0494 -0.0036
    8loPI    C3  115  11.737  18.369  10.916  0.1168  0.1475 -0.0074
    8loPI   PO4  116  11.347  18.480  10.371 -0.0419 -0.0283  0.1828
    8loPI   GL1  117  11.152  18.550   9.926  0.1688  0.1379  0.3148
    8loPI   GL2  118  11.383  18.246   9.786  0.1758 -0.1099 -0.0918
    8loPI   C1A  119  10.979  18.480   9.561 -0.0352 -0.0688  0.0227
    8loPI   C2A  120  10.861  18.379   9.181  0.3065 -0.2808 -0.0890
    8loPI   C3A  121  10.983  18.483   8.830  0.0095  0.0184 -0.2056
    8loPI   C4A  122  10.975  18.369   8.397 -0.0665  0.4757 -0.3136
    8loPI   C5A  123  10.800  18.164   8.019  0.1884 -0.4233 -0.1503
    8loPI   C6A  124  10.656  17.770   7.796 -0.0966 -0.1015 -0.1919
    8loPI   C1B  125  11.518  18.510   9.538 -0.2417  0.2049 -0.0519
    8loPI   C2B  126  11.527  18.463   9.049 -0.1193  0.0143 -0.0516
    8loPI   C3B  127  11.520  18.514   8.602  0.1473  0.1094 -0.2033
    8loPI   C4B  128  11.549  18.544   8.184 -0.2601 -0.0639  0.0080
    9loPI    C1  129  16.294  11.431  10.370  0.1794  0.0362 -0.0913
    9loPI    C2  130  16.666  11.439  10.516  0.1328 -0.0530  0.0352
    9loPI    C3  131  16.358  11.365  10.760  0.0662 -0.3485 -0.1340
    9loPI   PO4  132  16.283  11.697  10.212 -0.1678  0.0471  0.0303
    9loPI   GL1  133  16.304  11.620   9.809 -0.2730 -0.1910 -0.0044
    9loPI   GL2  134  16.037  11.872   9.782 -0.1619 -0.0770 -0.0727
    9loPI   C1A  135  16.466  11.531   9.375 -0.2663 -0.1965  0.1262
    9loPI   C2A  136  16.474  11.390   8.920 -0.3412 -0.3112  0.1334
    9loPI   C3A  137  16.321  11.445   8.523  0.2584  0.0021 -0.2536
    9loPI   C4A  138  16.260  11.529   8.185  0.2065  0.0790  0.0421
    9loPI   C5A  139  16.293  11.889   7.850  0.0458  0.1341  0.1673
    9loPI   C6A  140  16.656  12.082   7.569 -0.0620 -0.0084 -0.1675
    9loPI   C1B  141  15.988  11.801   9.411 -0.0071  0.1102 -0.1623
    9loPI   C2B  142  15.953  11.754   8.997  0.2386  0.0426  0.1707
    9loPI   C3B  143  15.913  11.865   8.584 -0.0663 -0.1284 -0.0814
    9loPI   C4B  144  15.832  11.876   8.174 -0.1004  0.4154 -0.1037
   10loPI    C1  145   0.520  14.681  10.117  0.1953 -0.0586 -0.2489
   10loPI    C2  146   0.794  14.971  10.152  0.0548  0.0635 -0.1421
   10loPI    C3  147   0.770  14.684  10.430 -0.2235  0.3120  0.0970
   10loPI   PO4  148   0.442  14.686  10.003  0.1214  0.2143 -0.0108
   10loPI   GL1  149   0.229  14.630   9.552 -0.2400  0.1635 -0.0473
   10loPI   GL2  150   0.085  14.930   9.607  0.2842  0.0341 -0.2464
   10loPI   C1A  151   0.122  14.619   9.170 -0.1059  0.2446  0.1841
   10loPI   C2A  152   0.016  14.387   8.827 -0.3145  0.0411 -0.3947
   10loPI   C3A  153   0.177  14.413   8.387 -0.0443 -0.1214 -0.1923
   10loPI   C4A  154   0.180  14.439   7.963 -0.0137  0.0321 -0.1223
   10loPI   C5A  155  -0.056  14.342   7.770  0.1743  0.1549  0.1595
   10loPI   C6A  156  -0.254  13.927   7.618  0.3238 -0.0294 -0.2573
   10loPI   C1B  157   0.302  15.105   9.230  0.0996  0.2664 -0.1167
   10loPI   C2B  158   0.259  15.425   8.981  0.1824  0.0313  0.3579
   10loPI   C3B  159   0.364  15.785   8.805  0.3015 -0.2435  0.2542
   10loPI   C4B  160   0.167  16.112   8.604 -0.2078 -0.0259 -0.0792
   11loPI    C1  161  18.331   4.001  10.224  0.2569 -0.1706  0.2447
   11loPI    C2  162  18.706   4.103  10.317  0.2147  0.2022  0.0292
   11loPI    C3  163  18.424   4.385  10.290 -0.0666 -0.0659  0.1143
   11loPI   PO4  164  18.436   3.824   9.998  0.3995  0.1505  0.2602
   11loPI   GL1  165  18.461   3.731   9.548  0.0399  0.1933 -0.2223
   11loPI   GL2  166  18.091   3.599   9.441 -0.2665  0.1103  0.1719
   11loPI   C1A  167  18.767   3.772   9.198  0.0785 -0.0526  0.0532
   11loPI   C2A  168  18.746   3.670   8.755 -0.0266  0.0986  0.0671
   11loPI   C3A  169  19.036   3.508   8.449 -0.1582  0.0221 -0.0255
   11loPI   C4A  170  19.387   3.303   8.233 -0.0646 -0.0257  0.1133
   11loPI   C5A  171  19.570   3.056   7.857 -0.2282  0.2030  0.0347
   11loPI   C6A  172  19.813   3.127   7.461 -0.1282 -0.0050  0.5157
   11loPI   C1B  173  18.222   3.602   8.999  0.1248 -0.1725  0.2926
   11loPI   C2B  174  18.194   3.750   8.464 -0.0600 -0.1917  0.4218
   11loPI   C3B  175  18.180   3.475   8.095  0.0766  0.4937 -0.4023
   11loPI   C4B  176  18.409   3.445   7.751  0.1354 -0.0996 -0.2966
   12loPI    C1  177  14.459   1.760  10.469 -0.3025 -0.2228  0.0764
   12loPI    C2  178  14.236   2.060  10.611 -0.0338  0.0499 -0.0661
   12loPI    C3  179  14.547   1.924  10.824  0.0345  0.0856 -0.1425
   12loPI   PO4  180  14.533   1.836  10.194  0.2072  0.0028  0.2795
   12loPI   GL1  181  14.563   1.866   9.766 -0.1214  0.1428  0.2744
   12loPI   GL2  182  14.245   2.044   9.717 -0.1151 -0.0795  0.0489
   12loPI   C1A  183  14.633   1.637   9.448 -0.0612  0.5943 -0.1065
   12loPI   C2A  184  14.416   1.581   9.033 -0.1362  0.0448 -0.2289
   12loPI   C3A  185  14.229   1.487   8.612 -0.3605 -0.0170  0.0668
   12loPI   C4A  186  14.274   1.578   8.137  0.0477 -0.2062 -0.0591
   12loPI   C5A  187  14.406   1.187   7.936 -0.4067 -0.4006 -0.2407
   12loPI   C6A  188  14.321   0.819   7.683 -0.0334  0.0226 -0.0200
   12loPI   C1B  189  14.255   2.008   9.330 -0.1510 -0.0320 -0.1626
   12loPI   C2B  190  14.473   2.068   8.998  0.1230 -0.0276 -0.0574
   12loPI   C3B  191  14.477   1.983   8.551 -0.1854  0.1846 -0.0037
   12loPI   C4B  192  14.737   1.648   8.455  0.2224 -0.1731 -0.0449
   13loPI    C1  193  11.357  16.196  10.237 -0.0474  0.1604  0.0578
   13loPI    C2  194  11.675  15.966  10.312 -0.0398  0.0524 -0.2862
   13loPI    C3  195  11.606  16.291  10.535  0.1287 -0.1023 -0.0018
   13loPI   PO4  196  11.358  16.225   9.988  0.2553 -0.1239  0.1728
   13loPI   GL1  197  11.416  16.215   9.544 -0.2629 -0.1910 -0.0611
   13loPI   GL2  198  11.069  16.107   9.568  0.2192  0.1057  0.0513
   13loPI   C1A  199  11.611  16.326   9.175 -0.1935 -0.0074  0.1067
   13loPI   C2A  200  11.644  16.107   8.694 -0.2695 -0.2155  0.2253
   13loPI   C3A  201  11.733  15.756   8.443 -0.0373 -0.0303 -0.0663
   13loPI   C4A  202  12.107  15.549   8.381 -0.1718  0.1192 -0.0933
   13loPI   C5A  203  12.278  15.433   7.997  0.0871 -0.3307  0.2467
   13loPI   C6A  204  12.275  15.058   7.668 -0.0350 -0.0708 -0.1296
   13loPI   C1B  205  11.116  16.106   9.171  0.0873  0.2957  0.0549
   13loPI   C2B  206  11.151  15.932   8.715  0.0411  0.1567  0.2303
   13loPI   C3B  207  11.236  15.838   8.332  0.0693 -0.0762 -0.0064
   13loPI   C4B  208  11.171  15.664   7.970 -0.0269  0.0312 -0.2961
   14loPI    C1  209   6.777  11.379  10.152 -0.1110 -0.0515  0.1967
   14loPI    C2  210   6.577  11.186  10.439 -0.2266 -0.1647  0.0421
   14loPI    C3  211   6.886  11.421  10.534 -0.2794 -0.1811  0.2604
   14loPI   PO4  212   6.592  11.314   9.980  0.1691 -0.0962  0.1374
   14loPI   GL1  213   6.594  11.179   9.468  0.0634 -0.2356  0.0463
   14loPI   GL2  214   6.626  10.973   9.267 -0.4721  0.1628  0.3503
   14loPI   C1A  215   6.504  11.375   8.996 -0.0990  0.1873 -0.1402
   14loPI   C2A  216   6.763  11.588   8.696 -0.0043 -0.0941  0.2576
   14loPI   C3A  217   6.817  11.516   8.206 -0.1036  0.0384  0.1615
   14loPI   C4A  218   6.842  11.638   7.770 -0.0897  0.2039 -0.0640
   14loPI   C5A  219   6.880  12.007   7.559  0.0360 -0.2747  0.2032
   14loPI   C6A  220   6.534  12.116   7.158 -0.2134  0.1150  0.1153
   14loPI   C1B  221   6.678  10.657   8.832 -0.0613 -0.0631 -0.1427
   14loPI   C2B  222   6.863  10.679   8.446  0.0089  0.0744 -0.1080
   14loPI   C3B  223   6.890  10.703   7.986 -0.1905 -0.0562 -0.0981
   14loPI   C4B  224   6.852  10.806   7.461  0.1860 -0.0377  0.0601
   15loPI    C1  225  12.240   5.366  10.749 -0.0069  0.3352 -0.1272
   15loPI    C2  226  12.287   5.702  10.961  0.0845  0.2236  0.0314
   15loPI    C3  227  12.566   5.416  10.975 -0.0967  0.0465  0.0713
   15loPI   PO4  228  12.225   5.419  10.571 -0.3904 -0.0290 -0.0604
   15loPI   GL1  229  12.209   5.332  10.137 -0.0574  0.1569 -0.4495
   15loPI   GL2  230  12.162   5.644  10.085  0.2328 -0.3551  0.0633
   15loPI   C1A  231  12.342   5.313   9.728 -0.3341  0.0954 -0.0343
   15loPI   C2A  232  12.343   5.410   9.290 -0.1607  0.2301  0.0939
   15loPI   C3A  233  12.232   5.424   8.813 -0.0707  0.0782  0.3464
   15loPI   C4A  234  12.184   5.454   8.414 -0.0677 -0.2056  0.3253
   15loPI   C5A  235  12.260   5.553   7.992 -0.1326  0.1467  0.1236
   15loPI   C6A  236  12.296   5.832   7.644 -0.0117 -0.0165 -0.2510
   15loPI   C1B  237  12.072   5.709   9.604 -0.3965  0.0236 -0.2447
   15loPI   C2B  238  12.045   5.863   9.126  0.2253 -0.0220  0.1479
   15loPI   C3B  239  11.899   5.899   8.645 -0.3391  0.0335  0.2492
   15loPI   C4B  240  11.826   5.886   8.236  0.1177  0.0653 -0.1297
   16loPI    C1  241   7.557   3.144  10.240 -0.2192  0.0890  0.0310
   16loPI    C2  242   7.287   2.994  10.494  0.0440 -0.3145  0.0806
   16loPI    C3  243   7.674   3.008  10.597  0.0522  0.2377  0.0015
   16loPI   PO4  244   7.478   3.070  10.024 -0.1620  0.0776 -0.2348
   16loPI   GL1  245   7.224   2.955   9.744 -0.1282  0.0463 -0.2869
   16loPI   GL2  246   7.361   3.168   9.542 -0.0391  0.1701 -0.1481
   16loPI   C1A  247   6.921   3.101   9.404  0.1652  0.3327 -0.3386
   16loPI   C2A  248   6.792   3.104   8.920  0.0655  0.1087 -0.0535
   16loPI   C3A  249   6.801   3.217   8.495 -0.1149  0.1575  0.0593
   16loPI   C4A  250   6.585   3.160   8.076  0.1720 -0.0743  0.3162
   16loPI   C5A  251   6.662   3.263   7.645  0.0814  0.0559 -0.3095
   16loPI   C6A  252   7.026   3.287   7.460 -0.1772  0.2597 -0.1875
   16loPI   C1B  253   7.354   3.190   9.091 -0.0782  0.1697 -0.2010
   16loPI   C2B  254   7.307   3.107   8.656  0.2278  0.0788  0.1731
   16loPI   C3B  255   7.199   3.217   8.229  0.0968  0.0942 -0.1220
   16loPI   C4B  256   7.099   2.994   7.935 -0.1851  0.0671 -0.5883
   17loPI    C1  257   7.668   4.518  10.700 -0.2586 -0.0109  0.0146
   17loPI    C2  258   7.891   4.187  10.731  0.2566  0.3290  0.0683
   17loPI    C3  259   7.648   4.295  11.031  0.2221  0.0984  0.1250
   17loPI   PO4  260   7.563   4.442  10.401  0.3533 -0.0422 -0.0110
   17loPI   GL1  261   7.663   4.529   9.992  0.3595 -0.0974 -0.0664
   17loPI   GL2  262   7.367   4.416   9.899  0.1189 -0.2057  0.3139
   17loPI   C1A  263   7.686   4.191   9.550 -0.0310  0.2113  0.0994
   17loPI   C2A  264   7.703   4.144   9.052 -0.0112  0.2374 -0.1204
   17loPI   C3A  265   7.729   4.134   8.549  0.0945 -0.2911 -0.1454
   17loPI   C4A  266   7.832   3.998   8.159  0.2849 -0.0297 -0.0575
   17loPI   C5A  267   8.249   3.978   8.019  0.1229  0.1510 -0.1244
   17loPI   C6A  268   8.585   3.860   7.860 -0.0372 -0.0578  0.3887
   17loPI   C1B  269   7.303   4.652   9.592 -0.0056 -0.1227  0.0802
   17loPI   C2B  270   7.460   4.657   9.244 -0.0702  0.0527  0.2815
   17loPI   C3B  271   7.459   4.639   8.814 -0.1141  0.1308 -0.1052
   17loPI   C4B  272   7.452   4.555   8.507 -0.3830  0.2293 -0.0533
   18loPI    C1  273   1.420  13.404   9.932  0.1006  0.1045  0.0894
   18loPI    C2  274   1.552  13.572  10.270 -0.0133  0.0853  0.1437
   18loPI    C3  275   1.159  13.545  10.200  0.0095  0.6189 -0.2544
   18loPI   PO4  276   1.596  13.484   9.794  0.1369 -0.0369  0.1426
   18loPI   GL1  277   1.709  13.594   9.461  0.0656  0.3231 -0.2233
   18loPI   GL2  278   1.771  13.321   9.309  0.0267 -0.0502  0.2917
   18loPI   C1A  279   1.547  13.862   9.055 -0.0049  0.0803  0.0074
   18loPI   C2A  280   1.434  14.019   8.700  0.1313 -0.2080 -0.0843
   18loPI   C3A  281   1.578  13.894   8.353 -0.1453  0.0541 -0.1624
   18loPI   C4A  282   1.712  13.971   7.990  0.1532  0.0526  0.3478
   18loPI   C5A  283   1.920  14.142   7.664  0.2102  0.0118  0.0451
   18loPI   C6A  284   2.183  14.316   7.497  0.1251  0.3137  0.0331
   18loPI   C1B  285   1.467  13.181   8.975  0.0313 -0.1769  0.0999
   18loPI   C2B  286   1.368  12.993   8.591 -0.2680 -0.0096  0.3490
   18loPI   C3B  287   1.421  12.668   8.412  0.0003 -0.1222 -0.1498
   18loPI   C4B  288   1.507  12.486   8.092  0.0287 -0.1025  0.3009
   19loPI    C1  289  11.889   1.154  10.659  0.1198 -0.1475  0.3726
   19loPI    C2  290  12.257   1.217  10.802  0.2431  0.1352 -0.0496
   19loPI    C3  291  11.987   1.512  10.808  0.0410 -0.0496  0.1922
   19loPI   PO4  292  11.922   1.134  10.349 -0.2938  0.0211  0.0848
   19loPI   GL1  293  12.086   0.962   9.973  0.0559  0.2211 -0.2185
   19loPI   GL2  294  12.087   1.332   9.915 -0.0959  0.5898  0.0587
   19loPI   C1A  295  12.322   0.946   9.624 -0.1044 -0.0835 -0.1146
   19loPI   C2A  296  12.328   0.960   9.196  0.0523  0.4007 -0.0117
   19loPI   C3A  297  12.226   1.004   8.757  0.1927  0.0471  0.0792
   19loPI   C4A  298  12.204   0.963   8.276  0.1380 -0.5511 -0.2288
   19loPI   C5A  299  12.024   1.003   7.933 -0.0718 -0.0039 -0.1180
   19loPI   C6A  300  11.623   0.832   7.783 -0.0177 -0.2088 -0.1793
   19loPI   C1B  301  12.096   1.423   9.486 -0.0527 -0.1842  0.1704
   19loPI   C2B  302  11.961   1.332   9.139 -0.1252  0.0096 -0.1168
   19loPI   C3B  303  11.835   1.393   8.669  0.3315 -0.1069 -0.5153
   19loPI   C4B  304  12.143   1.534   8.327 -0.1163  0.4499 -0.2160
   20loPI    C1  305  18.487   2.042  10.051 -0.1517 -0.0809 -0.2650
   20loPI    C2  306  18.356   1.792   9.768 -0.2031 -0.4575  0.0808
   20loPI    C3  307  18.197   1.779  10.135 -0.0036 -0.1105  0.1839
   20loPI   PO4  308  18.663   2.260   9.837 -0.0694  0.3405 -0.0642
   20loPI   GL1  309  19.012   2.526   9.738 -0.2448  0.3600 -0.0625
   20loPI   GL2  310  19.204   2.756   9.648 -0.3422  0.2287 -0.0736
   20loPI   C1A  311  19.275   2.372   9.319  0.0296 -0.0793 -0.2157
   20loPI   C2A  312  19.184   2.542   8.960  0.0714 -0.0816  0.1722
   20loPI   C3A  313  19.055   2.527   8.537 -0.2459  0.1858 -0.1131
   20loPI   C4A  314  19.014   2.443   8.041  0.2276  0.1788  0.3474
   20loPI   C5A  315  18.828   2.665   7.765 -0.4724 -0.2490 -0.1453
   20loPI   C6A  316  18.786   2.494   7.340  0.1011  0.1870  0.2885
   20loPI   C1B  317  18.908   2.779   9.281  0.0514 -0.0371 -0.3741
   20loPI   C2B  318  18.663   2.734   8.911  0.0773  0.0185  0.1356
   20loPI   C3B  319  18.369   2.673   8.649  0.1820 -0.3155  0.0482
   20loPI   C4B  320  18.159   2.579   8.241 -0.3538 -0.0730 -0.0377
   21loPI    C1  321  10.323   9.870  10.442 -0.3205  0.1220  0.3945
   21loPI    C2  322  10.526   9.563  10.598 -0.0321  0.0734 -0.0578
   21loPI    C3  323  10.591   9.935  10.732 -0.0409 -0.0054  0.1699
   21loPI   PO4  324  10.266   9.813  10.230  0.2337  0.1011  0.1058
   21loPI   GL1  325  10.331   9.873   9.718 -0.2847 -0.0689 -0.1189
   21loPI   GL2  326  10.675   9.907   9.772  0.4072  0.0013 -0.2074
   21loPI   C1A  327  10.400  10.013   9.283  0.1732 -0.0540  0.1987
   21loPI   C2A  328  10.277  10.026   8.887 -0.0508 -0.2249  0.0796
   21loPI   C3A  329  10.264  10.302   8.504 -0.1601 -0.1383  0.0265
   21loPI   C4A  330  10.323  10.284   8.001 -0.4390 -0.0389 -0.2385
   21loPI   C5A  331  10.171  10.390   7.777  0.0580 -0.2613 -0.2157
   21loPI   C6A  332   9.756  10.383   7.703 -0.0666 -0.2443  0.0424
   21loPI   C1B  333  10.830   9.897   9.442  0.1357  0.2061 -0.0450
   21loPI   C2B  334  10.829   9.844   8.944 -0.0401 -0.3344  0.2849
   21loPI   C3B  335  10.575   9.842   8.486  0.1473 -0.0715  0.0012
   21loPI   C4B  336  10.595   9.818   8.068  0.2374 -0.1669 -0.0559
   22loPI    C1  337   6.957  15.205  10.293 -0.2065 -0.1527 -0.0873
   22loPI    C2  338   6.684  15.495  10.255 -0.0844 -0.0751 -0.4007
   22loPI    C3  339   6.646  15.221  10.544  0.0165  0.4893  0.1692
   22loPI   PO4  340   7.020  15.136   9.995 -0.0547  0.0708 -0.0142
   22loPI   GL1  341   7.210  15.300   9.645 -0.3097 -0.0293  0.1071
   22loPI   GL2  342   7.631  15.259   9.486  0.3415  0.0558 -0.3266
   22loPI   C1A  343   7.129  15.336   9.261 -0.0966 -0.1600 -0.1705
   22loPI   C2A  344   7.009  15.240   8.831 -0.3108  0.2871 -0.0393
   22loPI   C3A  345   6.639  15.275   8.571 -0.0948  0.1555  0.1129
   22loPI   C4A  346   6.558  15.166   8.113  0.2432  0.4086 -0.3301
   22loPI   C5A  347   6.591  15.076   7.644 -0.0986  0.0005  0.3827
   22loPI   C6A  348   6.827  15.060   7.189 -0.1043  0.2220  0.1376
   22loPI   C1B  349   7.655  15.327   9.098 -0.0149  0.1535  0.0067
   22loPI   C2B  350   7.511  15.250   8.625  0.1576  0.0503 -0.0695
   22loPI   C3B  351   7.541  15.193   8.242 -0.0213  0.0993 -0.0853
   22loPI   C4B  352   7.478  15.081   7.780  0.3120  0.1283 -0.0899
   23loPI    C1  353  15.417   9.152  10.378  0.0978 -0.1253 -0.1106
   23loPI    C2  354  15.712   9.231  10.636  0.0400  0.1678 -0.1307
   23loPI    C3  355  15.387   9.032  10.758  0.0796  0.1736 -0.0151
   23loPI   PO4  356  15.587   9.165  10.142 -0.4588  0.2447  0.4884
   23loPI   GL1  357  15.568   8.862   9.875  0.0234  0.1368  0.1450
   23loPI   GL2  358  15.777   9.128   9.733  0.1372  0.2568 -0.2199
   23loPI   C1A  359  15.421   8.880   9.517 -0.0309  0.0554 -0.1531
   23loPI   C2A  360  15.202   8.754   9.104  0.1893  0.1296 -0.0590
   23loPI   C3A  361  14.828   8.510   8.889  0.1985  0.1719 -0.0183
   23loPI   C4A  362  14.442   8.677   8.722 -0.0451 -0.1491 -0.2711
   23loPI   C5A  363  14.324   8.941   8.350 -0.0343  0.2129 -0.1342
   23loPI   C6A  364  14.658   9.044   8.126 -0.0047 -0.0003 -0.0894
   23loPI   C1B  365  16.075   9.261   9.440  0.2600  0.0330  0.2382
   23loPI   C2B  366  16.202   9.548   9.109 -0.4839  0.1036 -0.1925
   23loPI   C3B  367  16.307   9.748   8.649  0.0108 -0.1446 -0.2182
   23loPI   C4B  368  16.422  10.002   8.342 -0.1097  0.0775 -0.0663
   24loPI    C1  369  18.061   2.243  10.106  0.1272 -0.0542 -0.2375
   24loPI    C2  370  17.918   2.478  10.397  0.3788  0.0302 -0.1796
   24loPI    C3  371  18.275   2.301  10.439  0.2963 -0.1747 -0.3234
   24loPI   PO4  372  18.051   2.258   9.924  0.2567  0.1190  0.1340
   24loPI   GL1  373  18.309   2.201   9.475  0.0101  0.2525  0.1302
   24loPI   GL2  374  18.623   2.262   9.333  0.0133 -0.1844  0.3025
   24loPI   C1A  375  18.270   1.940   9.233  0.2010  0.1245  0.0638
   24loPI   C2A  376  18.181   1.911   8.782  0.2511 -0.2979  0.2114
   24loPI   C3A  377  18.117   2.094   8.278 -0.0917  0.1619  0.0469
   24loPI   C4A  378  18.071   2.177   7.907  0.0787  0.1904  0.1110
   24loPI   C5A  379  17.986   1.890   7.580  0.0422  0.0907  0.2362
   24loPI   C6A  380  17.997   1.914   7.151  0.0202 -0.2774 -0.0137
   24loPI   C1B  381  18.895   2.106   9.150  0.2846 -0.0245 -0.1684
   24loPI   C2B  382  19.126   2.104   8.842  0.0846 -0.1236  0.5275
   24loPI   C3B  383  19.110   2.046   8.400  0.0421 -0.0129 -0.0426
   24loPI   C4B  384  18.924   1.958   8.106  0.2082  0.1392  0.3461
   25loPI    C1  385  10.384  11.815  10.205  0.1494  0.0786  0.1821
   25loPI    C2  386  10.070  11.677  10.411  0.0097  0.2332  0.0747
   25loPI    C3  387  10.439  11.643  10.562 -0.0560  0.0336  0.1930
   25loPI   PO4  388  10.302  11.772   9.966 -0.2176  0.1857  0.0233
   25loPI   GL1  389  10.464  11.741   9.532  0.3345 -0.0161  0.1527
   25loPI   GL2  390  10.165  11.553   9.551 -0.1922 -0.2449  0.0703
   25loPI   C1A  391  10.667  11.815   9.047  0.0276 -0.0608 -0.0029
   25loPI   C2A  392  10.672  11.675   8.654 -0.0417 -0.3458  0.0304
   25loPI   C3A  393  10.668  11.698   8.183 -0.1214 -0.2135  0.0598
   25loPI   C4A  394  10.932  11.757   7.831 -0.1864 -0.2659  0.1011
   25loPI   C5A  395  10.975  11.618   7.433  0.1465 -0.2365 -0.1176
   25loPI   C6A  396  11.010  11.233   7.218 -0.1463  0.3993  0.0308
   25loPI   C1B  397  10.134  11.675   9.142  0.1108 -0.0287  0.1521
   25loPI   C2B  398  10.188  11.989   8.821  0.1766 -0.3956  0.2357
   25loPI   C3B  399  10.291  12.111   8.406 -0.1201  0.0741 -0.1048
   25loPI   C4B  400  10.532  12.172   8.104 -0.3297 -0.2177 -0.0213
   26loPI    C1  401  13.242  15.145  10.184  0.4501  0.4397 -0.2323
   26loPI    C2  402  13.514  14.929  10.382  0.2457  0.0629 -0.3511
   26loPI    C3  403  13.401  15.286  10.522 -0.0161 -0.2639  0.3103
   26loPI   PO4  404  13.284  15.046   9.937 -0.2744 -0.2808 -0.0930
   26loPI   GL1  405  13.466  14.818   9.643 -0.0856 -0.3735 -0.1024
   26loPI   GL2  406  13.189  14.790   9.554  0.0140 -0.1577 -0.0761
   26loPI   C1A  407  13.776  14.831   9.285 -0.2222 -0.0980  0.3888
   26loPI   C2A  408  13.853  14.896   8.903 -0.0062 -0.1476 -0.0663
   26loPI   C3A  409  13.839  14.967   8.448  0.4063  0.0838  0.2713
   26loPI   C4A  410  13.822  14.959   7.983  0.1647 -0.2726  0.2727
   26loPI   C5A  411  13.803  14.992   7.596 -0.0539 -0.2266  0.2320
   26loPI   C6A  412  13.645  14.809   7.274 -0.1463  0.1443  0.2496
   26loPI   C1B  413  13.292  14.718   9.135  0.0534 -0.0509 -0.1118
   26loPI   C2B  414  13.516  14.646   8.728  0.0974  0.0062 -0.1314
   26loPI   C3B  415  13.698  14.561   8.216 -0.2427 -0.1484  0.0452
   26loPI   C4B  416  13.509  14.525   7.690  0.0267 -0.1431  0.0283
   27loPI    C1  417   7.844   6.634   9.923 -0.0041 -0.1504 -0.5879
   27loPI    C2  418   8.087   6.334   9.817  0.1250 -0.1523 -0.2957
   27loPI    C3  419   7.818   6.280  10.108  0.2173  0.0441 -0.1727
   27loPI   PO4  420   7.914   6.854   9.718 -0.3853  0.3209  0.1650
   27loPI   GL1  421   7.716   6.992   9.385 -0.3862 -0.2810  0.3359
   27loPI   GL2  422   7.432   7.157   9.359  0.1911 -0.1189  0.1883
   27loPI   C1A  423   7.641   7.061   8.940 -0.1050 -0.1529 -0.3147
   27loPI   C2A  424   7.934   7.166   8.550 -0.3444  0.1436 -0.0903
   27loPI   C3A  425   7.835   7.057   8.088 -0.0192  0.4723 -0.0271
   27loPI   C4A  426   7.790   6.974   7.650 -0.0875 -0.4492 -0.1345
   27loPI   C5A  427   7.396   6.942   7.324  0.2248 -0.0476 -0.1117
   27loPI   C6A  428   6.953   6.985   7.302  0.1186  0.0933 -0.2425
   27loPI   C1B  429   7.288   7.458   8.946  0.0734 -0.0921 -0.1912
   27loPI   C2B  430   7.063   7.440   8.544  0.1896  0.0794 -0.1411
   27loPI   C3B  431   7.151   7.341   8.106  0.0252 -0.1085  0.1118
   27loPI   C4B  432   7.337   7.089   7.786 -0.0505  0.1921  0.1402
   28loPI    C1  433  17.730  17.667   9.967 -0.1255 -0.1998  0.1449
   28loPI    C2  434  17.753  17.952   9.689 -0.0519 -0.0919  0.2604
   28loPI    C3  435  17.470  17.970   9.971  0.0474 -0.0509  0.3579
   28loPI   PO4  436  17.834  17.489   9.837  0.0961  0.0615  0.0496
   28loPI   GL1  437  17.741  17.328   9.440 -0.0020  0.0066  0.2790
   28loPI   GL2  438  17.958  17.061   9.624 -0.1474 -0.3055  0.0800
   28loPI   C1A  439  17.763  17.231   9.058 -0.2509  0.0321 -0.2108
   28loPI   C2A  440  17.881  17.246   8.589 -0.2675  0.1357 -0.2379
   28loPI   C3A  441  18.268  17.066   8.265  0.0994  0.1934 -0.1942
   28loPI   C4A  442  18.441  16.677   8.034  0.0398  0.1102  0.0444
   28loPI   C5A  443  18.857  16.583   7.851  0.0709 -0.0060  0.1157
   28loPI   C6A  444  19.204  16.596   7.710 -0.0591  0.3222  0.2241
   28loPI   C1B  445  18.195  17.069   9.280  0.0681  0.0747 -0.1780
   28loPI   C2B  446  18.291  17.284   8.955  0.0374  0.2146  0.1263
   28loPI   C3B  447  18.587  17.490   8.836 -0.1062  0.0305  0.1506
   28loPI   C4B  448  18.986  17.674   8.967 -0.0111  0.0105  0.0098
   29loPI    C1  449   3.780  17.102  10.047 -0.0138 -0.1400 -0.2243
   29loPI    C2  450   3.925  17.342  10.332  0.0191 -0.2611 -0.1379
   29loPI    C3  451   4.132  17.285   9.995 -0.0234 -0.1118 -0.1900
   29loPI   PO4  452   3.566  17.277   9.952 -0.2090 -0.0776  0.5132
   29loPI   GL1  453   3.601  17.459   9.507  0.3274 -0.2447  0.1582
   29loPI   GL2  454   3.861  17.634   9.725  0.1365 -0.4983 -0.0212
   29loPI   C1A  455   3.536  17.113   9.315 -0.1316  0.3773  0.1676
   29loPI   C2A  456   3.508  17.147   8.842  0.1094 -0.0553 -0.0035
   29loPI   C3A  457   3.331  17.185   8.528  0.5104 -0.1737  0.1166
   29loPI   C4A  458   3.361  17.495   8.128  0.2477  0.2024 -0.1903
   29loPI   C5A  459   3.174  17.643   7.803  0.0536  0.1351  0.0054
   29loPI   C6A  460   2.883  17.580   7.426  0.0599  0.0617  0.2268
   29loPI   C1B  461   4.031  17.338   9.346  0.0291  0.2131 -0.0344
   29loPI   C2B  462   4.037  17.187   8.891 -0.0076 -0.1843  0.0133
   29loPI   C3B  463   3.829  17.030   8.516  0.0083 -0.2067  0.1263
   29loPI   C4B  464   3.687  17.157   8.149 -0.2386 -0.1105  0.0912
   30loPI    C1  465   0.698  10.714  10.141  0.3105  0.3680 -0.0908
   30loPI    C2  466   0.788  10.783  10.525  0.3144  0.0886 -0.0400
   30loPI    C3  467   0.952  10.472  10.334  0.0850  0.0530 -0.1826
   30loPI   PO4  468   0.775  10.963   9.941 -0.2363  0.0586  0.0714
   30loPI   GL1  469   0.659  11.131   9.570 -0.0932  0.0834  0.2254
   30loPI   GL2  470   0.418  10.913   9.448  0.1747  0.0166  0.2563
   30loPI   C1A  471   0.481  11.455   9.365  0.2047  0.1254  0.1210
   30loPI   C2A  472   0.334  11.452   8.864  0.2422 -0.1430 -0.0047
   30loPI   C3A  473   0.330  11.438   8.331 -0.4716 -0.1999  0.2998
   30loPI   C4A  474   0.470  11.201   8.046 -0.2947 -0.0099 -0.1062
   30loPI   C5A  475   0.552  11.168   7.646  0.1709 -0.1560  0.3249
   30loPI   C6A  476   0.876  11.288   7.336  0.0036 -0.1790  0.1510
   30loPI   C1B  477   0.460  10.979   9.048 -0.0791  0.1254 -0.0359
   30loPI   C2B  478   0.303  10.791   8.687  0.0415 -0.0023 -0.0627
   30loPI   C3B  479   0.200  10.716   8.159  0.0611  0.2187 -0.0444
   30loPI   C4B  480   0.255  10.718   7.729  0.0507  0.0770 -0.1189
   31loPI    C1  481  15.852   4.497   9.931 -0.2085 -0.3844  0.0819
   31loPI    C2  482  15.811   4.441  10.324 -0.1554 -0.0045  0.1457
   31loPI    C3  483  15.513   4.344  10.076 -0.2096 -0.1964  0.2831
   31loPI   PO4  484  16.102   4.390   9.851 -0.2375  0.2578 -0.1694
   31loPI   GL1  485  16.219   4.227   9.594  0.1482  0.1237  0.1268
   31loPI   GL2  486  16.103   3.883   9.557 -0.0178  0.0097 -0.2629
   31loPI   C1A  487  15.864   4.237   9.245  0.0000  0.1842  0.0247
   31loPI   C2A  488  15.692   4.369   8.901  0.0731  0.0511 -0.0042
   31loPI   C3A  489  15.777   4.453   8.474 -0.2909  0.3490 -0.1618
   31loPI   C4A  490  15.529   4.593   8.090  0.3696 -0.3295  0.0974
   31loPI   C5A  491  15.164   4.507   7.938  0.4715  0.2654  0.2005
   31loPI   C6A  492  14.953   4.168   7.884 -0.0787  0.2536  0.0490
   31loPI   C1B  493  16.034   3.722   9.168 -0.3583  0.1854 -0.2344
   31loPI   C2B  494  16.086   4.023   8.702  0.1552  0.0438  0.0738
   31loPI   C3B  495  15.955   3.996   8.275 -0.2282 -0.0034  0.2791
   31loPI   C4B  496  15.959   4.264   7.821  0.5798  0.2523 -0.3039
   32loPI    C1  497   9.295   1.851  10.561 -0.0498 -0.0419  0.0446
   32loPI    C2  498   9.432   1.745  10.921  0.0266 -0.0146  0.0237
   32loPI    C3  499   9.274   2.108  10.866  0.1385  0.0308 -0.0021
   32loPI   PO4  500   9.121   1.687  10.499 -0.0418  0.0827  0.1395
   32loPI   GL1  501   8.886   1.474  10.141 -0.4032 -0.1128  0.0205
   32loPI   GL2  502   9.176   1.425  10.060 -0.0499  0.1792  0.0258
   32loPI   C1A  503   8.902   1.722   9.803 -0.2248 -0.1092 -0.2648
   32loPI   C2A  504   9.047   1.708   9.376  0.1031  0.2981  0.1445
   32loPI   C3A  505   9.054   1.846   8.923  0.0344  0.0656  0.0952
   32loPI   C4A  506   9.024   1.788   8.493  0.0466 -0.4302 -0.0740
   32loPI   C5A  507   9.034   1.659   8.085  0.0232 -0.0995 -0.0865
   32loPI   C6A  508   9.312   1.686   7.639  0.1616  0.1000 -0.3406
   32loPI   C1B  509   9.357   1.420   9.682  0.0113 -0.2792 -0.0148
   32loPI   C2B  510   9.340   1.397   9.144 -0.2312 -0.0038  0.0109
   32loPI   C3B  511   9.370   1.407   8.762 -0.2930  0.0720  0.2563
   32loPI   C4B  512   9.239   1.358   8.455 -0.1200  0.1133 -0.2503
   33loPI    C1  513  11.089   6.932  10.279 -0.1243  0.1582 -0.0715
   33loPI    C2  514  11.278   6.869  10.626 -0.0354 -0.0382 -0.1540
   33loPI    C3  515  11.093   7.217  10.559 -0.2666 -0.0905  0.1895
   33loPI   PO4  516  11.250   6.904  10.164  0.2030  0.4196 -0.1003
   33loPI   GL1  517  11.362   6.650   9.840 -0.1155 -0.1571  0.1796
   33loPI   GL2  518  11.070   6.818   9.671 -0.1056  0.0368  0.0611
   33loPI   C1A  519  11.516   6.872   9.517  0.1734  0.1891 -0.0970
   33loPI   C2A  520  11.775   6.873   9.106  0.0577 -0.0046  0.0186
   33loPI   C3A  521  11.839   6.776   8.661 -0.2414  0.0745 -0.4368
   33loPI   C4A  522  12.177   6.813   8.460 -0.1807 -0.1966  0.2131
   33loPI   C5A  523  12.052   6.932   7.983 -0.1590 -0.0152  0.0471
   33loPI   C6A  524  12.234   7.290   7.679 -0.0895  0.1382  0.0032
   33loPI   C1B  525  11.050   6.994   9.268 -0.0381 -0.0205  0.0079
   33loPI   C2B  526  10.891   6.919   8.898 -0.0245 -0.3025  0.4429
   33loPI   C3B  527  11.044   6.881   8.438  0.1407  0.1027 -0.1817
   33loPI   C4B  528  11.345   6.904   8.060 -0.1438 -0.0019  0.1943
   34loPI    C1  529  10.422   2.810  10.380  0.1870  0.0756 -0.0082
   34loPI    C2  530  10.191   2.773  10.705 -0.0369  0.0959 -0.1629
   34loPI    C3  531  10.564   2.915  10.739  0.0301 -0.1380  0.1184
   34loPI   PO4  532  10.304   2.860  10.234  0.1173  0.3854 -0.1512
   34loPI   GL1  533  10.126   3.061   9.900  0.3402 -0.1032  0.1956
   34loPI   GL2  534  10.395   3.256   9.835  0.0740 -0.0150 -0.0560
   34loPI   C1A  535  10.149   2.771   9.499 -0.0424  0.2990  0.1812
   34loPI   C2A  536  10.214   2.630   9.089  0.3130 -0.3131  0.1082
   34loPI   C3A  537  10.091   2.664   8.743  0.1653  0.3322  0.0271
   34loPI   C4A  538  10.005   2.787   8.334  0.1007  0.3635  0.1984
   34loPI   C5A  539  10.036   2.813   7.859  0.2088  0.0988 -0.2243
   34loPI   C6A  540  10.136   2.760   7.411 -0.1748  0.0386 -0.0200
   34loPI   C1B  541  10.327   3.269   9.427  0.1908 -0.1269 -0.2479
   34loPI   C2B  542  10.252   3.115   9.126  0.0828  0.0289  0.2248
   34loPI   C3B  543  10.236   3.120   8.766 -0.2047 -0.1666 -0.1139
   34loPI   C4B  544  10.217   3.296   8.348 -0.0581 -0.0024  0.2557
   35loPI    C1  545  16.978  14.161  10.165  0.0401 -0.0039  0.0287
   35loPI    C2  546  16.716  14.432  10.299 -0.0921 -0.2149  0.2049
   35loPI    C3  547  17.081  14.408  10.462 -0.0299 -0.0505  0.0924
   35loPI   PO4  548  16.946  14.298   9.881 -0.1895  0.4035 -0.0669
   35loPI   GL1  549  16.748  14.122   9.485  0.1433  0.3216  0.1416
   35loPI   GL2  550  16.764  13.846   9.493  0.1271 -0.0405  0.0892
   35loPI   C1A  551  16.920  14.315   9.108  0.2212 -0.0036  0.5391
   35loPI   C2A  552  16.816  14.362   8.652 -0.3749  0.2816  0.1332
   35loPI   C3A  553  16.768  14.166   8.244 -0.2069 -0.1976 -0.2796
   35loPI   C4A  554  16.848  14.062   7.807  0.4314  0.2094 -0.0854
   35loPI   C5A  555  16.791  14.418   7.507 -0.4053  0.4132 -0.0082
   35loPI   C6A  556  17.021  14.825   7.499  0.1557 -0.3777 -0.1976
   35loPI   C1B  557  16.760  13.879   8.957 -0.1201 -0.0096 -0.1510
   35loPI   C2B  558  17.071  13.788   8.561 -0.3078 -0.1092 -0.6513
   35loPI   C3B  559  16.959  13.530   8.194 -0.3387 -0.1227 -0.0767
   35loPI   C4B  560  16.961  13.561   7.747 -0.3846 -0.0599  0.0497
   36loPI    C1  561  18.472   5.415  10.000 -0.2578 -0.0037 -0.0596
   36loPI    C2  562  18.246   5.564  10.294 -0.1884 -0.4500  0.2285
   36loPI    C3  563  18.629   5.472  10.363 -0.0133 -0.0469 -0.1564
   36loPI   PO4  564  18.481   5.581   9.839 -0.0311  0.0638  0.1217
   36loPI   GL1  565  18.377   5.900   9.563  0.0374  0.1787  0.1179
   36loPI   GL2  566  18.103   5.745   9.458  0.4093  0.4692 -0.3222
   36loPI   C1A  567  18.575   6.174   9.244  0.0224 -0.5547 -0.0942
   36loPI   C2A  568  18.500   6.141   8.812 -0.2278 -0.3037 -0.0071
   36loPI   C3A  569  18.426   6.171   8.337  0.2122 -0.0773  0.0634
   36loPI   C4A  570  18.381   6.366   7.958 -0.1887 -0.0989 -0.0141
   36loPI   C5A  571  18.248   6.219   7.541 -0.0059  0.1704 -0.0426
   36loPI   C6A  572  17.924   6.476   7.278  0.2644  0.2695  0.1560
   36loPI   C1B  573  18.329   5.681   9.046  0.2398 -0.2590 -0.2491
   36loPI   C2B  574  18.386   5.727   8.620 -0.0096  0.0006 -0.0003
   36loPI   C3B  575  18.526   5.520   8.189  0.3084  0.2256  0.0958
   36loPI   C4B  576  18.456   5.217   7.899 -0.1129  0.2707 -0.0887
   37loPI    C1  577   3.909  18.721  10.159 -0.2622 -0.2309 -0.1146
   37loPI    C2  578   3.783  19.067  10.317  0.1833 -0.0069 -0.2319
   37loPI    C3  579   3.836  18.747  10.551  0.1478  0.1165 -0.0537
   37loPI   PO4  580   3.617  18.684   9.946  0.1469 -0.1185 -0.0505
   37loPI   GL1  581   3.528  18.720   9.497 -0.0398  0.0610  0.3431
   37loPI   GL2  582   3.291  18.627   9.324  0.3468 -0.0922 -0.4828
   37loPI   C1A  583   3.716  18.937   9.167 -0.0465  0.2147 -0.0971
   37loPI   C2A  584   3.866  19.229   9.005  0.1170  0.0781 -0.3279
   37loPI   C3A  585   3.873  19.374   8.565  0.0230 -0.2155 -0.1665
   37loPI   C4A  586   3.888  19.314   8.083  0.1982  0.0411  0.1452
   37loPI   C5A  587   3.966  19.414   7.615  0.2612 -0.0694 -0.2052
   37loPI   C6A  588   4.128  19.530   7.216  0.2515  0.0268 -0.1119
   37loPI   C1B  589   3.319  18.669   8.947  0.2106 -0.0103  0.0817
   37loPI   C2B  590   3.266  18.583   8.507 -0.0589 -0.0041 -0.4423
   37loPI   C3B  591   3.219  18.611   8.043  0.0668  0.2976 -0.1374
   37loPI   C4B  592   3.310  18.534   7.590  0.1248 -0.1162 -0.4196
   38loPI    C1  593  18.186  18.509  10.192  0.0336  0.0283  0.0274
   38loPI    C2  594  18.334  18.537  10.562 -0.1514  0.0061  0.1043
   38loPI    C3  595  17.945  18.460  10.508 -0.1079 -0.0797 -0.0953
   38loPI   PO4  596  18.304  18.641  10.079 -0.0039 -0.1138 -0.0451
   38loPI   GL1  597  18.163  18.866   9.756  0.4020 -0.0506  0.2210
   38loPI   GL2  598  17.992  18.605   9.644 -0.0400 -0.0804 -0.0576
   38loPI   C1A  599  18.457  18.641   9.364  0.0777 -0.0403  0.1293
   38loPI   C2A  600  18.603  18.461   8.929  0.0057 -0.2985 -0.0417
   38loPI   C3A  601  18.426  18.608   8.463  0.1010 -0.1594 -0.1495
   38loPI   C4A  602  18.111  18.560   8.150 -0.3744 -0.0900 -0.0745
   38loPI   C5A  603  17.984  18.885   7.954  0.2792  0.0112 -0.2513
   38loPI   C6A  604  17.955  19.273   7.708 -0.0459 -0.2042  0.4814
   38loPI   C1B  605  18.020  18.863   9.195  0.1545 -0.1842  0.4429
   38loPI   C2B  606  18.272  18.838   8.863  0.2104  0.2461  0.0748
   38loPI   C3B  607  18.158  19.089   8.545  0.0908  0.0722  0.1169
   38loPI   C4B  608  17.801  19.227   8.255 -0.0865  0.1067 -0.2933
   39loPI    C1  609   2.913   2.192  10.292  0.1985 -0.1374  0.1033
   39loPI    C2  610   2.719   2.126  10.636  0.0667  0.0753  0.0717
   39loPI    C3  611   3.096   2.259  10.642  0.0672  0.0714  0.1338
   39loPI   PO4  612   2.846   1.978  10.156 -0.1217 -0.0793 -0.1258
   39loPI   GL1  613   2.705   1.794   9.803 -0.0387 -0.1149 -0.2033
   39loPI   GL2  614   2.956   1.873   9.696 -0.0208 -0.1057  0.1702
   39loPI   C1A  615   2.557   1.570   9.403 -0.3292 -0.2095 -0.2067
   39loPI   C2A  616   2.579   1.546   8.948 -0.1591  0.0098  0.1994
   39loPI   C3A  617   2.452   1.767   8.557 -0.1237  0.2482  0.2846
   39loPI   C4A  618   2.634   1.794   8.131  0.3810 -0.0815  0.0266
   39loPI   C5A  619   2.531   1.953   7.753 -0.0604  0.0042 -0.0666
   39loPI   C6A  620   2.699   1.817   7.372 -0.0223 -0.1948 -0.3423
   39loPI   C1B  621   2.976   1.881   9.233  0.1242  0.1838 -0.0977
   39loPI   C2B  622   3.262   2.129   8.999  0.0088 -0.0805  0.0911
   39loPI   C3B  623   3.414   2.260   8.633  0.1924 -0.3806 -0.0899
   39loPI   C4B  624   3.623   2.272   8.240 -0.1113  0.1853  0.0490
   40loPI    C1  625  15.771  12.661  10.041  0.0921 -0.1180 -0.0550
   40loPI    C2  626  15.827  12.654  10.437 -0.2181 -0.0343 -0.0068
   40loPI    C3  627  15.456  12.657  10.287 -0.1035  0.0388 -0.2973
   40loPI   PO4  628  15.873  12.962   9.931  0.0801 -0.1769  0.1845
   40loPI   GL1  629  15.976  12.993   9.538 -0.0935  0.0401  0.0292
   40loPI   GL2  630  16.230  12.970   9.517 -0.1639 -0.0682 -0.0626
   40loPI   C1A  631  15.776  13.019   9.180  0.0551 -0.0699  0.0729
   40loPI   C2A  632  15.820  13.006   8.787 -0.2456 -0.1308 -0.1013
   40loPI   C3A  633  15.891  12.811   8.339 -0.0498  0.0952 -0.1573
   40loPI   C4A  634  16.114  12.882   7.961  0.2278 -0.1421  0.1893
   40loPI   C5A  635  16.263  13.399   7.813  0.0603 -0.0053  0.1295
   40loPI   C6A  636  16.497  13.716   7.845  0.5166  0.0519  0.1927
   40loPI   C1B  637  16.296  12.926   8.973 -0.0798  0.2122 -0.0658
   40loPI   C2B  638  16.630  12.908   8.657 -0.1430 -0.2073  0.0698
   40loPI   C3B  639  16.988  13.057   8.344 -0.0007  0.2074  0.0356
   40loPI   C4B  640  17.028  13.110   7.865  0.2782  0.0941  0.4037
   41loPI    C1  641  17.623   3.360   9.687  0.0946  0.1293  0.0308
   41loPI    C2  642  17.423   3.149   9.962 -0.0943 -0.1186 -0.2890
   41loPI    C3  643  17.271   3.492   9.823 -0.0982 -0.0985 -0.2356
   41loPI   PO4  644  17.875   3.245   9.788  0.0748 -0.0080  0.1365
   41loPI   GL1  645  18.124   3.059   9.534  0.0142  0.1552  0.1461
   41loPI   GL2  646  18.367   2.783   9.358  0.0717 -0.2102 -0.0439
   41loPI   C1A  647  17.800   3.210   9.165 -0.0828  0.1983 -0.2553
   41loPI   C2A  648  17.612   3.438   8.782 -0.0639 -0.2679 -0.0695
   41loPI   C3A  649  17.754   3.564   8.374 -0.0507 -0.0153 -0.0673
   41loPI   C4A  650  17.659   3.417   7.923  0.0237  0.0681 -0.0457
   41loPI   C5A  651  17.456   3.117   7.765 -0.0326 -0.1564 -0.0741
   41loPI   C6A  652  17.101   2.995   7.598 -0.3020  0.0472  0.0158
   41loPI   C1B  653  18.203   3.023   8.999  0.0049  0.0189 -0.2073
   41loPI   C2B  654  17.966   3.139   8.639 -0.1778 -0.2315 -0.1700
   41loPI   C3B  655  17.819   2.978   8.240  0.0731 -0.2250 -0.0022
   41loPI   C4B  656  17.774   2.725   7.839 -0.1841 -0.0887 -0.3220
   42loPI    C1  657   3.461  11.878   9.972 -0.2253  0.3137 -0.0258
   42loPI    C2  658   3.300  11.515  10.024  0.1786  0.1201 -0.0843
   42loPI    C3  659   3.198  11.816  10.267 -0.1809 -0.0226 -0.0525
   42loPI   PO4  660   3.420  11.879   9.643 -0.0625  0.0992  0.1594
   42loPI   GL1  661   3.233  11.683   9.186 -0.1599 -0.0842 -0.1538
   42loPI   GL2  662   3.032  11.438   9.067 -0.0529 -0.0849  0.3988
   42loPI   C1A  663   3.546  11.474   8.875  0.0220 -0.1886  0.2768
   42loPI   C2A  664   3.587  11.362   8.419  0.0894 -0.0865  0.0158
   42loPI   C3A  665   3.702  11.048   8.117  0.0629 -0.0770 -0.1233
   42loPI   C4A  666   3.334  10.880   7.818  0.0919 -0.0132  0.0637
   42loPI   C5A  667   3.097  10.940   7.495  0.0772  0.3758  0.0362
   42loPI   C6A  668   2.679  10.926   7.104 -0.1921 -0.1180 -0.0927
   42loPI   C1B  669   3.109  11.645   8.593  0.0163  0.1097  0.2304
   42loPI   C2B  670   3.099  11.745   8.128 -0.0580 -0.1162 -0.1977
   42loPI   C3B  671   2.900  11.658   7.686  0.0287 -0.5292 -0.0348
   42loPI   C4B  672   2.791  11.332   7.450 -0.1436  0.1384  0.0928
   43loPI    C1  673   8.986  16.510  10.437 -0.1243  0.3110  0.2235
   43loPI    C2  674   9.276  16.519  10.712  0.0257 -0.2560  0.0952
   43loPI    C3  675   8.931  16.333  10.791 -0.1053 -0.0304  0.0599
   43loPI   PO4  676   9.034  16.473  10.157  0.2102  0.1293 -0.0156
   43loPI   GL1  677   9.121  16.871   9.813 -0.2326 -0.0193 -0.0003
   43loPI   GL2  678   8.824  16.651   9.722 -0.2521 -0.1085 -0.0522
   43loPI   C1A  679   9.069  17.089   9.458  0.0840  0.0479 -0.1966
   43loPI   C2A  680   9.189  17.132   9.041 -0.0574 -0.0588  0.1499
   43loPI   C3A  681   9.143  17.077   8.574 -0.0961  0.0752  0.0309
   43loPI   C4A  682   9.278  17.056   8.260 -0.2133  0.0930 -0.1823
   43loPI   C5A  683   9.213  16.849   7.816 -0.2676  0.1886  0.0704
   43loPI   C6A  684   9.194  16.580   7.354 -0.0173  0.1412 -0.1747
   43loPI   C1B  685   8.867  16.638   9.293 -0.2927  0.1999 -0.1604
   43loPI   C2B  686   8.931  16.680   8.828 -0.0881 -0.2226 -0.0252
   43loPI   C3B  687   8.923  16.617   8.320 -0.1433 -0.0974  0.0826
   43loPI   C4B  688   8.749  16.676   7.909 -0.0089  0.2855  0.3245
   44loPI    C1  689   8.632  16.770  10.776  0.0339  0.3272 -0.1230
   44loPI    C2  690   8.273  16.896  10.898 -0.0334 -0.0225  0.0530
   44loPI    C3  691   8.582  16.894  11.152  0.0374  0.0580 -0.0316
   44loPI   PO4  692   8.521  16.586  10.530  0.0962  0.2932 -0.3122
   44loPI   GL1  693   8.327  16.798  10.101 -0.0438  0.2222  0.1457
   44loPI   GL2  694   8.154  16.427  10.083  0.0719  0.1611 -0.1476
   44loPI   C1A  695   8.090  16.990   9.691 -0.0115 -0.1316 -0.1810
   44loPI   C2A  696   8.124  17.043   9.153 -0.2046  0.2574  0.0036
   44loPI   C3A  697   8.146  17.071   8.789  0.2453  0.1746 -0.1084
   44loPI   C4A  698   8.095  17.015   8.490 -0.1303  0.1231  0.0844
   44loPI   C5A  699   8.249  16.866   7.972  0.1873 -0.1550  0.0012
   44loPI   C6A  700   8.278  16.845   7.501 -0.3590  0.3620 -0.0390
   44loPI   C1B  701   8.337  16.402   9.757 -0.0952  0.0376  0.0131
   44loPI   C2B  702   8.409  16.571   9.343  0.1021  0.0082  0.1316
   44loPI   C3B  703   8.412  16.613   8.826 -0.0353 -0.1147 -0.0209
   44loPI   C4B  704   8.403  16.610   8.373  0.2206  0.2680 -0.1659
   45loPI    C1  705   8.072  10.294  10.076  0.0507 -0.3131 -0.1480
   45loPI    C2  706   8.349  10.457  10.313 -0.2256  0.2151 -0.1724
   45loPI    C3  707   8.028  10.280  10.473 -0.1309  0.0598 -0.1511
   45loPI   PO4  708   8.161  10.182   9.839  0.0544  0.0404  0.2659
   45loPI   GL1  709   8.236  10.368   9.430  0.2930 -0.0623  0.1776
   45loPI   GL2  710   8.476  10.645   9.350 -0.0041  0.2729  0.1753
   45loPI   C1A  711   8.076  10.554   9.048  0.1489 -0.1184 -0.1501
   45loPI   C2A  712   8.034  10.790   8.741  0.0774 -0.2643  0.0397
   45loPI   C3A  713   8.091  11.023   8.314  0.1606  0.1191 -0.3486
   45loPI   C4A  714   8.190  10.985   7.906  0.0156 -0.1436 -0.3260
   45loPI   C5A  715   7.784  10.986   7.575 -0.1266  0.0086 -0.1538
   45loPI   C6A  716   7.326  10.853   7.716 -0.4388 -0.0530  0.1043
   45loPI   C1B  717   8.525  10.801   8.972 -0.0964 -0.0900  0.4985
   45loPI   C2B  718   8.580  10.849   8.434  0.0535 -0.0302 -0.0398
   45loPI   C3B  719   8.589  10.666   7.969 -0.0436 -0.1807  0.2466
   45loPI   C4B  720   8.680  10.826   7.550 -0.1109  0.3696 -0.0650
   46loPI    C1  721   7.550   2.162  10.465  0.0351 -0.1527 -0.2489
   46loPI    C2  722   7.472   2.526  10.611  0.0586 -0.1364 -0.2770
   46loPI    C3  723   7.305   2.204  10.779  0.2448 -0.1351 -0.0856
   46loPI   PO4  724   7.535   2.185  10.158  0.1432  0.0200 -0.0501
   46loPI   GL1  725   7.671   1.892   9.925 -0.2555  0.1264  0.0045
   46loPI   GL2  726   7.410   1.828   9.750 -0.0377 -0.0566 -0.0230
   46loPI   C1A  727   7.908   1.842   9.645 -0.0671  0.0185  0.3205
   46loPI   C2A  728   8.032   1.847   9.224  0.0765  0.0997 -0.0243
   46loPI   C3A  729   7.996   1.778   8.857 -0.0197  0.0500  0.0254
   46loPI   C4A  730   7.917   1.703   8.518  0.1735 -0.0267 -0.2333
   46loPI   C5A  731   7.780   1.705   8.047  0.1121 -0.0283 -0.1939
   46loPI   C6A  732   7.514   1.944   7.759 -0.0052 -0.0336  0.0600
   46loPI   C1B  733   7.502   1.775   9.379  0.2850  0.3169  0.1642
   46loPI   C2B  734   7.520   1.717   8.932  0.1487  0.1062 -0.0643
   46loPI   C3B  735   7.401   1.737   8.568 -0.0137  0.0769  0.1061
   46loPI   C4B  736   7.337   1.720   8.197 -0.0982 -0.0833  0.3000
   47loPI    C1  737   8.774   8.530   9.885  0.0377 -0.0635 -0.0393
   47loPI    C2  738   9.162   8.440   9.854  0.0247 -0.1525  0.0524
   47loPI    C3  739   9.012   8.560  10.205  0.0086  0.0720 -0.0296
   47loPI   PO4  740   8.741   8.747   9.762  0.4026  0.1820 -0.3319
   47loPI   GL1  741   8.775   8.856   9.402  0.0043 -0.0389 -0.0469
   47loPI   GL2  742   9.086   8.665   9.392  0.4057 -0.3526  0.1327
   47loPI   C1A  743   8.643   9.021   9.020 -0.1398  0.0676  0.1148
   47loPI   C2A  744   8.582   9.080   8.632 -0.3890  0.1713 -0.0900
   47loPI   C3A  745   8.773   9.006   8.189  0.3023  0.2008 -0.0753
   47loPI   C4A  746   8.732   8.748   7.823  0.5028  0.0352  0.0707
   47loPI   C5A  747   8.956   8.395   7.483  0.2567  0.0236  0.0510
   47loPI   C6A  748   9.105   8.344   7.043  0.1081 -0.2509 -0.1403
   47loPI   C1B  749   9.218   8.761   8.979  0.4700  0.0649  0.3977
   47loPI   C2B  750   9.271   8.836   8.470 -0.2634 -0.2321  0.0026
   47loPI   C3B  751   9.205   8.901   8.058  0.1078  0.1887  0.2294
   47loPI   C4B  752   9.031   9.229   7.776 -0.0661  0.1643 -0.1891
   48loPI    C1  753   6.070   1.704  10.701 -0.0100  0.0346  0.0066
   48loPI    C2  754   5.937   1.329  10.737 -0.0033  0.0009 -0.2952
   48loPI    C3  755   5.979   1.558  11.062  0.0123 -0.2649 -0.1063
   48loPI   PO4  756   5.942   1.883  10.443 -0.1947 -0.2454 -0.1485
   48loPI   GL1  757   6.111   1.749  10.006  0.0220  0.0620  0.2415
   48loPI   GL2  758   6.396   1.864   9.778  0.1653  0.1180  0.0422
   48loPI   C1A  759   5.890   1.701   9.628  0.1821 -0.1907 -0.0215
   48loPI   C2A  760   5.846   1.772   9.126 -0.0268  0.0637  0.0214
   48loPI   C3A  761   5.907   1.745   8.715  0.0326 -0.0118 -0.0109
   48loPI   C4A  762   5.920   1.760   8.288 -0.2074  0.1374  0.1600
   48loPI   C5A  763   5.950   1.878   7.816  0.1151 -0.1789 -0.3610
   48loPI   C6A  764   6.208   1.900   7.526 -0.2882 -0.0436  0.3687
   48loPI   C1B  765   6.456   1.737   9.330 -0.1802 -0.1051 -0.2007
   48loPI   C2B  766   6.409   1.714   8.916  0.0305 -0.0269 -0.0268
   48loPI   C3B  767   6.431   1.743   8.613  0.2926 -0.1045 -0.3366
   48loPI   C4B  768   6.425   1.835   8.098 -0.4320 -0.0196  0.0827
   49loPI    C1  769  18.294   6.493  10.327 -0.5367  0.3493 -0.4217
   49loPI    C2  770  18.154   6.730  10.617  0.0568  0.1128  0.0819
   49loPI    C3  771  18.508   6.809  10.449  0.1354 -0.2598  0.0653
   49loPI   PO4  772  18.129   6.443  10.146 -0.2042 -0.0504  0.1633
   49loPI   GL1  773  18.061   6.359   9.768  0.3228 -0.0286 -0.0742
   49loPI   GL2  774  18.242   6.357   9.549  0.0496  0.0460 -0.2073
   49loPI   C1A  775  17.744   6.275   9.473  0.3040 -0.0746 -0.2281
   49loPI   C2A  776  17.625   6.210   9.047 -0.1065 -0.0665  0.0891
   49loPI   C3A  777  17.472   6.088   8.576  0.4495  0.0837 -0.0312
   49loPI   C4A  778  17.450   5.965   8.202 -0.0785  0.2272 -0.2372
   49loPI   C5A  779  17.240   5.987   7.825  0.1945  0.2618 -0.0391
   49loPI   C6A  780  17.130   6.187   7.473  0.1129 -0.0079  0.0660
   49loPI   C1B  781  18.091   6.124   9.096  0.1822 -0.0829 -0.2670
   49loPI   C2B  782  17.996   6.081   8.709 -0.0215 -0.3887  0.0085
   49loPI   C3B  783  17.942   5.959   8.275  0.1816  0.1533  0.0038
   49loPI   C4B  784  18.181   5.810   8.011  0.0788 -0.4520  0.0591
   50loPI    C1  785  10.585  16.045  10.499 -0.0939  0.1352  0.0610
   50loPI    C2  786  10.402  16.000  10.851 -0.0713  0.1718  0.0776
   50loPI    C3  787  10.549  16.357  10.747  0.0934  0.1157  0.1139
   50loPI   PO4  788  10.417  15.977  10.327 -0.0615  0.1931 -0.2315
   50loPI   GL1  789  10.308  15.929   9.977 -0.2950  0.0816 -0.1423
   50loPI   GL2  790  10.039  15.976   9.848 -0.2287 -0.1528  0.0415
   50loPI   C1A  791  10.540  15.929   9.517  0.0139  0.1338 -0.1002
   50loPI   C2A  792  10.414  15.733   9.099  0.0139 -0.1710  0.1841
   50loPI   C3A  793  10.401  15.603   8.660 -0.0510  0.1758 -0.0465
   50loPI   C4A  794  10.370  15.476   8.252  0.2396  0.0092  0.0616
   50loPI   C5A  795  10.452  15.327   7.778  0.0584 -0.0178  0.2285
   50loPI   C6A  796  10.251  15.490   7.458  0.1467 -0.0567 -0.0853
   50loPI   C1B  797  10.045  15.741   9.487  0.3356 -0.0144  0.4834
   50loPI   C2B  798   9.916  15.705   9.087 -0.1531 -0.0654  0.0110
   50loPI   C3B  799   9.814  15.590   8.625  0.1794  0.1656  0.0221
   50loPI   C4B  800   9.798  15.615   8.203  0.2107 -0.0898 -0.0098
   51loPI    C1  801  18.115   8.458  10.323  0.1274  0.2101 -0.0335
   51loPI    C2  802  17.903   8.204  10.549  0.1696 -0.0373 -0.2661
   51loPI    C3  803  18.286   8.277  10.636  0.2022 -0.1775 -0.2908
   51loPI   PO4  804  17.997   8.445   9.992  0.1514 -0.0582 -0.2330
   51loPI   GL1  805  18.222   8.470   9.605 -0.0736  0.2353 -0.0588
   51loPI   GL2  806  18.044   8.742   9.567 -0.0582 -0.0496  0.0197
   51loPI   C1A  807  18.355   8.466   9.096 -0.0438 -0.1734 -0.1265
   51loPI   C2A  808  18.482   8.750   8.788  0.1520  0.1697  0.0780
   51loPI   C3A  809  18.617   8.749   8.396  0.5652 -0.4658 -0.0428
   51loPI   C4A  810  18.533   8.771   8.038 -0.2495 -0.0735  0.1479
   51loPI   C5A  811  18.351   8.963   7.713 -0.0063  0.3565 -0.1630
   51loPI   C6A  812  17.877   9.021   7.534  0.2909 -0.0049 -0.1408
   51loPI   C1B  813  17.869   8.554   9.214  0.0640  0.0563 -0.0699
   51loPI   C2B  814  17.883   8.816   8.844  0.1181  0.2988  0.1055
   51loPI   C3B  815  17.642   9.009   8.464  0.0365  0.1264 -0.1393
   51loPI   C4B  816  17.701   9.449   8.189  0.3176 -0.0694  0.1834
   52loPI    C1  817   5.690  12.486   9.959  0.2561  0.0003  0.1271
   52loPI    C2  818   5.836  12.854   9.904 -0.1769  0.1713  0.0871
   52loPI    C3  819   5.781  12.715  10.275  0.0546  0.1160  0.1024
   52loPI   PO4  820   5.693  12.467   9.661  0.0390 -0.1639 -0.0478
   52loPI   GL1  821   5.446  12.178   9.303  0.0350  0.0303 -0.0156
   52loPI   GL2  822   5.265  12.373   9.200 -0.1515  0.1624 -0.3142
   52loPI   C1A  823   5.626  11.807   9.053 -0.3583  0.0034 -0.1320
   52loPI   C2A  824   5.650  11.732   8.708  0.2439 -0.0987 -0.3907
   52loPI   C3A  825   5.721  11.622   8.291 -0.0747  0.2815 -0.0854
   52loPI   C4A  826   5.965  11.484   7.973 -0.1461  0.0172 -0.0053
   52loPI   C5A  827   6.189  11.153   7.727 -0.1328 -0.1062  0.1118
   52loPI   C6A  828   6.534  11.153   7.413  0.1430  0.2734  0.0543
   52loPI   C1B  829   5.191  12.741   9.070 -0.1573 -0.0293  0.0674
   52loPI   C2B  830   5.061  12.930   8.680  0.2377  0.0691  0.0813
   52loPI   C3B  831   4.988  13.037   8.246 -0.2464  0.0688  0.0719
   52loPI   C4B  832   4.894  13.209   7.821 -0.0659  0.0117  0.2076
   53loPI    C1  833   1.711  18.753   9.999  0.2865 -0.1867 -0.0974
   53loPI    C2  834   1.605  18.400  10.155 -0.0918  0.0089  0.1030
   53loPI    C3  835   1.812  18.661  10.375 -0.0514  0.0217  0.0499
   53loPI   PO4  836   1.897  18.661   9.851 -0.0958  0.0265 -0.0097
   53loPI   GL1  837   1.794  18.731   9.430  0.2644  0.0143 -0.2824
   53loPI   GL2  838   2.000  18.974   9.494  0.0894  0.0028 -0.2715
   53loPI   C1A  839   1.713  18.400   9.110 -0.3676 -0.0287  0.2083
   53loPI   C2A  840   1.723  18.260   8.714  0.0752  0.1753  0.3630
   53loPI   C3A  841   1.918  18.102   8.382 -0.1777  0.0360 -0.0067
   53loPI   C4A  842   1.877  17.690   8.144 -0.0069  0.1685  0.0303
   53loPI   C5A  843   2.001  17.472   7.765  0.0936  0.0994 -0.1436
   53loPI   C6A  844   2.353  17.187   7.629 -0.2176 -0.4465  0.2028
   53loPI   C1B  845   1.852  19.077   9.116  0.2859  0.1182 -0.1704
   53loPI   C2B  846   1.724  19.323   8.787 -0.0201  0.0547 -0.0206
   53loPI   C3B  847   1.851  19.231   8.328  0.2070 -0.0550 -0.4558
   53loPI   C4B  848   2.009  19.404   7.890 -0.1693  0.3810 -0.1812
   54loPI    C1  849  10.874   8.724  10.362 -0.0693  0.0122 -0.2077
   54loPI    C2  850  10.857   9.044  10.123 -0.2440 -0.0639 -0.2992
   54loPI    C3  851  10.685   9.054  10.483  0.1414  0.1001 -0.1133
   54loPI   PO4  852  10.759   8.533  10.224 -0.0235 -0.2819 -0.0444
   54loPI   GL1  853  10.675   8.446   9.757  0.0352 -0.1914 -0.0214
   54loPI   GL2  854  10.835   8.211   9.845  0.1008  0.0867 -0.0357
   54loPI   C1A  855  10.624   8.405   9.287  0.0315  0.1236  0.2185
   54loPI   C2A  856  10.643   8.402   8.865  0.1422 -0.0176  0.1973
   54loPI   C3A  857  10.640   8.268   8.392  0.1136  0.0500  0.1004
   54loPI   C4A  858  10.748   8.659   8.045  0.1530 -0.0005  0.0701
   54loPI   C5A  859  10.846   9.032   7.805  0.0967 -0.1389 -0.0740
   54loPI   C6A  860  10.913   9.393   8.034  0.1320 -0.0062  0.4339
   54loPI   C1B  861  11.001   8.088   9.406  0.0682  0.0867 -0.1089
   54loPI   C2B  862  10.824   7.951   9.074 -0.0253  0.3396  0.2901
   54loPI   C3B  863  10.821   7.861   8.694  0.1078  0.1846  0.0722
   54loPI   C4B  864  11.052   7.857   8.288 -0.2421 -0.1201 -0.0276
   55loPI    C1  865  10.975   3.603  10.640  0.2240 -0.1867 -0.1420
   55loPI    C2  866  10.975   3.220  10.757  0.1982 -0.1090  0.1194
   55loPI    C3  867  10.642   3.438  10.788  0.2364 -0.0406  0.0519
   55loPI   PO4  868  11.012   3.649  10.412 -0.2228  0.0663 -0.0244
   55loPI   GL1  869  10.997   3.810  10.084  0.1347  0.2063  0.0150
   55loPI   GL2  870  10.677   3.744  10.019 -0.1964  0.0834 -0.0582
   55loPI   C1A  871  11.107   3.831   9.673  0.3641  0.1813 -0.1899
   55loPI   C2A  872  11.295   3.705   9.332 -0.2167 -0.0588 -0.0774
   55loPI   C3A  873  11.628   3.730   9.041 -0.1955  0.0033  0.2451
   55loPI   C4A  874  11.770   3.573   8.628 -0.0807  0.1580 -0.0421
   55loPI   C5A  875  11.797   3.449   8.159 -0.1138  0.2237 -0.0554
   55loPI   C6A  876  11.643   3.318   7.812 -0.0608  0.0300 -0.2885
   55loPI   C1B  877  10.610   3.710   9.494 -0.0986  0.1121 -0.1397
   55loPI   C2B  878  10.539   3.776   9.071 -0.1304 -0.0145 -0.1013
   55loPI   C3B  879  10.540   3.783   8.683 -0.0123  0.0697 -0.0598
   55loPI   C4B  880  10.833   3.655   8.327  0.0111  0.0628 -0.3244
   56loPI    C1  881   6.674   4.332  10.240  0.0657  0.1998  0.2687
   56loPI    C2  882   6.981   4.076  10.249  0.1013  0.2366  0.1248
   56loPI    C3  883   7.048   4.469  10.271  0.0651  0.2450  0.0864
   56loPI   PO4  884   6.541   4.283  10.059  0.1395  0.1142  0.0031
   56loPI   GL1  885   6.618   4.079   9.696  0.0895 -0.2200 -0.0472
   56loPI   GL2  886   6.838   4.361   9.674 -0.2785  0.0511  0.1588
   56loPI   C1A  887   6.755   3.955   9.325 -0.0704  0.2878  0.2350
   56loPI   C2A  888   6.598   4.012   8.929  0.4227 -0.1043  0.0319
   56loPI   C3A  889   6.605   4.104   8.569  0.2425  0.0811  0.0093
   56loPI   C4A  890   6.713   4.058   8.141  0.1615 -0.0549 -0.2570
   56loPI   C5A  891   6.818   4.094   7.838 -0.0327  0.0139 -0.0074
   56loPI   C6A  892   6.786   3.777   7.525  0.0309 -0.0802 -0.0590
   56loPI   C1B  893   6.954   4.452   9.298  0.0133 -0.3485  0.1151
   56loPI   C2B  894   6.884   4.389   8.879  0.0506  0.3101 -0.2478
   56loPI   C3B  895   6.845   4.552   8.458 -0.0517  0.1845 -0.1666
   56loPI   C4B  896   6.890   4.556   8.034 -0.1368 -0.0220  0.0891
   57loPI    C1  897   2.965   0.714  10.040  0.3983 -0.1755  0.0228
   57loPI    C2  898   2.740   0.420   9.889  0.1049  0.0260  0.0601
   57loPI    C3  899   2.708   0.519  10.275  0.1148  0.1855  0.0206
   57loPI   PO4  900   2.966   0.906   9.965  0.0168  0.0648  0.0225
   57loPI   GL1  901   3.232   0.990   9.663 -0.0496  0.0584  0.2267
   57loPI   GL2  902   3.424   1.169   9.593 -0.1793 -0.0361  0.0947
   57loPI   C1A  903   3.095   0.829   9.086  0.1409  0.0207 -0.5598
   57loPI   C2A  904   2.904   0.617   8.825 -0.0954 -0.0558  0.2224
   57loPI   C3A  905   2.669   0.631   8.484 -0.1571 -0.0757  0.0467
   57loPI   C4A  906   2.593   0.783   8.295  0.1224 -0.2397 -0.0747
   57loPI   C5A  907   2.397   0.968   7.914  0.0619 -0.0526 -0.2075
   57loPI   C6A  908   2.514   0.764   7.500  0.4487 -0.1773  0.3797
   57loPI   C1B  909   3.093   1.317   9.279  0.1849 -0.0602 -0.0213
   57loPI   C2B  910   3.010   1.224   8.805 -0.0712 -0.3722  0.0678
   57loPI   C3B  911   3.048   0.944   8.485 -0.0221  0.0737  0.0054
   57loPI   C4B  912   3.417   0.635   8.311  0.0205 -0.1594  0.0541
   58loPI    C1  913   3.304  14.402  10.128 -0.0315 -0.2037 -0.0388
   58loPI    C2  914   3.147  14.479  10.488  0.1900  0.0284  0.0109
   58loPI    C3  915   3.522  14.341  10.458  0.1338 -0.0970 -0.1266
   58loPI   PO4  916   3.165  14.459   9.984 -0.1291 -0.0290  0.0694
   58loPI   GL1  917   3.085  14.279   9.523 -0.0697 -0.2001 -0.2452
   58loPI   GL2  918   2.814  14.370   9.594 -0.0190  0.0148  0.0537
   58loPI   C1A  919   3.007  14.496   9.036  0.0430  0.2188 -0.2758
   58loPI   C2A  920   3.111  14.619   8.521 -0.0561 -0.1256 -0.2105
   58loPI   C3A  921   3.379  14.459   8.287 -0.2936 -0.1823  0.0715
   58loPI   C4A  922   3.403  14.657   7.815 -0.0781  0.1125 -0.1744
   58loPI   C5A  923   3.737  14.613   7.604  0.2531 -0.1494 -0.1608
   58loPI   C6A  924   4.195  14.727   7.565  0.0463 -0.1215  0.1727
   58loPI   C1B  925   2.709  14.165   9.233 -0.0653  0.1041 -0.4856
   58loPI   C2B  926   2.590  14.353   8.760 -0.2240 -0.1034  0.0838
   58loPI   C3B  927   2.517  14.353   8.346  0.4814 -0.2035 -0.2156
   58loPI   C4B  928   2.507  14.337   7.889  0.1788 -0.3248  0.0687
   59loPI    C1  929  12.602   9.494  10.413 -0.0919  0.1174  0.3965
   59loPI    C2  930  12.757   9.430  10.776  0.6363 -0.1853  0.0521
   59loPI    C3  931  12.967   9.631  10.502  0.0577  0.1207 -0.1839
   59loPI   PO4  932  12.378   9.767  10.356 -0.1622  0.0913  0.2793
   59loPI   GL1  933  12.324   9.837   9.936  0.0963  0.2439 -0.3086
   59loPI   GL2  934  12.201   9.979   9.692  0.2135  0.1629  0.0654
   59loPI   C1A  935  12.699   9.793   9.513  0.0497 -0.0074  0.0377
   59loPI   C2A  936  12.689   9.703   9.073 -0.3407  0.1866 -0.0757
   59loPI   C3A  937  12.552   9.719   8.581 -0.0250 -0.0210  0.0434
   59loPI   C4A  938  12.413   9.636   8.088 -0.3263  0.3849  0.0697
   59loPI   C5A  939  12.328   9.971   7.760 -0.0405  0.1514 -0.0790
   59loPI   C6A  940  12.641  10.146   7.474  0.2332  0.0666  0.4161
   59loPI   C1B  941  12.422  10.204   9.365  0.2613 -0.1053  0.1396
   59loPI   C2B  942  12.575  10.305   9.004 -0.0182 -0.1956 -0.0958
   59loPI   C3B  943  12.567  10.257   8.564  0.4114 -0.0797 -0.0281
   59loPI   C4B  944  12.459  10.261   8.085 -0.0177 -0.2557  0.4304
   60loPI    C1  945   3.988  10.484   9.591 -0.1799  0.2629 -0.0765
   60loPI    C2  946   3.847  10.726   9.877 -0.1243 -0.0523  0.2245
   60loPI    C3  947   3.787  10.331   9.901  0.1503 -0.1145 -0.0403
   60loPI   PO4  948   4.185  10.616   9.539 -0.1467 -0.0340 -0.0304
   60loPI   GL1  949   4.278  11.004   9.269 -0.1753  0.0820 -0.2118
   60loPI   GL2  950   4.549  10.806   9.243  0.2006 -0.1249  0.1352
   60loPI   C1A  951   3.960  11.122   8.869  0.3223 -0.1618  0.0501
   60loPI   C2A  952   4.052  11.093   8.422 -0.0947  0.5464 -0.1350
   60loPI   C3A  953   4.176  11.138   8.002 -0.0068  0.0458 -0.0647
   60loPI   C4A  954   4.262  11.152   7.648  0.0864  0.3048 -0.0968
   60loPI   C5A  955   4.129  10.928   7.433 -0.1489 -0.0198  0.0628
   60loPI   C6A  956   4.300  10.517   7.456 -0.1253  0.1968  0.1288
   60loPI   C1B  957   4.530  10.874   8.802 -0.0490  0.1757 -0.4309
   60loPI   C2B  958   4.494  10.755   8.363 -0.0955  0.2759  0.0420
   60loPI   C3B  959   4.493  10.787   7.882 -0.3741 -0.1596 -0.0095
   60loPI   C4B  960   4.672  10.844   7.485  0.2324 -0.0445 -0.2746
   61loPI    C1  961  15.378  13.139  10.466  0.0847  0.1943 -0.1840
   61loPI    C2  962  15.765  13.095  10.557  0.0814  0.1299 -0.2007
   61loPI    C3  963  15.554  13.390  10.724  0.0254 -0.1067  0.1581
   61loPI   PO4  964  15.430  13.141  10.132  0.1404 -0.2205 -0.1708
   61loPI   GL1  965  15.402  12.894   9.752 -0.4111  0.0496 -0.3148
   61loPI   GL2  966  15.573  12.669   9.549 -0.0589 -0.0382 -0.1919
   61loPI   C1A  967  15.331  13.008   9.314 -0.3488 -0.0392  0.0393
   61loPI   C2A  968  15.252  13.013   8.893 -0.1094 -0.0727  0.0261
   61loPI   C3A  969  15.365  13.093   8.524 -0.1727 -0.1177  0.2700
   61loPI   C4A  970  15.475  13.235   8.169 -0.2665 -0.0893 -0.0677
   61loPI   C5A  971  15.418  13.340   7.780  0.0884 -0.3273  0.0885
   61loPI   C6A  972  15.561  13.080   7.390  0.2137 -0.0203  0.1021
   61loPI   C1B  973  15.408  12.553   9.082 -0.2627 -0.0681 -0.3482
   61loPI   C2B  974  15.425  12.581   8.732 -0.0921  0.0876 -0.3344
   61loPI   C3B  975  15.456  12.708   8.241  0.0336 -0.1064 -0.3442
   61loPI   C4B  976  15.471  12.846   7.797  0.2718  0.0828 -0.0576
   62loPI    C1  977   3.713  15.736  10.086 -0.0971 -0.2351  0.1449
   62loPI    C2  978   3.868  15.892  10.420 -0.2123 -0.0865  0.1301
   62loPI    C3  979   4.036  15.570  10.253 -0.0537 -0.0606  0.2373
   62loPI   PO4  980   3.654  15.951   9.849  0.0830 -0.0643 -0.2591
   62loPI   GL1  981   3.841  16.177   9.643  0.1696  0.1184 -0.0956
   62loPI   GL2  982   4.090  16.339   9.678  0.2816  0.0482  0.0279
   62loPI   C1A  983   3.875  16.281   9.214  0.0000  0.2911 -0.0969
   62loPI   C2A  984   3.913  16.154   8.786 -0.3182 -0.0270  0.0780
   62loPI   C3A  985   3.969  16.389   8.406  0.0812  0.0792 -0.0544
   62loPI   C4A  986   4.078  16.410   7.933 -0.0491 -0.2279 -0.1423
   62loPI   C5A  987   4.477  16.439   7.618  0.3196  0.3550 -0.0298
   62loPI   C6A  988   4.924  16.255   7.573 -0.0351 -0.3237  0.0859
   62loPI   C1B  989   4.396  16.325   9.346 -0.1250 -0.0702  0.0346
   62loPI   C2B  990   4.356  16.089   9.004  0.0695  0.0468 -0.2306
   62loPI   C3B  991   4.470  16.106   8.596  0.0516  0.0529  0.1473
   62loPI   C4B  992   4.572  16.122   8.034  0.1155  0.0305 -0.0616
   63loPI    C1  993  11.344  13.136  10.189 -0.1274  0.2822 -0.2546
   63loPI    C2  994  11.246  12.811   9.978  0.0627 -0.0098  0.0966
   63loPI    C3  995  11.004  12.941  10.269  0.0456  0.0928  0.0368
   63loPI   PO4  996  11.393  13.391  10.015  0.1093  0.1970  0.4000
   63loPI   GL1  997  11.422  13.458   9.633  0.0056 -0.0596 -0.0159
   63loPI   GL2  998  11.128  13.741   9.673  0.1541  0.0197  0.0888
   63loPI   C1A  999  11.652  13.639   9.266  0.2025  0.0657 -0.4308
   63loPI   C2A 1000  11.640  13.685   8.802  0.0550  0.0806 -0.1174
   63loPI   C3A 1001  11.673  13.762   8.345 -0.0497  0.1955 -0.0457
   63loPI   C4A 1002  11.915  14.001   8.104 -0.2134 -0.0337  0.1949
   63loPI   C5A 1003  12.020  13.967   7.614 -0.0908 -0.2672 -0.0516
   63loPI   C6A 1004  12.086  14.019   7.231 -0.0789 -0.1238  0.0486
   63loPI   C1B 1005  11.172  13.674   9.211  0.2319 -0.3010  0.1317
   63loPI   C2B 1006  11.120  13.624   8.833  0.2003  0.1577  0.0015
   63loPI   C3B 1007  11.221  13.498   8.433 -0.0488  0.2420 -0.2155
   63loPI   C4B 1008  10.885  13.547   8.068 -0.1221  0.0109 -0.1653
   64loPI    C1 1009   2.211  10.059  10.035  0.0013 -0.0776 -0.0106
   64loPI    C2 1010   1.954  10.160  10.325 -0.2314 -0.2482 -0.1531
   64loPI    C3 1011   2.245   9.895  10.398 -0.2501 -0.2432 -0.0593
   64loPI   PO4 1012   2.115  10.064   9.793  0.0359 -0.3136  0.0373
   64loPI   GL1 1013   1.845  10.222   9.415 -0.1457 -0.1932  0.3592
   64loPI   GL2 1014   2.138  10.366   9.449  0.0999  0.0479  0.2982
   64loPI   C1A 1015   1.691   9.999   9.100  0.2071  0.3418 -0.2764
   64loPI   C2A 1016   1.792  10.230   8.710  0.2337  0.0870  0.1550
   64loPI   C3A 1017   1.918  10.567   8.498  0.0342  0.0795 -0.0162
   64loPI   C4A 1018   1.963  10.832   8.198  0.1525 -0.2282  0.0654
   64loPI   C5A 1019   1.946  11.181   7.920 -0.4242  0.3167 -0.2411
   64loPI   C6A 1020   1.794  11.357   7.635  0.1093  0.1803 -0.1069
   64loPI   C1B 1021   2.155  10.222   9.009 -0.0800 -0.3402 -0.3708
   64loPI   C2B 1022   2.252  10.105   8.585 -0.0551 -0.0500  0.2216
   64loPI   C3B 1023   2.361  10.033   8.179 -0.2586  0.2136 -0.0413
   64loPI   C4B 1024   2.286  10.082   7.722 -0.0793  0.2432 -0.2278
   65loPI    C1 1025  11.843   2.854  10.550 -0.0444 -0.1483  0.0052
   65loPI    C2 1026  11.665   2.987  10.883  0.0578 -0.0427  0.0184
   65loPI    C3 1027  12.065   2.974  10.860  0.0564  0.2130 -0.2004
   65loPI   PO4 1028  11.633   2.876  10.314 -0.1968 -0.1361 -0.2392
   65loPI   GL1 1029  11.434   2.983   9.915 -0.1194 -0.3321 -0.1897
   65loPI   GL2 1030  11.148   2.852   9.753 -0.0522  0.1852 -0.0254
   65loPI   C1A 1031  11.483   3.267   9.523  0.0888 -0.0951  0.3770
   65loPI   C2A 1032  11.463   3.282   9.087  0.0005  0.0992 -0.0381
   65loPI   C3A 1033  11.319   3.080   8.763 -0.2373  0.2273  0.1021
   65loPI   C4A 1034  11.455   2.965   8.278 -0.0151  0.0575 -0.1611
   65loPI   C5A 1035  11.815   2.849   7.948  0.0237 -0.0528 -0.0214
   65loPI   C6A 1036  11.885   2.512   7.590  0.0638  0.0608  0.0796
   65loPI   C1B 1037  11.295   2.839   9.316  0.3614 -0.3786 -0.2004
   65loPI   C2B 1038  11.149   2.636   8.919  0.0267 -0.0384  0.0304
   65loPI   C3B 1039  11.128   2.705   8.514  0.1241 -0.1198 -0.4542
   65loPI   C4B 1040  10.924   2.766   8.067  0.1221  0.2587 -0.1431
   66loPI    C1 1041  12.813  16.873  10.250 -0.0305 -0.2026  0.1057
   66loPI    C2 1042  13.149  17.087  10.214 -0.1004 -0.1470 -0.2556
   66loPI    C3 1043  12.941  17.097  10.556  0.1260  0.0217 -0.1200
   66loPI   PO4 1044  12.656  16.874  10.035  0.2824 -0.0660  0.1102
   66loPI   GL1 1045  12.649  16.846   9.625  0.0086  0.4764 -0.0268
   66loPI   GL2 1046  12.381  16.888   9.465 -0.0887 -0.1229 -0.0469
   66loPI   C1A 1047  12.803  17.123   9.356  0.1232 -0.3065  0.0684
   66loPI   C2A 1048  12.939  17.092   8.993 -0.1989 -0.1093 -0.1150
   66loPI   C3A 1049  12.833  17.178   8.626 -0.0653  0.0758  0.0813
   66loPI   C4A 1050  12.684  17.248   8.116 -0.0014  0.0502 -0.1299
   66loPI   C5A 1051  12.815  17.259   7.700  0.2137 -0.1953 -0.0959
   66loPI   C6A 1052  12.900  17.323   7.227 -0.2051 -0.0678  0.1995
   66loPI   C1B 1053  12.501  16.858   9.021  0.1361  0.3333 -0.1344
   66loPI   C2B 1054  12.380  17.031   8.570  0.1727 -0.3410  0.0019
   66loPI   C3B 1055  12.200  17.151   8.191 -0.1247 -0.2132 -0.0565
   66loPI   C4B 1056  12.324  17.338   7.755 -0.2650  0.1478 -0.2403
   67loPI    C1 1057  10.309   3.700  10.371  0.1519  0.3168 -0.2301
   67loPI    C2 1058   9.953   3.707  10.552  0.1394 -0.2268 -0.2168
   67loPI    C3 1059  10.174   4.040  10.533 -0.0743 -0.0397  0.3608
   67loPI   PO4 1060  10.234   3.609  10.153 -0.0681 -0.3337 -0.0837
   67loPI   GL1 1061  10.182   3.664   9.721 -0.1727  0.1589  0.1161
   67loPI   GL2 1062   9.904   3.465   9.677  0.1756 -0.3066  0.1532
   67loPI   C1A 1063  10.091   3.749   9.287 -0.0306 -0.1060 -0.2339
   67loPI   C2A 1064  10.099   3.564   8.831  0.1397 -0.2331 -0.0700
   67loPI   C3A 1065  10.080   3.727   8.405  0.2403 -0.2043 -0.0471
   67loPI   C4A 1066   9.986   3.914   8.129 -0.1360 -0.0172 -0.0881
   67loPI   C5A 1067  10.125   4.173   7.841 -0.0469 -0.2347 -0.3981
   67loPI   C6A 1068  10.303   4.535   7.650 -0.1122 -0.0536 -0.0728
   67loPI   C1B 1069   9.808   3.149   9.491  0.1312  0.0763 -0.0459
   67loPI   C2B 1070   9.752   2.846   9.116  0.0265 -0.0063  0.1156
   67loPI   C3B 1071   9.594   2.720   8.731 -0.0801  0.0154 -0.1034
   67loPI   C4B 1072   9.441   2.687   8.277  0.1621  0.1763 -0.1428
   68loPI    C1 1073  16.893   7.378  10.060 -0.0402 -0.0539 -0.0595
   68loPI    C2 1074  16.559   7.570  10.168  0.0323  0.1139 -0.1314
   68loPI    C3 1075  16.895   7.620  10.379  0.0064 -0.0760 -0.0430
   68loPI   PO4 1076  16.949   7.347   9.862  0.0441  0.1720 -0.0902
   68loPI   GL1 1077  17.051   7.462   9.492 -0.0959  0.1683  0.1370
   68loPI   GL2 1078  17.314   7.204   9.472  0.1055 -0.3717 -0.1079
   68loPI   C1A 1079  17.061   7.801   9.254 -0.1587  0.0701  0.1692
   68loPI   C2A 1080  17.039   8.021   8.994  0.2136  0.1127  0.4129
   68loPI   C3A 1081  17.007   8.131   8.654  0.0217  0.1194 -0.3230
   68loPI   C4A 1082  17.033   8.138   8.250  0.2332  0.2230 -0.0409
   68loPI   C5A 1083  17.196   8.060   7.832 -0.1432 -0.2685  0.1933
   68loPI   C6A 1084  17.295   7.661   7.674 -0.0476  0.1383 -0.0057
   68loPI   C1B 1085  17.167   7.421   8.941 -0.0994  0.0526  0.1020
   68loPI   C2B 1086  17.238   7.639   8.560  0.0548 -0.2141 -0.1161
   68loPI   C3B 1087  17.466   7.631   8.152  0.2581  0.0579 -0.2835
   68loPI   C4B 1088  17.740   7.778   7.838 -0.1900  0.0604  0.2318
   69loPI    C1 1089   7.371   6.755   9.652  0.3634 -0.1644  0.0360
   69loPI    C2 1090   7.308   6.696  10.042 -0.1491  0.1746  0.0143
   69loPI    C3 1091   7.427   6.392   9.811  0.0473 -0.0564  0.4081
   69loPI   PO4 1092   7.128   6.876   9.616  0.2017 -0.0116  0.0306
   69loPI   GL1 1093   6.706   6.660   9.403  0.0648 -0.0122  0.0233
   69loPI   GL2 1094   6.596   6.324   9.351 -0.7327  0.0484  0.0726
   69loPI   C1A 1095   6.981   6.554   9.058  0.0381  0.0419 -0.2192
   69loPI   C2A 1096   7.152   6.528   8.643 -0.2022  0.0312  0.0787
   69loPI   C3A 1097   7.281   6.377   8.311 -0.2939 -0.5943 -0.1786
   69loPI   C4A 1098   7.595   6.193   8.184 -0.2672 -0.0223 -0.2688
   69loPI   C5A 1099   7.985   6.062   8.273 -0.4159  0.3838 -0.0571
   69loPI   C6A 1100   8.366   6.286   8.068  0.0664 -0.1466 -0.0265
   69loPI   C1B 1101   6.352   6.011   9.155 -0.0048 -0.2585  0.0611
   69loPI   C2B 1102   6.472   5.739   8.857  0.1399  0.3214 -0.1820
   69loPI   C3B 1103   6.555   5.784   8.448  0.0453  0.0829  0.1171
   69loPI   C4B 1104   6.643   5.854   7.998  0.0178 -0.2147  0.1387
   70loPI    C1 1105   6.246  13.732  10.285  0.0818 -0.0124 -0.0509
   70loPI    C2 1106   6.316  13.942  10.619  0.1764 -0.0324 -0.0578
   70loPI    C3 1107   6.382  13.547  10.613  0.0665 -0.0509 -0.0662
   70loPI   PO4 1108   5.987  13.806  10.197  0.0584 -0.2846 -0.3405
   70loPI   GL1 1109   6.198  13.936   9.833  0.1233  0.2982 -0.0873
   70loPI   GL2 1110   6.243  13.731   9.585 -0.2379  0.1622  0.0338
   70loPI   C1A 1111   6.329  14.183   9.497  0.1961 -0.1060 -0.1769
   70loPI   C2A 1112   6.525  14.124   9.155 -0.0042 -0.1294 -0.1459
   70loPI   C3A 1113   6.506  14.317   8.748 -0.0675 -0.0963  0.0764
   70loPI   C4A 1114   6.139  14.401   8.477  0.1494  0.1860 -0.1402
   70loPI   C5A 1115   5.922  14.269   8.100  0.2299  0.0314  0.1162
   70loPI   C6A 1116   5.818  14.157   7.668 -0.0052 -0.3849  0.1586
   70loPI   C1B 1117   6.295  13.551   9.274  0.1924  0.0001  0.4022
   70loPI   C2B 1118   6.499  13.348   9.020 -0.1495  0.3819  0.1657
   70loPI   C3B 1119   6.455  13.048   8.707  0.0850  0.0205  0.0821
   70loPI   C4B 1120   6.393  13.249   8.320  0.1692 -0.0693  0.0956
   71loPI    C1 1121   3.032   4.366  10.390  0.0641 -0.3457 -0.0369
   71loPI    C2 1122   3.122   4.150  10.715  0.0601 -0.1599  0.0890
   71loPI    C3 1123   2.909   4.486  10.751  0.0600 -0.1377 -0.1066
   71loPI   PO4 1124   3.190   4.217  10.220  0.3280 -0.0612 -0.3608
   71loPI   GL1 1125   3.153   4.173   9.778 -0.2547 -0.1417 -0.3807
   71loPI   GL2 1126   3.153   3.875   9.783 -0.0878 -0.1026  0.1033
   71loPI   C1A 1127   3.312   4.276   9.340 -0.1140 -0.2079 -0.0877
   71loPI   C2A 1128   3.319   4.253   8.934 -0.1530  0.1447 -0.1803
   71loPI   C3A 1129   3.292   3.992   8.717 -0.4005  0.1153  0.1284
   71loPI   C4A 1130   3.274   3.834   8.275 -0.1875 -0.0640  0.1605
   71loPI   C5A 1131   3.340   4.101   7.868 -0.0943 -0.3938 -0.0505
   71loPI   C6A 1132   3.074   4.388   7.767 -0.3933 -0.0446  0.2130
   71loPI   C1B 1133   2.954   3.853   9.365 -0.0896  0.0134  0.1327
   71loPI   C2B 1134   2.867   4.022   9.008  0.1891  0.2219 -0.0451
   71loPI   C3B 1135   2.912   4.260   8.622  0.3010  0.0220 -0.0169
   71loPI   C4B 1136   2.938   4.237   8.253  0.1282 -0.1595 -0.0035
   72loPI    C1 1137  14.416   7.842  10.426 -0.0353 -0.0402 -0.0005
   72loPI    C2 1138  14.634   7.728  10.742 -0.1458  0.0815  0.1213
   72loPI    C3 1139  14.373   7.474  10.576  0.0563 -0.0509  0.0003
   72loPI   PO4 1140  14.635   7.967  10.294  0.1045 -0.1855  0.1103
   72loPI   GL1 1141  14.469   7.955   9.883 -0.1380  0.1093 -0.1187
   72loPI   GL2 1142  14.267   7.962   9.658  0.0067  0.0566 -0.2869
   72loPI   C1A 1143  14.648   8.143   9.496 -0.0239  0.0620  0.0419
   72loPI   C2A 1144  15.039   8.220   9.265 -0.1127 -0.2124 -0.2785
   72loPI   C3A 1145  15.211   8.087   8.896  0.1841  0.5112  0.3792
   72loPI   C4A 1146  15.059   8.045   8.418 -0.0474  0.2956 -0.4563
   72loPI   C5A 1147  15.051   8.011   8.058  0.2760  0.2466 -0.2210
   72loPI   C6A 1148  15.125   8.080   7.646 -0.0215 -0.2118 -0.2363
   72loPI   C1B 1149  14.286   7.682   9.256  0.2281  0.0194  0.1274
   72loPI   C2B 1150  14.118   7.704   8.794  0.1111 -0.1189 -0.1508
   72loPI   C3B 1151  13.902   7.610   8.452  0.0334  0.2242 -0.1360
   72loPI   C4B 1152  13.726   7.736   8.067 -0.1253  0.0497 -0.0214
   73loPI    C1 1153   8.521  15.631  10.576 -0.3508 -0.0283  0.0033
   73loPI    C2 1154   8.555  15.999  10.730 -0.3290 -0.0304  0.0031
   73loPI    C3 1155   8.650  15.679  10.952 -0.0207 -0.0195 -0.1084
   73loPI   PO4 1156   8.688  15.688  10.253 -0.1546 -0.0020  0.1613
   73loPI   GL1 1157   9.048  15.905   9.874  0.0218 -0.0811 -0.1359
   73loPI   GL2 1158   8.793  16.111   9.771 -0.1656  0.0634  0.3755
   73loPI   C1A 1159   9.108  15.973   9.406 -0.2989 -0.1575  0.1015
   73loPI   C2A 1160   9.218  16.146   9.002  0.3108 -0.0357  0.0425
   73loPI   C3A 1161   9.116  16.221   8.626  0.2896  0.1744  0.2344
   73loPI   C4A 1162   9.144  16.192   8.195 -0.0725 -0.1314 -0.2143
   73loPI   C5A 1163   9.143  16.190   7.712  0.1340  0.0662 -0.0401
   73loPI   C6A 1164   9.102  15.938   7.394 -0.0639  0.1918 -0.0313
   73loPI   C1B 1165   8.577  16.115   9.391 -0.0927  0.3131  0.0514
   73loPI   C2B 1166   8.742  16.203   8.951  0.0456  0.4045  0.1470
   73loPI   C3B 1167   8.636  16.168   8.542  0.2192  0.4460  0.1824
   73loPI   C4B 1168   8.653  16.248   8.119  0.2902 -0.2046  0.2347
   74loPI    C1 1169  18.457  16.135  10.790 -0.1929  0.0389 -0.1206
   74loPI    C2 1170  18.163  16.403  10.835 -0.2995 -0.0887 -0.0515
   74loPI    C3 1171  18.288  16.188  11.149  0.0150  0.1159 -0.0323
   74loPI   PO4 1172  18.464  16.283  10.459 -0.1285  0.2632  0.1004
   74loPI   GL1 1173  18.402  16.397  10.054  0.0682  0.0187 -0.4199
   74loPI   GL2 1174  18.179  16.559   9.874 -0.0477  0.2645 -0.1446
   74loPI   C1A 1175  18.584  16.368   9.673 -0.1849  0.1776  0.1962
   74loPI   C2A 1176  18.870  16.541   9.403 -0.1815  0.0637  0.0465
   74loPI   C3A 1177  18.864  16.678   8.997  0.1533  0.1437  0.0033
   74loPI   C4A 1178  19.100  16.639   8.669 -0.0870  0.1782  0.0309
   74loPI   C5A 1179  19.246  16.625   8.318  0.1930  0.1338  0.1345
   74loPI   C6A 1180  19.334  16.294   8.098  0.0316 -0.1912 -0.1436
   74loPI   C1B 1181  18.499  16.889   9.632 -0.5448  0.1219 -0.5523
   74loPI   C2B 1182  18.688  17.017   9.279  0.0046  0.0197 -0.0482
   74loPI   C3B 1183  19.187  16.962   9.377  0.0113  0.1074 -0.0665
   74loPI   C4B 1184  19.486  16.898   9.038  0.0039  0.1156  0.0060
   75loPI    C1 1185   8.397   1.060  10.505 -0.2718 -0.1984  0.1701
   75loPI    C2 1186   8.415   0.687  10.649  0.1652 -0.1947  0.1395
   75loPI    C3 1187   8.527   0.996  10.878 -0.0528 -0.0945  0.1137
   75loPI   PO4 1188   8.337   1.026  10.300 -0.0102 -0.0241  0.0476
   75loPI   GL1 1189   8.473   0.741  10.005  0.1328  0.2415  0.2563
   75loPI   GL2 1190   8.417   0.806   9.758  0.3908 -0.0364 -0.0751
   75loPI   C1A 1191   8.803   1.030   9.881  0.2667 -0.2430 -0.0147
   75loPI   C2A 1192   8.990   1.015   9.442  0.0214  0.1453 -0.3579
   75loPI   C3A 1193   9.133   0.966   8.965  0.0950  0.0378  0.0436
   75loPI   C4A 1194   9.006   0.908   8.561 -0.1112  0.1564  0.2181
   75loPI   C5A 1195   8.822   0.823   8.078 -0.0143 -0.2747 -0.3720
   75loPI   C6A 1196   8.652   1.205   7.837 -0.4988  0.0936 -0.1318
   75loPI   C1B 1197   8.481   0.879   9.369 -0.1832 -0.1806 -0.0960
   75loPI   C2B 1198   8.577   0.865   8.937 -0.1526 -0.1206 -0.0416
   75loPI   C3B 1199   8.522   0.917   8.549  0.1646 -0.0500  0.0965
   75loPI   C4B 1200   8.368   0.810   8.158  0.0831 -0.3302 -0.1111
   76loPI    C1 1201  12.068  13.999  10.546  0.1719  0.1816  0.1915
   76loPI    C2 1202  12.464  13.946  10.552  0.1012 -0.4009  0.2334
   76loPI    C3 1203  12.243  13.847  10.871 -0.1079 -0.3427  0.1089
   76loPI   PO4 1204  12.061  14.050  10.187  0.0108  0.1633  0.1508
   76loPI   GL1 1205  11.995  14.355   9.890  0.1211  0.0635 -0.0334
   76loPI   GL2 1206  12.326  14.133   9.737  0.2800  0.0417 -0.1871
   76loPI   C1A 1207  11.865  14.198   9.526 -0.1025 -0.1040  0.0611
   76loPI   C2A 1208  11.876  14.087   9.124  0.2809  0.0617  0.0552
   76loPI   C3A 1209  11.963  14.122   8.705  0.0820 -0.1411 -0.1455
   76loPI   C4A 1210  12.122  14.418   8.432 -0.0621  0.2718 -0.0202
   76loPI   C5A 1211  12.308  14.595   8.102  0.2454  0.2971 -0.3230
   76loPI   C6A 1212  12.563  14.615   7.697 -0.2626  0.1389  0.2860
   76loPI   C1B 1213  12.406  14.244   9.315  0.0128  0.1622 -0.2258
   76loPI   C2B 1214  12.543  14.330   8.999 -0.1052  0.0286  0.2946
   76loPI   C3B 1215  12.599  14.383   8.538  0.1920 -0.1504 -0.0080
   76loPI   C4B 1216  12.761  14.409   8.188  0.0111 -0.0032  0.0150
   77loPI    C1 1217   7.033  13.494   9.933  0.0419 -0.0955  0.1643
   77loPI    C2 1218   7.042  13.819  10.166  0.0413  0.0668 -0.0593
   77loPI    C3 1219   6.714  13.590  10.155 -0.0770  0.2377 -0.1415
   77loPI   PO4 1220   7.334  13.424   9.876  0.3222  0.2255  0.2623
   77loPI   GL1 1221   7.439  13.328   9.574 -0.0966  0.2127 -0.0369
   77loPI   GL2 1222   7.028  13.346   9.412 -0.0353  0.0611  0.0307
   77loPI   C1A 1223   7.506  13.317   9.096 -0.2363  0.0093  0.2264
   77loPI   C2A 1224   7.464  13.387   8.712 -0.0783  0.0438 -0.2648
   77loPI   C3A 1225   7.335  13.499   8.413 -0.2847 -0.4060  0.0835
   77loPI   C4A 1226   7.214  13.520   8.071 -0.1515  0.1246 -0.1269
   77loPI   C5A 1227   7.028  13.190   7.755 -0.0364 -0.1920 -0.1964
   77loPI   C6A 1228   6.763  12.825   7.435 -0.1952  0.1772 -0.0386
   77loPI   C1B 1229   7.004  13.302   8.924 -0.0844 -0.2790  0.0885
   77loPI   C2B 1230   6.929  13.243   8.503 -0.0669  0.0407 -0.1281
   77loPI   C3B 1231   6.905  12.999   8.234  0.1162  0.2439  0.1267
   77loPI   C4B 1232   6.539  12.921   7.921  0.3076  0.1939  0.3410
   78loPI    C1 1233   5.713   7.086  10.098  0.1224 -0.0893  0.1713
   78loPI    C2 1234   5.737   6.802   9.817 -0.0094  0.1332 -0.0696
   78loPI    C3 1235   6.006   6.814  10.112  0.1242 -0.1106 -0.1780
   78loPI   PO4 1236   5.754   7.411   9.910 -0.1634 -0.2458 -0.1866
   78loPI   GL1 1237   5.690   7.437   9.510  0.4603  0.0806 -0.2832
   78loPI   GL2 1238   5.456   7.192   9.519  0.0772 -0.2907 -0.2045
   78loPI   C1A 1239   5.838   7.359   9.171  0.3408  0.0970  0.3331
   78loPI   C2A 1240   5.730   7.157   8.733 -0.1353  0.1961 -0.0686
   78loPI   C3A 1241   5.650   7.114   8.288 -0.0152 -0.0428 -0.2358
   78loPI   C4A 1242   5.687   7.205   7.842  0.1395 -0.2711 -0.2808
   78loPI   C5A 1243   5.496   7.519   7.502 -0.1445  0.0227 -0.0219
   78loPI   C6A 1244   5.673   7.923   7.526  0.1252 -0.0038  0.1799
   78loPI   C1B 1245   5.371   7.089   9.186 -0.1561  0.1015  0.0220
   78loPI   C2B 1246   5.240   6.909   8.825 -0.0545  0.1089 -0.1080
   78loPI   C3B 1247   5.346   6.665   8.492 -0.1405 -0.3495 -0.3292
   78loPI   C4B 1248   5.336   6.634   8.072  0.3901  0.1999 -0.1494
   79loPI    C1 1249   1.222   1.542  10.201 -0.1766 -0.2443  0.1212
   79loPI    C2 1250   1.127   1.551  10.590  0.0963  0.2527  0.1842
   79loPI    C3 1251   1.509   1.586  10.476  0.0552 -0.2096 -0.1229
   79loPI   PO4 1252   1.102   1.315  10.147  0.0435  0.0929  0.0271
   79loPI   GL1 1253   0.914   1.415   9.839 -0.1541  0.4351  0.1958
   79loPI   GL2 1254   1.198   1.719   9.678  0.0949 -0.1635  0.0890
   79loPI   C1A 1255   0.751   1.609   9.470 -0.0827 -0.0926  0.1147
   79loPI   C2A 1256   0.626   1.847   9.188  0.1887  0.0966 -0.1391
   79loPI   C3A 1257   0.678   1.901   8.722  0.0567  0.1544  0.0903
   79loPI   C4A 1258   0.763   1.856   8.313  0.0526  0.0525 -0.2387
   79loPI   C5A 1259   1.102   1.736   8.074 -0.3473 -0.0138 -0.1293
   79loPI   C6A 1260   1.571   1.545   8.036  0.1491 -0.1018  0.0374
   79loPI   C1B 1261   1.217   1.746   9.334  0.0665 -0.4977  0.0597
   79loPI   C2B 1262   1.106   1.702   8.951  0.1877 -0.1542 -0.0967
   79loPI   C3B 1263   1.205   1.556   8.541  0.1464  0.0730  0.0791
   79loPI   C4B 1264   1.171   1.198   8.350 -0.0142  0.0727  0.0398
   80loPI    C1 1265   3.759   6.771  10.086 -0.0081 -0.4255  0.0161
   80loPI    C2 1266   3.469   6.956  10.291  0.1227 -0.1476 -0.0443
   80loPI    C3 1267   3.735   6.726  10.483  0.0363 -0.1700  0.0495
   80loPI   PO4 1268   3.651   6.704   9.881  0.1040  0.0157  0.0452
   80loPI   GL1 1269   3.780   6.578   9.487  0.0516 -0.0166  0.2615
   80loPI   GL2 1270   3.970   6.933   9.371 -0.3337 -0.0310 -0.1204
   80loPI   C1A 1271   3.780   6.512   9.053  0.0754  0.2280 -0.4125
   80loPI   C2A 1272   3.764   6.610   8.557  0.3314 -0.1280  0.2057
   80loPI   C3A 1273   3.782   6.819   8.135 -0.0374 -0.1186 -0.0665
   80loPI   C4A 1274   4.067   7.063   7.876 -0.0719 -0.0436 -0.0114
   80loPI   C5A 1275   4.471   6.903   7.631  0.1252  0.0850 -0.2680
   80loPI   C6A 1276   4.798   6.994   7.377 -0.0229  0.0164 -0.1885
   80loPI   C1B 1277   3.897   6.953   8.900  0.0971 -0.2206 -0.2554
   80loPI   C2B 1278   3.961   7.099   8.498  0.3585  0.3731  0.0496
   80loPI   C3B 1279   3.748   7.370   8.125  0.0977 -0.0958  0.4571
   80loPI   C4B 1280   3.666   7.776   7.968 -0.1838 -0.0168  0.3545
   81loPI    C1 1281  16.889  16.559  10.212 -0.2444  0.1104 -0.0346
   81loPI    C2 1282  16.852  16.269  10.485 -0.2418  0.0995 -0.0459
   81loPI    C3 1283  17.080  16.588  10.562 -0.1530  0.0443 -0.0786
   81loPI   PO4 1284  16.584  16.599  10.059  0.0312 -0.0100  0.1430
   81loPI   GL1 1285  16.455  16.681   9.638 -0.1409 -0.0584 -0.0063
   81loPI   GL2 1286  16.132  16.628   9.572 -0.0754 -0.0285 -0.1092
   81loPI   C1A 1287  16.719  16.894   9.176  0.2575  0.0481 -0.1123
   81loPI   C2A 1288  16.826  16.852   8.843  0.0513 -0.0624 -0.1485
   81loPI   C3A 1289  17.176  16.643   8.740 -0.1047  0.4268 -0.1174
   81loPI   C4A 1290  17.327  16.641   8.357 -0.2312  0.0428  0.0993
   81loPI   C5A 1291  17.659  16.933   8.103  0.2236  0.1843  0.0192
   81loPI   C6A 1292  17.648  17.079   7.760 -0.2795  0.1952  0.0748
   81loPI   C1B 1293  16.289  16.498   9.165  0.0403  0.3875  0.1773
   81loPI   C2B 1294  16.203  16.396   8.687  0.0459 -0.2050 -0.0138
   81loPI   C3B 1295  16.316  16.383   8.356 -0.3075  0.1662  0.4281
   81loPI   C4B 1296  16.251  16.355   7.971 -0.1435  0.4769 -0.0990
   82loPI    C1 1297   0.611  17.809  10.342 -0.1754 -0.1251  0.0221
   82loPI    C2 1298   0.902  17.536  10.314 -0.0278  0.0368 -0.0441
   82loPI    C3 1299   0.759  17.641  10.673  0.0079 -0.0291 -0.0103
   82loPI   PO4 1300   0.682  18.009  10.203  0.0999 -0.1232 -0.0820
   82loPI   GL1 1301   0.598  17.923   9.760  0.1116  0.1833 -0.1057
   82loPI   GL2 1302   0.926  17.722   9.823  0.0881 -0.2091 -0.3466
   82loPI   C1A 1303   0.572  17.869   9.376  0.1190 -0.0750 -0.1081
   82loPI   C2A 1304   0.491  17.966   8.918 -0.1021  0.2249 -0.1455
   82loPI   C3A 1305   0.471  18.208   8.627 -0.0876  0.1986 -0.1017
   82loPI   C4A 1306   0.821  18.247   8.279 -0.0693  0.0645 -0.0355
   82loPI   C5A 1307   1.174  17.952   8.064 -0.6104 -0.0609  0.0957
   82loPI   C6A 1308   1.485  17.777   7.744 -0.1705  0.1378  0.0572
   82loPI   C1B 1309   1.093  17.606   9.384 -0.0441 -0.1593  0.0392
   82loPI   C2B 1310   0.980  17.637   8.958 -0.1679 -0.2320 -0.0265
   82loPI   C3B 1311   0.882  17.779   8.490  0.2842  0.0699  0.0601
   82loPI   C4B 1312   0.725  17.752   8.090 -0.1478 -0.0923 -0.1131
   83loPI    C1 1313  15.431   8.647  10.260  0.2308  0.2545  0.0835
   83loPI    C2 1314  15.342   8.553  10.639  0.0149  0.0176 -0.0231
   83loPI    C3 1315  15.707   8.688  10.547  0.1801 -0.2558  0.2149
   83loPI   PO4 1316  15.142   8.761  10.175  0.2415 -0.2072 -0.1729
   83loPI   GL1 1317  15.055   8.512   9.826  0.0489  0.1633  0.2040
   83loPI   GL2 1318  14.840   8.259   9.917  0.0713 -0.1439 -0.2060
   83loPI   C1A 1319  14.850   8.691   9.474  0.2525 -0.0561  0.1376
   83loPI   C2A 1320  14.694   8.975   9.143  0.1719  0.0230 -0.0505
   83loPI   C3A 1321  14.827   8.994   8.732 -0.1305  0.0069 -0.1504
   83loPI   C4A 1322  15.031   8.764   8.426  0.2083 -0.2776 -0.0440
   83loPI   C5A 1323  14.868   8.430   8.192  0.0866  0.0894 -0.2791
   83loPI   C6A 1324  14.762   8.365   7.855 -0.0539  0.2458 -0.3276
   83loPI   C1B 1325  15.089   7.923   9.691  0.0676 -0.3383  0.3753
   83loPI   C2B 1326  15.180   7.720   9.307 -0.2236 -0.0966  0.1634
   83loPI   C3B 1327  15.237   7.596   8.960 -0.0489  0.3537 -0.0021
   83loPI   C4B 1328  14.963   7.601   8.644 -0.2104  0.1227 -0.2385
   84loPI    C1 1329  12.429  11.134  10.385  0.2257 -0.0003  0.0291
   84loPI    C2 1330  12.425  10.734  10.406 -0.0613 -0.0033 -0.0462
   84loPI    C3 1331  12.116  10.945  10.549  0.0823  0.1918 -0.0200
   84loPI   PO4 1332  12.638  11.162  10.233  0.1526  0.0268  0.2935
   84loPI   GL1 1333  12.659  11.141   9.776 -0.1373 -0.5206  0.1746
   84loPI   GL2 1334  12.428  11.106   9.644 -0.0760  0.1877  0.1039
   84loPI   C1A 1335  12.925  10.851   9.448  0.0686 -0.0212  0.3877
   84loPI   C2A 1336  13.031  11.039   9.042 -0.0701 -0.0887 -0.0056
   84loPI   C3A 1337  13.071  11.132   8.593  0.1565 -0.0186  0.0771
   84loPI   C4A 1338  13.072  10.915   8.211 -0.1343 -0.0771 -0.3505
   84loPI   C5A 1339  13.230  10.788   7.938  0.0236  0.0115 -0.0390
   84loPI   C6A 1340  13.461  10.886   7.573  0.0151  0.2400 -0.2886
   84loPI   C1B 1341  12.278  11.270   9.273  0.1877 -0.3066  0.0584
   84loPI   C2B 1342  12.589  11.394   8.978 -0.0103 -0.1626 -0.3035
   84loPI   C3B 1343  12.713  11.607   8.588 -0.3214 -0.1458  0.0078
   84loPI   C4B 1344  13.022  11.453   8.230  0.1156 -0.1463  0.1256
   85loPI    C1 1345   0.355  16.345  10.293  0.0253  0.0817  0.0859
   85loPI    C2 1346   0.489  16.719  10.246 -0.1401  0.1483  0.1398
   85loPI    C3 1347   0.500  16.547  10.607  0.1058  0.0340  0.0796
   85loPI   PO4 1348   0.479  16.206  10.055  0.0741 -0.0797  0.1073
   85loPI   GL1 1349   0.653  16.262   9.678  0.1087  0.1120  0.0328
   85loPI   GL2 1350   0.986  16.063   9.531 -0.0643  0.1461 -0.1246
   85loPI   C1A 1351   0.533  16.287   9.169 -0.0107 -0.0511 -0.0717
   85loPI   C2A 1352   0.654  16.252   8.784  0.1155 -0.0286  0.0715
   85loPI   C3A 1353   0.632  15.902   8.374 -0.3774 -0.0277 -0.1214
   85loPI   C4A 1354   0.963  15.806   8.104  0.0501 -0.0648  0.0962
   85loPI   C5A 1355   1.238  15.586   7.992  0.1335  0.1577  0.0211
   85loPI   C6A 1356   1.138  15.238   7.848  0.0207  0.1435 -0.1394
   85loPI   C1B 1357   1.102  16.115   9.145 -0.0545 -0.3324 -0.0251
   85loPI   C2B 1358   1.193  16.172   8.768 -0.1994  0.1543  0.0246
   85loPI   C3B 1359   1.331  15.972   8.439  0.3196  0.1224 -0.2439
   85loPI   C4B 1360   1.528  15.988   8.084  0.1614 -0.0954  0.0795
   86loPI    C1 1361  10.429  13.517  10.130  0.0972 -0.1650 -0.0584
   86loPI    C2 1362  10.794  13.674  10.172  0.0053  0.0040  0.1280
   86loPI    C3 1363  10.516  13.738  10.452 -0.1826 -0.0828 -0.0365
   86loPI   PO4 1364  10.383  13.650   9.924  0.1679  0.1629 -0.0595
   86loPI   GL1 1365  10.647  13.650   9.642  0.1301 -0.1605 -0.0674
   86loPI   GL2 1366  10.814  13.409   9.367  0.4021 -0.1022  0.0318
   86loPI   C1A 1367  10.528  13.881   9.301  0.0494 -0.0240  0.2124
   86loPI   C2A 1368  10.602  13.691   8.926  0.1160  0.0173 -0.1095
   86loPI   C3A 1369  10.554  13.469   8.489  0.0957 -0.3705 -0.1828
   86loPI   C4A 1370  10.412  13.441   8.091  0.0596 -0.0772  0.2680
   86loPI   C5A 1371  10.551  13.321   7.812  0.1534  0.1016  0.0470
   86loPI   C6A 1372  10.860  13.151   7.634 -0.0488 -0.1188  0.0821
   86loPI   C1B 1373  10.722  13.233   8.981  0.1702  0.1533  0.1239
   86loPI   C2B 1374  10.807  13.057   8.621  0.1263 -0.0406  0.1518
   86loPI   C3B 1375  10.705  13.058   8.174 -0.0340  0.2344  0.0220
   86loPI   C4B 1376  10.413  12.882   7.914 -0.4126  0.1924 -0.1061
   87loPI    C1 1377  16.479   7.105  10.122  0.0246  0.1451  0.0065
   87loPI    C2 1378  16.525   6.819  10.398  0.0279  0.0464 -0.0955
   87loPI    C3 1379  16.653   7.191  10.472  0.2339 -0.0317 -0.0522
   87loPI   PO4 1380  16.200   7.128  10.010 -0.3538  0.7213 -0.1525
   87loPI   GL1 1381  15.936   7.227   9.695 -0.0866 -0.0584  0.1038
   87loPI   GL2 1382  15.904   7.045   9.450 -0.2028  0.0479 -0.1588
   87loPI   C1A 1383  16.118   7.413   9.170  0.3490 -0.1742 -0.0883
   87loPI   C2A 1384  16.174   7.150   8.818 -0.3259  0.1006 -0.2171
   87loPI   C3A 1385  16.084   7.215   8.490 -0.0860  0.0660 -0.0939
   87loPI   C4A 1386  15.789   7.315   8.081 -0.2220  0.0191 -0.0047
   87loPI   C5A 1387  15.730   7.476   7.750 -0.1861 -0.1335  0.0759
   87loPI   C6A 1388  15.740   7.375   7.272  0.1214 -0.0777  0.0699
   87loPI   C1B 1389  15.820   6.903   9.049  0.1446  0.0399  0.1652
   87loPI   C2B 1390  15.654   6.846   8.666 -0.0576 -0.1913 -0.3290
   87loPI   C3B 1391  15.635   6.871   8.224 -0.0401 -0.0792  0.0180
   87loPI   C4B 1392  15.548   6.879   7.803 -0.0376 -0.1854  0.2139
   88loPI    C1 1393   6.883  10.193   9.775 -0.1889  0.1075  0.0164
   88loPI    C2 1394   7.178  10.136   9.511 -0.0273  0.2021  0.1734
   88loPI    C3 1395   7.241  10.063   9.899 -0.2868 -0.0116  0.1786
   88loPI   PO4 1396   6.602  10.078   9.640 -0.0109  0.0654 -0.1444
   88loPI   GL1 1397   6.562   9.896   9.280  0.0843 -0.0295  0.0640
   88loPI   GL2 1398   6.944   9.814   9.177 -0.0110 -0.0107  0.0765
   88loPI   C1A 1399   6.523  10.127   8.942 -0.1140  0.2238 -0.1940
   88loPI   C2A 1400   6.645  10.241   8.473 -0.1459 -0.1404  0.2643
   88loPI   C3A 1401   6.418  10.578   8.200  0.0310 -0.1591 -0.0849
   88loPI   C4A 1402   6.391  10.732   7.824  0.1160  0.0332 -0.2618
   88loPI   C5A 1403   6.302  10.664   7.410 -0.1297  0.0660  0.2200
   88loPI   C6A 1404   6.039  10.459   7.094  0.0807  0.1540 -0.1177
   88loPI   C1B 1405   6.978   9.995   8.740  0.1996  0.2470  0.1417
   88loPI   C2B 1406   6.975   9.868   8.314  0.0244  0.2026  0.0529
   88loPI   C3B 1407   6.662   9.808   8.006 -0.1741 -0.1435 -0.0192
   88loPI   C4B 1408   6.500   9.750   7.577 -0.0502  0.1467  0.0427
   89loPI    C1 1409  13.217  13.174  10.373  0.2026 -0.0450  0.1913
   89loPI    C2 1410  13.384  12.815  10.316  0.2356 -0.0169  0.1105
   89loPI    C3 1411  13.108  12.864  10.601  0.0617 -0.1618 -0.0302
   89loPI   PO4 1412  13.280  13.297  10.209 -0.1723  0.0086  0.0887
   89loPI   GL1 1413  13.221  13.130   9.838 -0.0986 -0.1389 -0.0476
   89loPI   GL2 1414  13.202  13.359   9.725 -0.0742 -0.0521  0.4841
   89loPI   C1A 1415  13.335  13.002   9.471 -0.1804 -0.1142 -0.0829
   89loPI   C2A 1416  13.288  12.950   8.979  0.2362  0.0077  0.0013
   89loPI   C3A 1417  13.254  12.896   8.609 -0.0149 -0.1451 -0.0177
   89loPI   C4A 1418  13.126  12.690   8.156 -0.0235 -0.0825 -0.4168
   89loPI   C5A 1419  12.861  12.705   7.869 -0.2657  0.0872 -0.0196
   89loPI   C6A 1420  12.726  12.775   7.475 -0.1028 -0.0015  0.1272
   89loPI   C1B 1421  13.417  13.464   9.324 -0.0236 -0.0839  0.1378
   89loPI   C2B 1422  13.606  13.435   8.852  0.0202 -0.1118 -0.0075
   89loPI   C3B 1423  13.565  13.329   8.418  0.2538 -0.1598 -0.0985
   89loPI   C4B 1424  13.528  12.975   8.192 -0.0905 -0.0973 -0.0126
   90loPI    C1 1425  18.578   4.752   9.887  0.0034  0.1770 -0.0586
   90loPI    C2 1426  18.834   5.026  10.025 -0.0337  0.1125  0.1433
   90loPI    C3 1427  18.793   4.677  10.216  0.3213 -0.2096 -0.3442
   90loPI   PO4 1428  18.588   4.737   9.663  0.1932  0.2922 -0.0205
   90loPI   GL1 1429  18.430   4.949   9.281 -0.1175  0.1788 -0.1552
   90loPI   GL2 1430  18.112   5.130   9.313 -0.1009  0.2609 -0.1307
   90loPI   C1A 1431  18.373   4.791   8.978 -0.1167 -0.2544 -0.2323
   90loPI   C2A 1432  18.550   4.823   8.554 -0.0078 -0.0069  0.1044
   90loPI   C3A 1433  18.623   4.729   8.059  0.2321 -0.0262  0.0824
   90loPI   C4A 1434  18.474   4.701   7.684 -0.0044 -0.0849 -0.1551
   90loPI   C5A 1435  18.348   4.433   7.471  0.2505  0.2145 -0.0415
   90loPI   C6A 1436  18.275   4.135   7.533  0.1261 -0.0209 -0.1223
   90loPI   C1B 1437  18.021   5.138   8.890 -0.1286  0.0438 -0.2596
   90loPI   C2B 1438  18.087   4.876   8.501 -0.2273 -0.1430  0.0198
   90loPI   C3B 1439  18.145   4.862   8.022 -0.1430  0.2194  0.0120
   90loPI   C4B 1440  18.002   4.826   7.603 -0.1986  0.0934 -0.0906
   91loPI    C1 1441  18.045   4.759  10.157 -0.1138  0.2292 -0.0345
   91loPI    C2 1442  18.373   4.956  10.275  0.0898 -0.1537  0.0564
   91loPI    C3 1443  18.033   5.156  10.206  0.3095  0.2341  0.0683
   91loPI   PO4 1444  18.079   4.599   9.857 -0.1036 -0.1582 -0.0876
   91loPI   GL1 1445  18.173   4.433   9.477  0.1210  0.0434  0.0581
   91loPI   GL2 1446  18.009   4.579   9.296  0.0081  0.2050  0.0186
   91loPI   C1A 1447  17.893   4.140   9.336  0.0848  0.0305  0.0410
   91loPI   C2A 1448  17.650   3.776   9.101 -0.1228  0.0225 -0.1581
   91loPI   C3A 1449  17.268   3.808   8.913 -0.0959  0.3257  0.0418
   91loPI   C4A 1450  16.874   3.773   8.634  0.3780 -0.0913 -0.1235
   91loPI   C5A 1451  16.436   3.809   8.422  0.4436  0.1427 -0.0573
   91loPI   C6A 1452  16.364   3.977   7.982 -0.1862 -0.3688  0.1364
   91loPI   C1B 1453  17.985   4.555   8.867 -0.0820 -0.2382 -0.1145
   91loPI   C2B 1454  17.799   4.476   8.450 -0.2579  0.0549 -0.2017
   91loPI   C3B 1455  17.500   4.371   8.089 -0.0815 -0.1883 -0.2747
   91loPI   C4B 1456  17.132   4.470   7.933  0.0653 -0.1245 -0.0779
   92loPI    C1 1457  17.748   0.833   9.940 -0.0428  0.1346  0.1867
   92loPI    C2 1458  17.391   0.822  10.120 -0.1529  0.0895 -0.0319
   92loPI    C3 1459  17.722   0.738  10.328 -0.2724  0.0941  0.1626
   92loPI   PO4 1460  17.728   0.689   9.717  0.1876  0.1145  0.3257
   92loPI   GL1 1461  17.922   0.403   9.515  0.1308  0.1377  0.5553
   92loPI   GL2 1462  18.182   0.484   9.567 -0.0562  0.0220 -0.1484
   92loPI   C1A 1463  17.863   0.543   9.111 -0.0356 -0.1012 -0.0554
   92loPI   C2A 1464  17.925   0.665   8.759  0.0164 -0.2567 -0.0119
   92loPI   C3A 1465  17.793   0.837   8.346 -0.3714  0.0616 -0.2104
   92loPI   C4A 1466  17.572   0.675   7.928 -0.2696  0.0263 -0.0858
   92loPI   C5A 1467  17.399   0.409   7.546  0.0739 -0.0628 -0.2476
   92loPI   C6A 1468  17.429   0.001   7.477  0.2269 -0.4167 -0.1020
   92loPI   C1B 1469  18.412   0.399   9.162 -0.0957 -0.1781  0.2076
   92loPI   C2B 1470  18.757   0.627   8.994  0.0649 -0.0867 -0.6822
   92loPI   C3B 1471  18.813   0.799   8.644 -0.2803 -0.0798 -0.0194
   92loPI   C4B 1472  18.768   0.796   8.176 -0.2390  0.0966  0.0213
   93loPI    C1 1473   0.827   1.990  10.121 -0.0417  0.0022  0.0392
   93loPI    C2 1474   0.583   1.805   9.863 -0.0432  0.1012 -0.0313
   93loPI    C3 1475   0.673   1.633  10.213  0.1407 -0.1392 -0.1929
   93loPI   PO4 1476   1.048   2.087   9.971  0.0490  0.2045 -0.3192
   93loPI   GL1 1477   1.389   2.207   9.698  0.2970 -0.1638  0.5712
   93loPI   GL2 1478   1.642   2.327   9.537  0.0364  0.0907  0.0459
   93loPI   C1A 1479   1.269   2.415   9.266  0.0473  0.1380 -0.1271
   93loPI   C2A 1480   1.252   2.582   8.853  0.0063 -0.0214  0.0455
   93loPI   C3A 1481   1.031   2.700   8.541 -0.2523 -0.2096 -0.0285
   93loPI   C4A 1482   1.046   2.727   8.121  0.0762  0.2023 -0.3665
   93loPI   C5A 1483   1.118   2.740   7.715  0.2341  0.0646 -0.1664
   93loPI   C6A 1484   1.435   2.992   7.441 -0.1843  0.2779  0.0336
   93loPI   C1B 1485   1.654   2.060   9.168 -0.1496  0.0091 -0.1928
   93loPI   C2B 1486   1.383   2.096   8.822  0.0378 -0.3581 -0.2206
   93loPI   C3B 1487   1.112   2.189   8.487  0.1573 -0.0613  0.1556
   93loPI   C4B 1488   1.084   2.244   8.034  0.3060  0.1942  0.0059
   94loPI    C1 1489   7.365   0.950  10.662  0.2126  0.1255  0.0500
   94loPI    C2 1490   7.530   0.620  10.815 -0.1463 -0.0608  0.0470
   94loPI    C3 1491   7.533   0.961  11.024 -0.0110 -0.1334  0.1652
   94loPI   PO4 1492   7.452   0.913  10.346  0.1759 -0.0658 -0.0327
   94loPI   GL1 1493   7.667   0.954   9.986  0.1493  0.0995 -0.0866
   94loPI   GL2 1494   8.009   1.038   9.922 -0.0480 -0.1388 -0.3197
   94loPI   C1A 1495   7.456   0.903   9.515  0.0698 -0.5842  0.2310
   94loPI   C2A 1496   7.502   0.906   9.081  0.1101 -0.0859  0.2592
   94loPI   C3A 1497   7.468   0.827   8.597  0.0178 -0.1767 -0.2113
   94loPI   C4A 1498   7.377   0.802   8.199 -0.4752 -0.4628  0.3449
   94loPI   C5A 1499   7.504   0.735   7.730 -0.1036 -0.2048 -0.0378
   94loPI   C6A 1500   7.709   0.631   7.365 -0.1767  0.2129  0.2039
   94loPI   C1B 1501   7.980   0.847   9.448 -0.0853  0.0094  0.1932
   94loPI   C2B 1502   8.050   0.842   9.015  0.0083  0.4541  0.1039
   94loPI   C3B 1503   8.028   0.808   8.583 -0.0718 -0.1869  0.0631
   94loPI   C4B 1504   7.864   0.841   8.168 -0.0423 -0.0149 -0.1076
   95loPI    C1 1505  13.551  18.443  10.351 -0.2007 -0.0746 -0.0823
   95loPI    C2 1506  13.664  18.742  10.591 -0.0141 -0.2079 -0.0017
   95loPI    C3 1507  13.498  18.413  10.747 -0.0682 -0.2149 -0.0741
   95loPI   PO4 1508  13.304  18.505  10.192  0.2281  0.2180  0.0356
   95loPI   GL1 1509  13.153  18.711   9.807 -0.3087  0.0480  0.1057
   95loPI   GL2 1510  12.928  18.602   9.751  0.2674 -0.1540  0.0934
   95loPI   C1A 1511  13.364  18.820   9.263  0.0854  0.4366 -0.1188
   95loPI   C2A 1512  13.428  18.819   8.920  0.3597 -0.3252  0.1904
   95loPI   C3A 1513  13.301  18.917   8.523  0.1112  0.1178  0.0920
   95loPI   C4A 1514  13.220  19.018   8.064 -0.2841 -0.0455  0.4345
   95loPI   C5A 1515  13.123  19.285   7.734 -0.0258 -0.3611  0.1171
   95loPI   C6A 1516  13.122  19.703   7.861 -0.2857  0.3050 -0.0814
   95loPI   C1B 1517  13.020  18.493   9.350  0.1710  0.3127  0.2303
   95loPI   C2B 1518  13.081  18.416   8.999 -0.0420  0.0234 -0.1506
   95loPI   C3B 1519  13.069  18.373   8.533  0.2633  0.3668 -0.0162
   95loPI   C4B 1520  13.104  18.494   8.099 -0.0054 -0.0417  0.1093
   96loPI    C1 1521  12.621  17.749  10.340 -0.2216 -0.4779 -0.0916
   96loPI    C2 1522  12.902  17.612  10.089  0.0311 -0.0056 -0.0776
   96loPI    C3 1523  12.953  17.578  10.484  0.0623  0.0632 -0.0754
   96loPI   PO4 1524  12.535  17.990  10.181 -0.1174 -0.4045  0.5550
   96loPI   GL1 1525  12.331  18.195   9.887 -0.0185 -0.0454  0.0930
   96loPI   GL2 1526  12.454  18.475   9.693  0.0379  0.0324  0.3795
   96loPI   C1A 1527  12.363  18.025   9.492  0.2223 -0.1011 -0.0450
   96loPI   C2A 1528  12.243  18.084   9.056  0.0893  0.3215 -0.1791
   96loPI   C3A 1529  12.286  18.034   8.682  0.0229  0.0618 -0.3840
   96loPI   C4A 1530  12.308  18.176   8.265 -0.1874  0.2041 -0.3082
   96loPI   C5A 1531  12.324  18.116   7.850 -0.3153 -0.2491  0.2769
   96loPI   C6A 1532  12.244  17.833   7.537  0.0050 -0.1618 -0.3359
   96loPI   C1B 1533  12.536  18.401   9.279  0.3708 -0.1352 -0.0411
   96loPI   C2B 1534  12.578  18.437   8.863 -0.1829 -0.2160 -0.0694
   96loPI   C3B 1535  12.551  18.533   8.436 -0.0252 -0.1251  0.3787
   96loPI   C4B 1536  12.565  18.532   7.974 -0.3506  0.2155 -0.1490
   97loPI    C1 1537   0.174   7.379   9.960 -0.0974  0.1829  0.0969
   97loPI    C2 1538  -0.131   7.626   9.882 -0.3196 -0.0205  0.3050
   97loPI    C3 1539   0.046   7.634  10.240  0.0421  0.2214  0.1262
   97loPI   PO4 1540   0.319   7.447   9.729 -0.1506  0.1522  0.2724
   97loPI   GL1 1541   0.479   7.431   9.282 -0.4535  0.2022 -0.0486
   97loPI   GL2 1542   0.803   7.516   9.269 -0.0961 -0.0218  0.2388
   97loPI   C1A 1543   0.419   7.394   8.834 -0.1819  0.1254  0.0418
   97loPI   C2A 1544   0.511   7.432   8.407  0.1490 -0.1276  0.0332
   97loPI   C3A 1545   0.369   7.530   8.022  0.1032  0.1654  0.1462
   97loPI   C4A 1546   0.423   7.342   7.612  0.1068 -0.0493 -0.2441
   97loPI   C5A 1547   0.476   7.215   7.306  0.1496 -0.1001  0.1202
   97loPI   C6A 1548   0.469   7.186   6.835 -0.1542 -0.4855 -0.1082
   97loPI   C1B 1549   0.860   7.832   8.972  0.0425  0.0439 -0.0298
   97loPI   C2B 1550   0.811   7.934   8.634  0.3742  0.3684  0.3255
   97loPI   C3B 1551   0.757   7.814   8.182  0.0572  0.0721 -0.2298
   97loPI   C4B 1552   0.795   7.764   7.855 -0.1696 -0.1250 -0.2178
   98loPI    C1 1553  17.741  14.332   9.809 -0.1331 -0.0662 -0.1241
   98loPI    C2 1554  17.999  14.157  10.060  0.0782  0.0816 -0.2346
   98loPI    C3 1555  18.033  14.098   9.666 -0.0227  0.1476 -0.2536
   98loPI   PO4 1556  17.449  14.324   9.832 -0.1613 -0.2733  0.4409
   98loPI   GL1 1557  17.254  14.281   9.464 -0.0618  0.1943 -0.0810
   98loPI   GL2 1558  17.522  14.516   9.395  0.3002 -0.2350  0.1581
   98loPI   C1A 1559  17.239  13.928   9.143  0.1193  0.0873  0.2245
   98loPI   C2A 1560  17.346  13.486   8.825 -0.0048 -0.0134 -0.2622
   98loPI   C3A 1561  17.432  13.393   8.526  0.1064  0.1583 -0.0745
   98loPI   C4A 1562  17.405  13.420   8.046  0.0722  0.1334  0.4121
   98loPI   C5A 1563  17.629  13.084   7.791  0.1717 -0.0721  0.3339
   98loPI   C6A 1564  18.024  12.801   7.706 -0.2238  0.3036 -0.0066
   98loPI   C1B 1565  17.362  14.397   8.914  0.0903  0.2253 -0.2393
   98loPI   C2B 1566  17.348  14.271   8.513 -0.2549 -0.1197 -0.2829
   98loPI   C3B 1567  17.438  14.370   8.056  0.0934 -0.2381 -0.1603
   98loPI   C4B 1568  17.326  14.366   7.694 -0.1679 -0.2404  0.2089
   99loPI    C1 1569  18.393   8.851  10.096 -0.0971 -0.1883 -0.0400
   99loPI    C2 1570  18.379   9.211  10.269  0.2273 -0.0932 -0.2035
   99loPI    C3 1571  18.413   8.882  10.494 -0.0071 -0.0191 -0.0568
   99loPI   PO4 1572  18.609   8.846   9.949 -0.2036 -0.1819  0.1164
   99loPI   GL1 1573  18.877   8.581   9.653 -0.0482  0.2751  0.0073
   99loPI   GL2 1574  18.675   8.619   9.499 -0.0187  0.0630 -0.2117
   99loPI   C1A 1575  19.023   8.444   9.257 -0.0045  0.2022  0.0493
   99loPI   C2A 1576  18.927   8.469   8.806  0.0307  0.1566  0.4337
   99loPI   C3A 1577  19.042   8.494   8.382 -0.1235  0.3656 -0.0563
   99loPI   C4A 1578  18.810   8.299   7.989  0.2565 -0.0448 -0.1441
   99loPI   C5A 1579  18.485   8.340   7.688  0.0259 -0.2393  0.0493
   99loPI   C6A 1580  18.059   8.561   7.739  0.0761  0.1515 -0.0542
   99loPI   C1B 1581  18.413   8.966   9.248  0.2042 -0.1019  0.0316
   99loPI   C2B 1582  18.221   9.187   8.885  0.2352  0.0311 -0.1180
   99loPI   C3B 1583  18.172   9.059   8.491 -0.1617 -0.0298  0.0084
   99loPI   C4B 1584  18.033   9.142   8.005 -0.2369 -0.3320  0.1109
  100loPI    C1 1585   0.247   4.350   9.982  0.1570 -0.2025 -0.1779
  100loPI    C2 1586   0.458   4.571  10.241 -0.1245 -0.1503  0.0117
  100loPI    C3 1587   0.612   4.230  10.097  0.2399  0.0740 -0.1450
  100loPI   PO4 1588   0.170   4.531   9.802  0.0524  0.1719 -0.0429
  100loPI   GL1 1589   0.151   4.673   9.335 -0.1137  0.0157 -0.2217
  100loPI   GL2 1590  -0.172   4.448   9.289  0.1106 -0.3238  0.1041
  100loPI   C1A 1591   0.051   4.991   9.177 -0.0401 -0.2461 -0.0478
  100loPI   C2A 1592  -0.148   5.264   8.823 -0.2930  0.1791 -0.1555
  100loPI   C3A 1593   0.038   5.162   8.321 -0.2529  0.2026  0.2764
  100loPI   C4A 1594   0.101   5.402   7.903 -0.0751 -0.1756  0.2692
  100loPI   C5A 1595   0.366   5.793   7.625 -0.0126  0.1436 -0.5305
  100loPI   C6A 1596   0.805   5.989   7.769 -0.1118  0.1266  0.2748
  100loPI   C1B 1597   0.030   4.603   8.832 -0.1991 -0.1086  0.2893
  100loPI   C2B 1598   0.140   4.495   8.457  0.1755  0.1956 -0.0247
  100loPI   C3B 1599   0.165   4.380   8.095  0.2923  0.2566 -0.0357
  100loPI   C4B 1600  -0.149   4.296   7.903 -0.0897  0.1215  0.1579
  101loPI    C1 1601  18.109  15.335  10.523 -0.0132 -0.1386  0.0242
  101loPI    C2 1602  17.772  15.362  10.738 -0.1692 -0.1273 -0.2177
  101loPI    C3 1603  17.889  15.008  10.591 -0.1251 -0.1149 -0.2130
  101loPI   PO4 1604  18.061  15.533  10.277 -0.3027 -0.1062 -0.1111
  101loPI   GL1 1605  17.934  15.586   9.908 -0.0320 -0.1410 -0.2250
  101loPI   GL2 1606  18.192  15.557   9.740 -0.0453  0.0695 -0.1484
  101loPI   C1A 1607  17.769  15.409   9.578 -0.3454 -0.3989  0.0849
  101loPI   C2A 1608  17.766  15.369   9.132  0.0826  0.0824  0.2633
  101loPI   C3A 1609  17.790  15.393   8.718  0.0860  0.2111 -0.2673
  101loPI   C4A 1610  17.762  15.257   8.354 -0.3471  0.0430 -0.0484
  101loPI   C5A 1611  17.959  15.365   7.960  0.0762 -0.2179  0.2783
  101loPI   C6A 1612  17.788  15.323   7.497 -0.1778  0.1971  0.0866
  101loPI   C1B 1613  18.223  15.400   9.372 -0.1537 -0.3779  0.2519
  101loPI   C2B 1614  18.257  15.377   8.928  0.0183 -0.1388  0.0201
  101loPI   C3B 1615  18.286  15.386   8.471 -0.1820  0.0310  0.1852
  101loPI   C4B 1616  18.494  15.242   8.160  0.3793  0.1536  0.0725
  102loPI    C1 1617   6.589   3.722  10.230 -0.1530 -0.1888  0.1202
  102loPI    C2 1618   6.244   3.647  10.042 -0.2313 -0.1769  0.2575
  102loPI    C3 1619   6.241   3.807  10.409 -0.0831 -0.3224  0.3237
  102loPI   PO4 1620   6.732   3.664  10.090  0.1870 -0.3022 -0.3615
  102loPI   GL1 1621   6.515   3.536   9.639 -0.0208  0.0818 -0.3281
  102loPI   GL2 1622   6.833   3.481   9.660  0.2318  0.2933  0.0195
  102loPI   C1A 1623   6.581   3.424   9.248 -0.2509 -0.0776  0.0863
  102loPI   C2A 1624   6.542   3.513   8.877 -0.0146 -0.1716  0.1960
  102loPI   C3A 1625   6.363   3.602   8.425  0.1225 -0.3390 -0.1547
  102loPI   C4A 1626   6.365   3.626   8.014  0.0445 -0.2832  0.1406
  102loPI   C5A 1627   6.157   3.851   7.606 -0.1603  0.1045  0.0764
  102loPI   C6A 1628   5.796   4.045   7.342  0.2883 -0.1021 -0.0246
  102loPI   C1B 1629   7.096   3.577   9.326  0.2995  0.2740 -0.0253
  102loPI   C2B 1630   7.008   3.678   8.920 -0.2211  0.0653  0.5549
  102loPI   C3B 1631   6.971   3.680   8.425  0.0743  0.3991  0.2666
  102loPI   C4B 1632   6.878   3.626   8.007 -0.1593 -0.4216 -0.1983
  103loPI    C1 1633  18.375  12.216  10.371 -0.0320 -0.0179 -0.1138
  103loPI    C2 1634  17.976  12.220  10.391 -0.0105  0.0583  0.4648
  103loPI    C3 1635  18.168  11.883  10.295 -0.2140  0.0706 -0.0120
  103loPI   PO4 1636  18.407  12.454  10.156  0.0611  0.1896 -0.2104
  103loPI   GL1 1637  18.693  12.563   9.833 -0.2991  0.2289  0.1628
  103loPI   GL2 1638  18.769  12.248   9.807  0.2805 -0.5648 -0.0331
  103loPI   C1A 1639  18.795  12.590   9.415  0.1305 -0.0930  0.3764
  103loPI   C2A 1640  19.020  12.876   9.081  0.1412  0.1281 -0.1112
  103loPI   C3A 1641  18.970  12.919   8.569 -0.2250  0.0794 -0.3126
  103loPI   C4A 1642  18.864  12.943   8.199 -0.0251 -0.0197 -0.0559
  103loPI   C5A 1643  18.651  13.083   7.851 -0.0898  0.2221 -0.1344
  103loPI   C6A 1644  18.588  13.283   7.358  0.0562  0.1138 -0.4323
  103loPI   C1B 1645  18.491  12.162   9.454 -0.0913  0.0427  0.0144
  103loPI   C2B 1646  18.490  12.084   9.023  0.0880 -0.3672 -0.1538
  103loPI   C3B 1647  18.498  12.178   8.595 -0.3076  0.1505 -0.3467
  103loPI   C4B 1648  18.840  12.453   8.368  0.0702 -0.1768 -0.0632
  104loPI    C1 1649  17.952  11.144  10.341  0.2809 -0.2399  0.0452
  104loPI    C2 1650  17.836  11.008  10.699  0.0904 -0.0119  0.0724
  104loPI    C3 1651  18.004  11.370  10.667 -0.3546  0.1835 -0.1294
  104loPI   PO4 1652  18.087  11.016  10.260  0.2425  0.2583  0.3122
  104loPI   GL1 1653  18.144  10.830   9.849  0.3348 -0.3430 -0.1771
  104loPI   GL2 1654  18.173  11.159   9.757 -0.0957  0.2766  0.0024
  104loPI   C1A 1655  18.156  10.778   9.392 -0.0642  0.0804 -0.2469
  104loPI   C2A 1656  18.110  10.913   8.955  0.0930 -0.0886 -0.1620
  104loPI   C3A 1657  18.257  11.194   8.585 -0.2282 -0.3075 -0.0646
  104loPI   C4A 1658  18.231  11.249   8.156 -0.0864  0.2975 -0.0777
  104loPI   C5A 1659  18.062  11.492   7.725  0.0335  0.0851 -0.2061
  104loPI   C6A 1660  17.925  11.692   7.443 -0.0411  0.0311  0.1320
  104loPI   C1B 1661  17.890  11.273   9.537  0.3318 -0.0958  0.0648
  104loPI   C2B 1662  17.771  11.187   9.186  0.0210  0.1708  0.0977
  104loPI   C3B 1663  17.729  11.163   8.768 -0.1315 -0.0527  0.0116
  104loPI   C4B 1664  17.870  10.909   8.390 -0.0268 -0.1645 -0.0896
  105loPI    C1 1665   4.532  14.748  10.069  0.0318  0.0572 -0.0829
  105loPI    C2 1666   4.575  14.697  10.464  0.0628 -0.2462 -0.1233
  105loPI    C3 1667   4.210  14.692  10.300  0.0390  0.0190 -0.0819
  105loPI   PO4 1668   4.735  14.994  10.026  0.0697  0.0101  0.0564
  105loPI   GL1 1669   4.684  15.157   9.691 -0.0144 -0.0198  0.2672
  105loPI   GL2 1670   4.492  14.847   9.552 -0.0637 -0.1495 -0.1183
  105loPI   C1A 1671   4.812  15.157   9.292  0.1688  0.3652  0.3713
  105loPI   C2A 1672   4.978  14.984   8.944 -0.0811 -0.1870  0.0778
  105loPI   C3A 1673   5.132  14.920   8.476 -0.2276 -0.1650 -0.2489
  105loPI   C4A 1674   5.185  14.825   8.088  0.2829  0.0984 -0.1760
  105loPI   C5A 1675   5.108  14.528   7.755  0.3119 -0.3519  0.0385
  105loPI   C6A 1676   5.134  14.508   7.256  0.1333 -0.0247 -0.1995
  105loPI   C1B 1677   4.373  15.000   9.253  0.3735 -0.0260  0.0971
  105loPI   C2B 1678   4.468  15.182   8.884 -0.2189 -0.0176  0.0524
  105loPI   C3B 1679   4.582  15.221   8.549 -0.0962 -0.1054 -0.1021
  105loPI   C4B 1680   4.844  15.173   8.192  0.3572 -0.2112 -0.2611
  106loPI    C1 1681  11.040   6.417  10.423 -0.4813 -0.2660 -0.1974
  106loPI    C2 1682  11.037   6.117  10.688 -0.0340 -0.2452 -0.1605
  106loPI    C3 1683  11.033   6.496  10.815  0.1526 -0.2353 -0.1808
  106loPI   PO4 1684  11.220   6.319  10.283  0.2687 -0.1449 -0.0172
  106loPI   GL1 1685  11.355   6.162   9.836 -0.0420  0.3136  0.1639
  106loPI   GL2 1686  11.044   5.990   9.812  0.1843 -0.0782  0.2503
  106loPI   C1A 1687  11.233   6.394   9.406 -0.1367 -0.1385  0.1842
  106loPI   C2A 1688  11.315   6.621   9.059 -0.0092 -0.2808 -0.1824
  106loPI   C3A 1689  11.417   6.891   8.714  0.4398  0.0771  0.3262
  106loPI   C4A 1690  11.623   7.168   8.335 -0.0339  0.0855  0.0794
  106loPI   C5A 1691  11.851   7.414   8.002 -0.0230 -0.2149  0.2143
  106loPI   C6A 1692  12.261   7.626   8.034  0.4050 -0.0895  0.1198
  106loPI   C1B 1693  11.058   5.904   9.358  0.2816  0.1250 -0.0912
  106loPI   C2B 1694  11.096   6.079   8.999  0.2750 -0.4069  0.0825
  106loPI   C3B 1695  11.012   6.435   8.584  0.2191  0.2398  0.0518
  106loPI   C4B 1696  11.023   6.486   8.056  0.0210  0.1796 -0.2155
  107loPI    C1 1697   2.969   8.965   9.997  0.0419 -0.0803 -0.1038
  107loPI    C2 1698   2.590   8.847  10.050  0.0219  0.0528  0.0593
  107loPI    C3 1699   2.887   8.660  10.243  0.0317  0.0009 -0.0057
  107loPI   PO4 1700   3.037   8.835   9.685 -0.2048 -0.1061 -0.0376
  107loPI   GL1 1701   2.936   8.948   9.272  0.2324 -0.0268  0.1841
  107loPI   GL2 1702   3.218   9.092   9.219 -0.0271  0.2541  0.0849
  107loPI   C1A 1703   3.004   8.745   8.913 -0.3789 -0.0101 -0.0233
  107loPI   C2A 1704   2.921   8.804   8.491 -0.1181  0.0362  0.3548
  107loPI   C3A 1705   2.789   8.783   8.016  0.1953 -0.2464 -0.0333
  107loPI   C4A 1706   2.622   8.943   7.759 -0.3151  0.0308  0.1538
  107loPI   C5A 1707   2.295   8.914   7.415 -0.1079 -0.0371  0.0444
  107loPI   C6A 1708   2.024   9.220   7.287  0.1095 -0.0993 -0.0109
  107loPI   C1B 1709   3.324   9.131   8.874  0.1346 -0.0023 -0.3081
  107loPI   C2B 1710   3.433   9.150   8.488 -0.0419  0.2744 -0.1742
  107loPI   C3B 1711   3.256   8.922   8.057  0.1794 -0.3596  0.2039
  107loPI   C4B 1712   3.120   8.861   7.656  0.0814 -0.0889  0.1519
  108loPI    C1 1713  14.753   2.501  10.118 -0.1730 -0.0099  0.0043
  108loPI    C2 1714  14.678   2.256  10.426 -0.2158  0.0877  0.0718
  108loPI    C3 1715  14.975   2.524  10.450 -0.1005 -0.0285 -0.0426
  108loPI   PO4 1716  14.784   2.358   9.920 -0.0219  0.1071 -0.1027
  108loPI   GL1 1717  14.645   2.326   9.535 -0.2593  0.0994  0.0688
  108loPI   GL2 1718  14.462   2.455   9.452  0.2782 -0.0920 -0.3158
  108loPI   C1A 1719  14.839   2.096   9.318  0.1284  0.0227 -0.1352
  108loPI   C2A 1720  14.917   1.856   8.951 -0.2219  0.0449  0.2124
  108loPI   C3A 1721  15.027   2.142   8.590 -0.1077 -0.0672 -0.0787
  108loPI   C4A 1722  14.999   1.972   8.162  0.1105 -0.0788 -0.0002
  108loPI   C5A 1723  14.610   1.962   7.951  0.1610 -0.1854 -0.1528
  108loPI   C6A 1724  14.273   2.058   7.830 -0.1484 -0.0761 -0.1587
  108loPI   C1B 1725  14.191   2.490   9.135 -0.3645  0.0655  0.0112
  108loPI   C2B 1726  14.129   2.391   8.641 -0.0624 -0.0267 -0.0208
  108loPI   C3B 1727  14.124   2.341   8.220 -0.0497 -0.5070  0.0727
  108loPI   C4B 1728  13.891   2.387   7.775  0.0064  0.0400  0.3215
  109loPI    C1 1729  14.147   2.944  10.232  0.0870  0.1259  0.2269
  109loPI    C2 1730  14.309   3.177  10.514  0.3459  0.1783  0.0394
  109loPI    C3 1731  14.505   2.853  10.385  0.2127  0.1343 -0.0548
  109loPI   PO4 1732  13.935   3.182  10.074  0.1365 -0.5832  0.0255
  109loPI   GL1 1733  14.177   3.292   9.699 -0.1340 -0.1652  0.4028
  109loPI   GL2 1734  14.321   3.096   9.724 -0.0767 -0.1602  0.1628
  109loPI   C1A 1735  14.232   3.554   9.319  0.0608 -0.0556 -0.0475
  109loPI   C2A 1736  14.092   3.866   9.039  0.0814  0.2717  0.0526
  109loPI   C3A 1737  13.820   4.048   8.776 -0.0328  0.1615 -0.1280
  109loPI   C4A 1738  13.839   3.790   8.451  0.2008 -0.1407 -0.0206
  109loPI   C5A 1739  13.610   3.783   8.081 -0.0744  0.1547  0.3181
  109loPI   C6A 1740  13.883   3.794   7.707 -0.1780  0.3315 -0.1877
  109loPI   C1B 1741  14.254   2.961   9.344 -0.1197 -0.0781 -0.2090
  109loPI   C2B 1742  14.302   2.886   8.852 -0.0110  0.3299 -0.0374
  109loPI   C3B 1743  14.351   2.773   8.444 -0.1430  0.1878  0.0514
  109loPI   C4B 1744  14.251   2.807   8.060  0.4600  0.0418  0.0889
  110loPI    C1 1745  18.573   6.212   9.862 -0.0889 -0.2030 -0.2303
  110loPI    C2 1746  18.738   5.918  10.076 -0.1224 -0.2376 -0.2521
  110loPI    C3 1747  18.353   6.012  10.129 -0.0355  0.0032 -0.0286
  110loPI   PO4 1748  18.770   6.414   9.843 -0.0743  0.0572  0.0863
  110loPI   GL1 1749  18.887   6.556   9.534  0.1460  0.5452  0.0669
  110loPI   GL2 1750  18.702   6.675   9.433 -0.1411  0.2106  0.3720
  110loPI   C1A 1751  19.143   6.696   9.150  0.0918  0.2247 -0.0413
  110loPI   C2A 1752  19.130   6.846   8.819  0.0800 -0.1802 -0.0938
  110loPI   C3A 1753  18.923   7.125   8.516  0.1275  0.1876 -0.0711
  110loPI   C4A 1754  18.491   7.290   8.530  0.0250  0.3147  0.2063
  110loPI   C5A 1755  18.229   7.489   8.294  0.0067 -0.1160  0.2355
  110loPI   C6A 1756  18.214   7.695   7.877 -0.3635 -0.2199  0.2606
  110loPI   C1B 1757  18.619   6.629   9.022 -0.0126 -0.0417  0.0858
  110loPI   C2B 1758  18.604   6.803   8.593  0.1882 -0.1443  0.3485
  110loPI   C3B 1759  18.553   6.875   8.156 -0.0859 -0.2669 -0.0406
  110loPI   C4B 1760  18.587   7.024   7.801 -0.0824 -0.0860  0.0009
  111loPI    C1 1761  10.281   1.828  10.258  0.0826  0.2179 -0.0221
  111loPI    C2 1762  10.035   1.612  10.029 -0.0999  0.4285 -0.0272
  111loPI    C3 1763  10.144   1.476  10.389 -0.0631  0.2424 -0.1075
  111loPI   PO4 1764  10.428   1.849  10.158 -0.1377 -0.2154  0.0721
  111loPI   GL1 1765  10.362   1.970   9.720  0.4867 -0.0045 -0.2230
  111loPI   GL2 1766  10.322   1.617   9.615 -0.3162 -0.0212  0.0611
  111loPI   C1A 1767  10.632   1.885   9.306 -0.3012  0.0187 -0.0189
  111loPI   C2A 1768  10.742   1.833   8.849 -0.3009  0.0714 -0.1233
  111loPI   C3A 1769  10.616   1.795   8.423  0.1527  0.0376 -0.0376
  111loPI   C4A 1770  10.655   1.456   8.103 -0.0245 -0.0870 -0.0992
  111loPI   C5A 1771  10.393   1.113   7.959 -0.1088  0.2086  0.1949
  111loPI   C6A 1772  10.001   0.819   7.738 -0.1971 -0.3027  0.1784
  111loPI   C1B 1773  10.120   1.911   9.232  0.2602  0.1244 -0.2341
  111loPI   C2B 1774  10.129   1.856   8.801  0.3596  0.1697  0.0456
  111loPI   C3B 1775  10.057   1.850   8.313 -0.0443 -0.0408  0.0257
  111loPI   C4B 1776  10.220   1.646   8.036  0.0510 -0.0074 -0.1402
  112loPI    C1 1777  16.724  12.982  10.424  0.0275  0.1884  0.0819
  112loPI    C2 1778  16.408  13.226  10.430 -0.0520  0.0896 -0.0484
  112loPI    C3 1779  16.429  12.921  10.687 -0.1343  0.0078 -0.1380
  112loPI   PO4 1780  16.785  12.904  10.152  0.2793  0.0206 -0.1727
  112loPI   GL1 1781  17.026  12.903   9.851  0.0554 -0.0747 -0.0526
  112loPI   GL2 1782  17.207  12.594   9.868 -0.1268  0.0188  0.0980
  112loPI   C1A 1783  17.142  13.058   9.441 -0.1115 -0.0058 -0.0702
  112loPI   C2A 1784  17.401  13.088   9.228 -0.0577  0.1591 -0.0778
  112loPI   C3A 1785  17.533  12.973   8.749 -0.0097  0.1321  0.0954
  112loPI   C4A 1786  17.493  12.911   8.210  0.2586  0.2743 -0.2447
  112loPI   C5A 1787  17.293  12.686   7.875  0.0974  0.1676  0.0605
  112loPI   C6A 1788  16.966  12.635   7.485 -0.1332 -0.0501 -0.0549
  112loPI   C1B 1789  16.969  12.575   9.476  0.1683 -0.0909  0.0519
  112loPI   C2B 1790  16.858  12.150   9.246 -0.1979  0.1272 -0.0489
  112loPI   C3B 1791  16.936  12.039   8.836 -0.0088  0.1410  0.3060
  112loPI   C4B 1792  17.002  12.116   8.463  0.0201 -0.2374  0.0833
  113loPI    C1 1793  11.361  14.848  10.401 -0.1010 -0.0972  0.0021
  113loPI    C2 1794  11.160  15.191  10.445 -0.1998 -0.1643  0.0795
  113loPI    C3 1795  11.393  15.056  10.741 -0.0362 -0.0849 -0.0115
  113loPI   PO4 1796  11.408  14.863  10.137 -0.0390 -0.3158  0.3118
  113loPI   GL1 1797  11.411  14.828   9.683  0.0681  0.1806 -0.0190
  113loPI   GL2 1798  11.716  14.857   9.708 -0.1339 -0.0781 -0.3335
  113loPI   C1A 1799  11.183  14.725   9.214 -0.0567 -0.0333 -0.0254
  113loPI   C2A 1800  11.148  14.536   8.763  0.1300 -0.3040 -0.3983
  113loPI   C3A 1801  11.138  14.519   8.262 -0.0324  0.2598 -0.1426
  113loPI   C4A 1802  11.014  14.506   7.797  0.0657 -0.2256 -0.2042
  113loPI   C5A 1803  11.079  14.211   7.571 -0.2765 -0.0625 -0.3245
  113loPI   C6A 1804  11.187  14.105   7.082 -0.0371  0.1841  0.2185
  113loPI   C1B 1805  11.671  14.576   9.373  0.2572 -0.2333 -0.3379
  113loPI   C2B 1806  11.608  14.595   8.932 -0.0965  0.3266  0.1052
  113loPI   C3B 1807  11.574  14.425   8.504 -0.0160 -0.2317  0.1117
  113loPI   C4B 1808  11.557  14.382   8.008  0.0237 -0.0668  0.2505
  114loPI    C1 1809  17.281   9.191  10.563 -0.1388 -0.1740 -0.0248
  114loPI    C2 1810  17.464   9.487  10.761 -0.2189 -0.2041  0.0953
  114loPI    C3 1811  17.080   9.525  10.654 -0.1620 -0.1672 -0.0994
  114loPI   PO4 1812  17.465   9.107  10.397  0.0062 -0.2580 -0.1440
  114loPI   GL1 1813  17.264   9.082   9.837  0.1620  0.0081  0.0497
  114loPI   GL2 1814  17.528   9.223   9.674  0.2353 -0.1518  0.1323
  114loPI   C1A 1815  16.970   9.155   9.568 -0.2495  0.1145 -0.1418
  114loPI   C2A 1816  16.840   9.228   9.129 -0.2652 -0.0007 -0.2726
  114loPI   C3A 1817  16.518   9.322   8.764 -0.1057  0.0136 -0.0887
  114loPI   C4A 1818  16.504   9.191   8.452  0.0561 -0.3491  0.0834
  114loPI   C5A 1819  16.263   9.022   8.023  0.1372  0.3404  0.0596
  114loPI   C6A 1820  15.999   9.248   7.740  0.0498  0.4160 -0.3497
  114loPI   C1B 1821  17.284   9.484   9.411 -0.1360  0.0979  0.1736
  114loPI   C2B 1822  17.223   9.429   8.934 -0.0244 -0.0786 -0.4132
  114loPI   C3B 1823  17.264   9.600   8.454 -0.0315  0.0078  0.1190
  114loPI   C4B 1824  17.251   9.668   8.040 -0.2242 -0.0678 -0.0726
  115loPI    C1 1825  11.253  10.442  10.216 -0.0399 -0.2080 -0.1416
  115loPI    C2 1826  11.479  10.490  10.542  0.0079 -0.0748 -0.1937
  115loPI    C3 1827  11.098  10.372  10.578  0.0145 -0.0660 -0.0905
  115loPI   PO4 1828  11.272  10.616  10.056  0.0086  0.0478  0.0065
  115loPI   GL1 1829  10.994  10.733   9.791  0.0192  0.0338  0.2343
  115loPI   GL2 1830  11.343  10.788   9.588 -0.2822 -0.0324  0.0310
  115loPI   C1A 1831  10.862  10.846   9.388  0.2486 -0.2159 -0.0741
  115loPI   C2A 1832  10.962  10.722   9.018  0.2152  0.1436 -0.1507
  115loPI   C3A 1833  11.248  10.602   8.669  0.0280  0.1517 -0.1825
  115loPI   C4A 1834  11.252  10.429   8.276  0.0987  0.0684 -0.2553
  115loPI   C5A 1835  11.367  10.072   7.926 -0.1419 -0.2095 -0.3123
  115loPI   C6A 1836  11.493   9.942   7.389 -0.0863 -0.1692 -0.0585
  115loPI   C1B 1837  11.555  10.742   9.220 -0.0417 -0.3428 -0.0201
  115loPI   C2B 1838  11.754  10.755   8.788 -0.0459 -0.0903 -0.1671
  115loPI   C3B 1839  11.938  11.004   8.409  0.1189  0.0684 -0.4073
  115loPI   C4B 1840  12.127  11.160   8.086 -0.0197 -0.0242 -0.0310
  116loPI    C1 1841  14.489  11.273  10.057  0.0370  0.0306 -0.1767
  116loPI    C2 1842  14.163  11.503  10.089 -0.0318 -0.0803 -0.0685
  116loPI    C3 1843  14.139  11.148   9.908  0.0224 -0.1012 -0.0350
  116loPI   PO4 1844  14.649  11.512   9.935 -0.4051  0.2099 -0.0832
  116loPI   GL1 1845  14.744  11.529   9.521  0.0807  0.3518 -0.2555
  116loPI   GL2 1846  14.363  11.581   9.470 -0.0127  0.2794 -0.4442
  116loPI   C1A 1847  15.047  11.635   9.214 -0.1030 -0.0746 -0.2689
  116loPI   C2A 1848  15.191  11.690   8.838  0.1491  0.1128 -0.2644
  116loPI   C3A 1849  15.352  11.694   8.471 -0.0945  0.2312 -0.0106
  116loPI   C4A 1850  15.213  11.514   8.129  0.3901  0.1732 -0.2257
  116loPI   C5A 1851  15.330  11.775   7.770  0.2209  0.3244 -0.1358
  116loPI   C6A 1852  15.290  11.937   7.390 -0.1739 -0.1600  0.3060
  116loPI   C1B 1853  14.329  11.515   9.126 -0.0476 -0.0190  0.1510
  116loPI   C2B 1854  14.371  11.455   8.704  0.1169 -0.1306  0.1440
  116loPI   C3B 1855  14.277  11.533   8.367 -0.4916 -0.1457  0.0359
  116loPI   C4B 1856  14.348  11.823   8.028  0.1931 -0.0440  0.0623
  117loPI    C1 1857  14.604   0.914  10.358 -0.3312  0.0519 -0.0355
  117loPI    C2 1858  14.522   0.536  10.460 -0.1095 -0.0199 -0.1174
  117loPI    C3 1859  14.735   0.767  10.707  0.0702 -0.0642 -0.2291
  117loPI   PO4 1860  14.686   0.861  10.123 -0.0582 -0.0731 -0.0501
  117loPI   GL1 1861  14.598   0.776   9.653  0.0858 -0.0162  0.1425
  117loPI   GL2 1862  14.756   1.119   9.655  0.0646  0.1481 -0.4204
  117loPI   C1A 1863  14.435   0.696   9.338  0.2716 -0.0005  0.3014
  117loPI   C2A 1864  14.120   0.557   9.027  0.0417  0.1786  0.1099
  117loPI   C3A 1865  14.101   0.422   8.567 -0.0014  0.1166  0.0845
  117loPI   C4A 1866  14.097   0.383   8.102  0.1517 -0.3444  0.3840
  117loPI   C5A 1867  14.414   0.327   7.772  0.0267  0.0056  0.0413
  117loPI   C6A 1868  14.462   0.369   7.333 -0.0934  0.0243 -0.0919
  117loPI   C1B 1869  14.587   1.162   9.248 -0.0609  0.1378 -0.0904
  117loPI   C2B 1870  14.521   1.140   8.859 -0.1304  0.1691 -0.3238
  117loPI   C3B 1871  14.385   0.858   8.557 -0.0982  0.1654 -0.1750
  117loPI   C4B 1872  14.406   0.754   8.197  0.1862 -0.2141 -0.2124
  118loPI    C1 1873   6.998   0.613  10.614 -0.1334 -0.0985  0.0016
  118loPI    C2 1874   6.802   0.956  10.681 -0.0805 -0.0447 -0.1167
  118loPI    C3 1875   6.978   0.763  10.984 -0.0411  0.0752 -0.0629
  118loPI   PO4 1876   7.077   0.624  10.370 -0.1676 -0.0050 -0.0109
  118loPI   GL1 1877   7.136   0.713   9.971  0.0463  0.1297  0.1712
  118loPI   GL2 1878   6.947   0.923   9.669 -0.0241  0.1503 -0.0906
  118loPI   C1A 1879   7.176   0.451   9.600  0.1957  0.2041 -0.3738
  118loPI   C2A 1880   7.258   0.441   9.164  0.0451 -0.1373  0.0039
  118loPI   C3A 1881   7.252   0.421   8.743 -0.0467  0.1085  0.0237
  118loPI   C4A 1882   7.182   0.375   8.369 -0.0128 -0.1345  0.0390
  118loPI   C5A 1883   7.131   0.464   7.963  0.1753  0.0460 -0.0719
  118loPI   C6A 1884   7.228   0.465   7.470  0.1472  0.1737  0.2628
  118loPI   C1B 1885   7.000   0.805   9.283  0.5142 -0.2626  0.1447
  118loPI   C2B 1886   7.031   0.843   8.794 -0.1909  0.0153  0.0313
  118loPI   C3B 1887   6.925   0.843   8.360  0.3958  0.0812  0.1540
  118loPI   C4B 1888   6.966   0.958   7.961 -0.0794  0.2844  0.1934
  119loPI    C1 1889   4.154  11.151   9.817  0.0515  0.2984 -0.1643
  119loPI    C2 1890   4.450  11.117  10.082 -0.1451  0.3180  0.0610
  119loPI    C3 1891   4.072  11.152  10.208 -0.2824 -0.0607 -0.2266
  119loPI   PO4 1892   4.223  11.329   9.649 -0.0968  0.1399 -0.0728
  119loPI   GL1 1893   4.329  11.590   9.281 -0.0388  0.2179  0.0379
  119loPI   GL2 1894   4.613  11.404   9.326  0.0439  0.2126 -0.0875
  119loPI   C1A 1895   4.060  11.643   8.961 -0.1354  0.0348 -0.1859
  119loPI   C2A 1896   3.994  11.551   8.611  0.0079  0.3625  0.0784
  119loPI   C3A 1897   3.985  11.532   8.243  0.1410 -0.2043 -0.0725
  119loPI   C4A 1898   3.872  11.536   7.799 -0.0724  0.2716  0.1731
  119loPI   C5A 1899   3.699  11.188   7.495  0.0933  0.1586 -0.0319
  119loPI   C6A 1900   3.533  10.890   7.189 -0.0291  0.2270 -0.0603
  119loPI   C1B 1901   4.472  11.328   8.888  0.3168 -0.1397  0.3032
  119loPI   C2B 1902   4.493  11.283   8.430 -0.1854 -0.2489  0.0067
  119loPI   C3B 1903   4.672  11.232   7.937 -0.1537  0.0100 -0.0298
  119loPI   C4B 1904   4.612  11.478   7.640 -0.2067 -0.0314  0.0458
  120loPI    C1 1905  10.848  17.635  10.306  0.1172 -0.4025  0.2359
  120loPI    C2 1906  10.645  17.464  10.006 -0.0665  0.2514 -0.0296
  120loPI    C3 1907  10.530  17.405  10.385 -0.2900  0.0155 -0.1313
  120loPI   PO4 1908  11.075  17.631  10.222  0.0679 -0.0328  0.0460
  120loPI   GL1 1909  11.071  17.714   9.817 -0.3788  0.0717 -0.0388
  120loPI   GL2 1910  10.920  17.531   9.564 -0.4835  0.2904  0.0158
  120loPI   C1A 1911  11.079  17.990   9.464  0.1964 -0.1470 -0.0297
  120loPI   C2A 1912  11.239  18.062   9.001  0.1349 -0.0435  0.0421
  120loPI   C3A 1913  11.330  18.077   8.509  0.2079  0.0803 -0.0361
  120loPI   C4A 1914  11.307  18.120   8.063 -0.1967  0.0370 -0.0928
  120loPI   C5A 1915  11.350  18.307   7.717 -0.0161  0.1526 -0.0931
  120loPI   C6A 1916  11.532  18.485   7.311 -0.0343  0.1424  0.2365
  120loPI   C1B 1917  10.994  17.504   9.110 -0.3642 -0.3200 -0.1429
  120loPI   C2B 1918  11.002  17.668   8.648  0.1220 -0.4852  0.0673
  120loPI   C3B 1919  10.971  17.750   8.181 -0.1126 -0.2483  0.1107
  120loPI   C4B 1920  11.184  17.722   7.748  0.0003  0.0212  0.0806
  121loPI    C1 1921   1.382  12.075  10.489 -0.0567  0.0372 -0.0622
  121loPI    C2 1922   1.349  12.339  10.787 -0.1444  0.0709 -0.1014
  121loPI    C3 1923   1.669  12.099  10.767 -0.0837  0.1463 -0.0433
  121loPI   PO4 1924   1.148  12.214  10.334  0.0710 -0.1155 -0.1055
  121loPI   GL1 1925   1.059  12.135   9.938 -0.0127 -0.0130  0.2296
  121loPI   GL2 1926   0.875  12.261   9.727 -0.1887 -0.1745 -0.2422
  121loPI   C1A 1927   1.104  11.760   9.681  0.0689  0.0845 -0.0228
  121loPI   C2A 1928   0.981  11.509   9.301 -0.1537 -0.0644 -0.0474
  121loPI   C3A 1929   0.809  11.359   8.970 -0.0602  0.0660  0.0193
  121loPI   C4A 1930   0.626  11.188   8.618 -0.0376 -0.2767  0.0687
  121loPI   C5A 1931   0.659  10.880   8.376 -0.0985  0.0278  0.1549
  121loPI   C6A 1932   0.668  10.569   7.986  0.1689 -0.0544  0.1688
  121loPI   C1B 1933   0.992  12.126   9.324 -0.0725 -0.1903 -0.6575
  121loPI   C2B 1934   0.915  12.204   8.819 -0.0069  0.2047  0.1194
  121loPI   C3B 1935   0.844  12.275   8.376  0.1873 -0.0717 -0.1181
  121loPI   C4B 1936   1.098  12.138   8.112  0.4143  0.1053 -0.1284
  122loPI    C1 1937   4.831   4.563  10.297 -0.1034  0.1564 -0.3696
  122loPI    C2 1938   4.769   4.778  10.629  0.3182 -0.0695 -0.1363
  122loPI    C3 1939   4.601   4.417  10.590  0.1580  0.0145 -0.2308
  122loPI   PO4 1940   4.777   4.677  10.074 -0.2200  0.0629  0.0200
  122loPI   GL1 1941   4.811   4.682   9.556  0.2493 -0.2429  0.1458
  122loPI   GL2 1942   4.839   5.030   9.613  0.0375  0.2698  0.2386
  122loPI   C1A 1943   4.656   4.624   9.166 -0.1847  0.1950  0.3096
  122loPI   C2A 1944   4.548   4.859   8.807  0.1410  0.0863  0.2492
  122loPI   C3A 1945   4.284   5.017   8.493  0.0157 -0.1174 -0.2090
  122loPI   C4A 1946   4.259   4.766   8.026 -0.1465 -0.2641  0.0242
  122loPI   C5A 1947   4.404   4.665   7.757  0.1729 -0.1363  0.2453
  122loPI   C6A 1948   4.856   4.347   7.634  0.2795  0.1712  0.0255
  122loPI   C1B 1949   4.421   4.975   9.367  0.2244  0.2483 -0.0200
  122loPI   C2B 1950   4.152   4.786   9.094  0.2892  0.1216  0.1530
  122loPI   C3B 1951   4.275   4.423   8.807 -0.1252  0.2835 -0.0344
  122loPI   C4B 1952   4.381   4.489   8.446 -0.0322  0.1422  0.1234
  123loPI    C1 1953  16.347   6.575   9.917  0.1218  0.1209 -0.1456
  123loPI    C2 1954  16.537   6.245   9.796 -0.0145  0.0512 -0.1711
  123loPI    C3 1955  16.706   6.483  10.069  0.0620 -0.0660 -0.1153
  123loPI   PO4 1956  16.271   6.707   9.690 -0.1379 -0.2033 -0.1862
  123loPI   GL1 1957  16.444   7.000   9.300  0.5278 -0.0131 -0.0009
  123loPI   GL2 1958  16.781   7.170   9.277 -0.0564  0.0481 -0.0909
  123loPI   C1A 1959  16.262   6.700   9.027  0.2708 -0.1441  0.0127
  123loPI   C2A 1960  16.220   6.704   8.572 -0.2143  0.0864 -0.1143
  123loPI   C3A 1961  16.168   6.901   8.142 -0.0047  0.1855  0.3373
  123loPI   C4A 1962  16.048   6.762   7.730 -0.1259  0.1694  0.1186
  123loPI   C5A 1963  15.830   6.794   7.360  0.1851  0.0027  0.3992
  123loPI   C6A 1964  15.758   6.660   7.015 -0.0921  0.1957  0.2631
  123loPI   C1B 1965  16.741   7.118   8.871 -0.1902  0.1912  0.1318
  123loPI   C2B 1966  16.567   7.072   8.430 -0.0233  0.0442 -0.0205
  123loPI   C3B 1967  16.672   7.260   7.988  0.2590  0.3589  0.2079
  123loPI   C4B 1968  17.046   7.362   8.057 -0.2119 -0.0041 -0.1967
  124loPI    C1 1969   2.939  11.101   9.687  0.0637  0.0598  0.2341
  124loPI    C2 1970   2.866  10.721   9.790  0.0838 -0.0286 -0.0681
  124loPI    C3 1971   3.027  10.973  10.056 -0.3423 -0.1093  0.2775
  124loPI   PO4 1972   2.696  11.181   9.553 -0.0650 -0.0976 -0.1066
  124loPI   GL1 1973   2.542  11.282   9.202 -0.1031 -0.1034 -0.3555
  124loPI   GL2 1974   2.579  11.628   9.224  0.2887 -0.1073  0.2071
  124loPI   C1A 1975   2.524  11.136   8.880  0.0201 -0.1701  0.0971
  124loPI   C2A 1976   2.793  11.228   8.596  0.1344  0.2634  0.2193
  124loPI   C3A 1977   3.095  11.265   8.248  0.0843 -0.0986 -0.1593
  124loPI   C4A 1978   3.387  11.422   7.881 -0.1833 -0.1329 -0.1685
  124loPI   C5A 1979   3.323  11.539   7.460  0.2094 -0.0324 -0.0628
  124loPI   C6A 1980   3.026  11.795   7.164 -0.0420  0.1217 -0.2617
  124loPI   C1B 1981   2.697  11.715   8.877  0.2522 -0.0948  0.4306
  124loPI   C2B 1982   2.611  11.716   8.442 -0.2500 -0.0837 -0.0160
  124loPI   C3B 1983   2.623  11.486   8.130 -0.0833 -0.3252 -0.1070
  124loPI   C4B 1984   2.401  11.497   7.740  0.0263  0.0438  0.1667
  125loPI    C1 1985  14.104  18.212  10.166  0.0592 -0.1331 -0.0445
  125loPI    C2 1986  14.027  18.367  10.527  0.3439 -0.0546 -0.0152
  125loPI    C3 1987  14.112  17.977  10.490  0.2994 -0.0658  0.0000
  125loPI   PO4 1988  14.182  18.464  10.013 -0.1012 -0.0586  0.0505
  125loPI   GL1 1989  14.120  18.594   9.593  0.4408  0.0219  0.1770
  125loPI   GL2 1990  14.427  18.717   9.587  0.0219 -0.2300 -0.3629
  125loPI   C1A 1991  13.867  18.695   9.305  0.1099 -0.0281 -0.1556
  125loPI   C2A 1992  13.948  18.865   8.857 -0.0108 -0.1169  0.0724
  125loPI   C3A 1993  13.879  18.791   8.429 -0.1062 -0.2914  0.3538
  125loPI   C4A 1994  13.694  18.919   8.022 -0.1261 -0.2302 -0.0024
  125loPI   C5A 1995  13.476  18.746   7.803 -0.0929 -0.0714 -0.0001
  125loPI   C6A 1996  13.042  18.757   7.682  0.0128  0.0328  0.1192
  125loPI   C1B 1997  14.395  18.470   9.214 -0.0715  0.1473  0.1453
  125loPI   C2B 1998  14.250  18.487   8.866  0.2541 -0.3849  0.3477
  125loPI   C3B 1999  14.172  18.390   8.457  0.0379 -0.1674 -0.2070
  125loPI   C4B 2000  14.063  18.310   7.998  0.0046  0.0913 -0.1883
  126loPI    C1 2001  15.549   2.264  10.239 -0.0504 -0.0730  0.0618
  126loPI    C2 2002  15.563   1.925  10.450  0.0212 -0.0924  0.0262
  126loPI    C3 2003  15.335   2.228  10.575  0.0396 -0.1149  0.1151
  126loPI   PO4 2004  15.584   2.162   9.985 -0.1796  0.0270  0.2370
  126loPI   GL1 2005  15.795   2.104   9.583  0.1740 -0.1640 -0.3230
  126loPI   GL2 2006  15.990   2.358   9.475  0.0029  0.1129 -0.2534
  126loPI   C1A 2007  15.927   1.822   9.292 -0.1086  0.1958 -0.3261
  126loPI   C2A 2008  15.984   1.853   8.812 -0.0696  0.0454 -0.1682
  126loPI   C3A 2009  15.945   1.758   8.337  0.1228 -0.3176  0.1806
  126loPI   C4A 2010  15.912   1.988   8.037 -0.4313  0.0485  0.0672
  126loPI   C5A 2011  15.674   2.387   7.836  0.0807 -0.0551 -0.0085
  126loPI   C6A 2012  15.811   2.597   7.490 -0.1494 -0.2103  0.0967
  126loPI   C1B 2013  15.772   2.208   9.044 -0.1262 -0.3190 -0.1434
  126loPI   C2B 2014  15.718   2.181   8.570 -0.0063 -0.0837 -0.1036
  126loPI   C3B 2015  15.442   2.286   8.251 -0.1756  0.1242 -0.4467
  126loPI   C4B 2016  15.116   2.471   7.962  0.0111 -0.2064  0.4606
  127loPI    C1 2017   2.406  13.331  10.123  0.0646  0.0280 -0.0259
  127loPI    C2 2018   2.052  13.503  10.196 -0.0454 -0.1757 -0.0730
  127loPI    C3 2019   2.281  13.380  10.500 -0.1100 -0.2329 -0.0472
  127loPI   PO4 2020   2.442  13.423   9.837 -0.1880 -0.0187 -0.1845
  127loPI   GL1 2021   2.412  13.176   9.531  0.3372  0.0523 -0.1203
  127loPI   GL2 2022   2.683  12.970   9.510 -0.2430  0.1857 -0.0509
  127loPI   C1A 2023   2.266  13.260   9.184  0.1181 -0.3421  0.0680
  127loPI   C2A 2024   1.966  13.236   8.818  0.0300 -0.0596 -0.1831
  127loPI   C3A 2025   1.675  13.436   8.635  0.1575  0.0612  0.1071
  127loPI   C4A 2026   1.539  13.444   8.158 -0.0725  0.1404 -0.2917
  127loPI   C5A 2027   1.774  13.519   7.735 -0.4672  0.0373 -0.1808
  127loPI   C6A 2028   2.178  13.469   7.729  0.3058  0.1139  0.1524
  127loPI   C1B 2029   2.708  13.016   9.083  0.1181  0.1248  0.2580
  127loPI   C2B 2030   2.774  13.184   8.706  0.2904 -0.0778  0.3645
  127loPI   C3B 2031   2.477  13.370   8.536  0.0206 -0.0790  0.2469
  127loPI   C4B 2032   2.119  13.409   8.302  0.0050  0.0722 -0.2353
  128loPI    C1 2033   3.072   3.416  10.235 -0.0696 -0.0136  0.1872
  128loPI    C2 2034   2.866   3.741  10.126 -0.0793 -0.0556  0.0787
  128loPI    C3 2035   3.052   3.732  10.480 -0.0247  0.0932  0.0550
  128loPI   PO4 2036   3.146   3.300   9.962 -0.1981  0.0560 -0.3859
  128loPI   GL1 2037   3.337   3.238   9.577 -0.0966 -0.2698 -0.0326
  128loPI   GL2 2038   3.649   3.230   9.715 -0.0194 -0.1512  0.0188
  128loPI   C1A 2039   3.472   3.600   9.397  0.0872 -0.0441 -0.0594
  128loPI   C2A 2040   3.582   3.852   9.234 -0.2823 -0.3356  0.1305
  128loPI   C3A 2041   3.813   3.882   8.909 -0.3427 -0.3348  0.0280
  128loPI   C4A 2042   4.180   3.952   8.610 -0.0719  0.0200 -0.3965
  128loPI   C5A 2043   4.145   4.216   8.163 -0.1145 -0.0006  0.3526
  128loPI   C6A 2044   3.872   4.383   7.974 -0.3636 -0.1803  0.2116
  128loPI   C1B 2045   3.956   3.249   9.262  0.1003  0.2285  0.1908
  128loPI   C2B 2046   3.864   3.091   8.858 -0.1829  0.1199 -0.0637
  128loPI   C3B 2047   3.980   3.088   8.388  0.1160 -0.2168  0.0871
  128loPI   C4B 2048   3.978   3.196   8.019  0.0567  0.0573  0.2076
  129loPI    C1 2049   6.225  15.365  10.339 -0.0211  0.1172 -0.0258
  129loPI    C2 2050   5.869  15.220  10.450  0.0343 -0.0937 -0.1190
  129loPI    C3 2051   6.203  15.020  10.541  0.1235  0.0577 -0.1105
  129loPI   PO4 2052   6.201  15.454  10.035  0.3586 -0.1770 -0.2425
  129loPI   GL1 2053   6.241  15.390   9.676  0.1838 -0.1968  0.2840
  129loPI   GL2 2054   6.154  15.032   9.723  0.1498 -0.0737  0.1381
  129loPI   C1A 2055   6.102  15.448   9.380 -0.3790  0.0627  0.0400
  129loPI   C2A 2056   6.312  15.561   8.949  0.2489  0.0220 -0.2318
  129loPI   C3A 2057   6.303  15.708   8.532  0.3882  0.1462 -0.2350
  129loPI   C4A 2058   6.174  15.635   8.069 -0.2676  0.1477 -0.0596
  129loPI   C5A 2059   6.382  15.504   7.752 -0.1663 -0.0281  0.2588
  129loPI   C6A 2060   6.511  15.699   7.346 -0.0557 -0.1222 -0.0460
  129loPI   C1B 2061   5.962  14.612   9.546  0.3037  0.3189  0.1711
  129loPI   C2B 2062   5.826  14.214   9.468  0.0749  0.1794 -0.0300
  129loPI   C3B 2063   6.017  13.983   9.217 -0.1334  0.1425  0.2314
  129loPI   C4B 2064   6.111  14.071   8.858  0.0506  0.1378 -0.0400
  130loPI    C1 2065  10.885  11.834  10.198 -0.1050  0.1534 -0.2140
  130loPI    C2 2066  10.715  12.041  10.495 -0.0878 -0.1503  0.0118
  130loPI    C3 2067  11.110  11.976  10.497 -0.0791 -0.1032 -0.1092
  130loPI   PO4 2068  10.758  12.004   9.984  0.3194 -0.1672  0.2432
  130loPI   GL1 2069  10.574  12.204   9.561 -0.2794  0.2328  0.0808
  130loPI   GL2 2070  10.849  11.999   9.455  0.1194  0.0153 -0.1273
  130loPI   C1A 2071  10.472  12.271   9.157  0.3763 -0.0226  0.2606
  130loPI   C2A 2072  10.712  12.245   8.754  0.0158  0.3238 -0.1041
  130loPI   C3A 2073  10.958  12.333   8.380  0.2086  0.1395 -0.0241
  130loPI   C4A 2074  11.026  12.592   7.976 -0.0405 -0.6424  0.0851
  130loPI   C5A 2075  11.390  12.770   7.700 -0.0941 -0.0636  0.0352
  130loPI   C6A 2076  11.776  13.035   7.690 -0.2012  0.0018 -0.2329
  130loPI   C1B 2077  11.070  12.082   9.150  0.1557 -0.0728 -0.0100
  130loPI   C2B 2078  11.147  12.016   8.723 -0.0259 -0.1185 -0.5210
  130loPI   C3B 2079  11.192  11.911   8.321 -0.0673  0.0032  0.0475
  130loPI   C4B 2080  11.448  11.795   7.921 -0.2467 -0.0614  0.0140
  131loPI    C1 2081  14.979  13.897  10.555 -0.1454 -0.1808 -0.1157
  131loPI    C2 2082  15.330  13.747  10.437 -0.0442  0.0167 -0.0702
  131loPI    C3 2083  15.251  13.788  10.827 -0.0428  0.1456 -0.0832
  131loPI   PO4 2084  14.892  13.927  10.161 -0.2247  0.3085  0.0897
  131loPI   GL1 2085  14.754  14.013   9.828  0.2753 -0.2818  0.1609
  131loPI   GL2 2086  14.810  14.288   9.781 -0.0422 -0.0441 -0.2657
  131loPI   C1A 2087  14.788  13.877   9.359 -0.0912 -0.0218 -0.4807
  131loPI   C2A 2088  14.874  14.032   8.845 -0.2972 -0.4362 -0.1320
  131loPI   C3A 2089  14.867  13.955   8.419  0.1245  0.0831 -0.2357
  131loPI   C4A 2090  14.824  13.833   8.035 -0.1715 -0.1393 -0.0624
  131loPI   C5A 2091  14.883  13.511   7.818  0.2583  0.1175  0.0283
  131loPI   C6A 2092  14.645  13.091   7.720 -0.0314  0.2898 -0.0450
  131loPI   C1B 2093  14.648  14.359   9.340  0.0034 -0.0156 -0.2728
  131loPI   C2B 2094  14.500  14.455   8.853 -0.0455 -0.0072  0.2338
  131loPI   C3B 2095  14.336  14.969   8.574 -0.0721  0.0604  0.0524
  131loPI   C4B 2096  14.305  15.072   8.082 -0.0421 -0.0814  0.0012
  132loPI    C1 2097   4.559   6.086   9.891 -0.2662  0.2458 -0.1199
  132loPI    C2 2098   4.422   6.325  10.181  0.2744  0.3430  0.0673
  132loPI    C3 2099   4.733   6.084  10.251  0.1884  0.1062 -0.3336
  132loPI   PO4 2100   4.412   5.996   9.806  0.2134  0.4646  0.0609
  132loPI   GL1 2101   4.254   5.907   9.411 -0.1879  0.0622  0.0816
  132loPI   GL2 2102   4.208   6.224   9.367  0.4086 -0.3124 -0.0548
  132loPI   C1A 2103   4.570   5.754   9.069 -0.1857  0.1885  0.1385
  132loPI   C2A 2104   4.871   5.816   8.701 -0.1697 -0.1192 -0.2798
  132loPI   C3A 2105   4.887   5.726   8.260 -0.1280 -0.0281 -0.1956
  132loPI   C4A 2106   4.994   5.420   7.937 -0.0527  0.1216  0.1675
  132loPI   C5A 2107   5.345   5.283   7.920  0.0590 -0.0830  0.1582
  132loPI   C6A 2108   5.711   5.278   8.187  0.0548  0.1679  0.0123
  132loPI   C1B 2109   4.270   6.205   8.961  0.2934 -0.0965  0.2388
  132loPI   C2B 2110   4.513   6.236   8.552  0.0807  0.0557 -0.1445
  132loPI   C3B 2111   4.521   6.126   8.145 -0.0853  0.0497  0.0245
  132loPI   C4B 2112   4.415   5.730   7.951 -0.1003 -0.1523 -0.2684
  133loPI    C1 2113   2.483   7.129  10.027 -0.0375 -0.0800 -0.0444
  133loPI    C2 2114   2.271   6.839   9.850 -0.0548 -0.1106  0.0262
  133loPI    C3 2115   2.223   6.913  10.241 -0.0784  0.0131  0.0004
  133loPI   PO4 2116   2.612   7.240   9.869  0.0444 -0.1162  0.0838
  133loPI   GL1 2117   2.673   7.336   9.530  0.0993 -0.0988  0.0865
  133loPI   GL2 2118   3.007   7.260   9.539  0.4768  0.1662  0.0185
  133loPI   C1A 2119   2.769   7.649   9.213 -0.1567  0.1718  0.2988
  133loPI   C2A 2120   2.581   7.899   8.909 -0.1760 -0.0492  0.0164
  133loPI   C3A 2121   2.542   8.254   8.669 -0.3494 -0.1897  0.0110
  133loPI   C4A 2122   2.491   8.560   8.330 -0.0734  0.0692 -0.1519
  133loPI   C5A 2123   2.216   8.758   7.986  0.3561 -0.1501  0.0372
  133loPI   C6A 2124   1.757   8.748   7.923 -0.0200  0.0924  0.1446
  133loPI   C1B 2125   2.964   7.113   9.159  0.2296 -0.4786 -0.1462
  133loPI   C2B 2126   2.939   7.069   8.800  0.0173 -0.2613  0.0953
  133loPI   C3B 2127   2.807   7.209   8.369  0.1951 -0.1247  0.2196
  133loPI   C4B 2128   2.760   7.411   7.973  0.2688  0.0200 -0.1676
  134loPI    C1 2129  12.082   2.400  10.545 -0.1846 -0.1161 -0.0153
  134loPI    C2 2130  11.808   2.471  10.828 -0.0221 -0.0735  0.1324
  134loPI    C3 2131  12.194   2.434  10.927  0.0314 -0.0945 -0.0793
  134loPI   PO4 2132  11.891   2.239  10.320  0.3921  0.0811  0.2129
  134loPI   GL1 2133  11.728   2.485   9.949 -0.1277 -0.0369 -0.2603
  134loPI   GL2 2134  12.041   2.479   9.756 -0.1175 -0.1825 -0.0483
  134loPI   C1A 2135  11.529   2.306   9.576  0.0581 -0.0100  0.1391
  134loPI   C2A 2136  11.422   2.221   9.126 -0.1397 -0.1065 -0.1302
  134loPI   C3A 2137  11.161   2.056   8.752  0.0587  0.1182  0.3016
  134loPI   C4A 2138  11.149   1.912   8.296  0.0763  0.0988  0.0823
  134loPI   C5A 2139  10.848   1.864   7.934 -0.3376  0.0811 -0.1285
  134loPI   C6A 2140  10.606   1.795   7.677  0.2918 -0.1574 -0.1559
  134loPI   C1B 2141  11.964   2.424   9.332 -0.0263  0.2190  0.2613
  134loPI   C2B 2142  11.993   2.264   8.933  0.5165 -0.0527 -0.1614
  134loPI   C3B 2143  12.078   2.367   8.509  0.1314 -0.1648 -0.1458
  134loPI   C4B 2144  12.226   2.488   8.205 -0.2207  0.0926 -0.1400
  135loPI    C1 2145   5.059  14.015  10.201  0.0131 -0.1823  0.1204
  135loPI    C2 2146   4.853  14.241  10.459 -0.2313 -0.3272  0.0556
  135loPI    C3 2147   5.061  13.925  10.591  0.1439 -0.0469  0.1518
  135loPI   PO4 2148   4.925  14.110   9.941 -0.1541  0.1846  0.2331
  135loPI   GL1 2149   4.961  13.894   9.610 -0.2152  0.1614 -0.0329
  135loPI   GL2 2150   5.166  13.693   9.797  0.2671  0.0981  0.1188
  135loPI   C1A 2151   4.776  14.017   9.285  0.0491 -0.0776  0.2230
  135loPI   C2A 2152   4.785  13.997   8.877 -0.0764  0.1115 -0.0572
  135loPI   C3A 2153   4.779  14.361   8.655 -0.1937  0.0281 -0.2852
  135loPI   C4A 2154   4.687  14.508   8.246  0.0200  0.0531  0.2338
  135loPI   C5A 2155   4.307  14.525   7.990  0.0097  0.1929 -0.2891
  135loPI   C6A 2156   3.925  14.329   8.029  0.2037 -0.0154 -0.1151
  135loPI   C1B 2157   5.228  13.555   9.389 -0.1077 -0.1664 -0.3905
  135loPI   C2B 2158   5.329  13.700   9.036  0.3348  0.1300  0.0890
  135loPI   C3B 2159   5.556  13.710   8.642 -0.1297  0.1060 -0.0654
  135loPI   C4B 2160   5.788  13.900   8.436  0.1501  0.1038 -0.1843
  136loPI    C1 2161  14.909  18.524  10.362  0.1775  0.2039 -0.1412
  136loPI    C2 2162  14.523  18.500  10.466  0.1088  0.0907 -0.4121
  136loPI    C3 2163  14.808  18.482  10.746 -0.0783  0.0631 -0.2215
  136loPI   PO4 2164  14.893  18.753  10.245  0.0746 -0.0354  0.1340
  136loPI   GL1 2165  14.879  18.879   9.850  0.1254  0.0433 -0.1573
  136loPI   GL2 2166  14.706  19.152   9.701  0.0847  0.0157 -0.2943
  136loPI   C1A 2167  14.935  18.787   9.413  0.2461 -0.3572  0.0917
  136loPI   C2A 2168  14.790  18.600   8.957  0.1584  0.1340  0.0258
  136loPI   C3A 2169  14.668  18.555   8.548  0.3245  0.0384 -0.0761
  136loPI   C4A 2170  14.666  18.475   8.144 -0.1675  0.3195  0.3072
  136loPI   C5A 2171  14.530  18.270   7.827  0.2293 -0.0422  0.3486
  136loPI   C6A 2172  14.469  18.398   7.507 -0.0214  0.0373  0.0867
  136loPI   C1B 2173  14.782  19.216   9.311  0.4320 -0.0001  0.1795
  136loPI   C2B 2174  14.800  19.574   8.934 -0.0310 -0.0067  0.0683
  136loPI   C3B 2175  14.894  19.792   8.488 -0.0795  0.1114 -0.0266
  136loPI   C4B 2176  14.834  19.956   8.195  0.1399  0.0603  0.0016
  137loPI    C1 2177  10.724  18.030  10.560  0.1566 -0.0327  0.0008
  137loPI    C2 2178  10.441  17.780  10.691 -0.0010  0.2990  0.3111
  137loPI    C3 2179  10.733  17.897  10.937  0.1822  0.2712  0.1096
  137loPI   PO4 2180  10.528  18.181  10.295  0.0103 -0.1029  0.1424
  137loPI   GL1 2181  10.632  18.371   9.944 -0.1056  0.1895 -0.2436
  137loPI   GL2 2182  10.617  17.945   9.845 -0.0510 -0.1362 -0.0393
  137loPI   C1A 2183  10.395  18.313   9.592  0.2093 -0.0628  0.1407
  137loPI   C2A 2184  10.367  18.337   9.126  0.1111 -0.1457 -0.3247
  137loPI   C3A 2185  10.526  18.376   8.777  0.0378 -0.1206  0.3635
  137loPI   C4A 2186  10.472  18.416   8.327  0.2141  0.1970 -0.1339
  137loPI   C5A 2187  10.509  18.549   7.860 -0.2586 -0.0070 -0.2397
  137loPI   C6A 2188  10.812  18.556   7.698 -0.1717 -0.0122  0.0395
  137loPI   C1B 2189  10.578  17.944   9.364  0.1764  0.3296 -0.0014
  137loPI   C2B 2190  10.711  17.960   8.969  0.0663  0.0285 -0.1132
  137loPI   C3B 2191  10.469  17.842   8.596 -0.0000 -0.1315  0.1091
  137loPI   C4B 2192  10.299  17.906   8.194 -0.1344  0.1933  0.0145
  138loPI    C1 2193  14.372  17.629  10.201 -0.1656 -0.0338  0.0760
  138loPI    C2 2194  14.746  17.534  10.308 -0.1798 -0.0309  0.1285
  138loPI    C3 2195  14.443  17.291  10.402 -0.1760 -0.0960 -0.0236
  138loPI   PO4 2196  14.453  17.909  10.041  0.3188  0.0441 -0.1331
  138loPI   GL1 2197  14.294  18.095   9.648 -0.2440 -0.0475 -0.0542
  138loPI   GL2 2198  13.962  18.046   9.648  0.0514  0.0780  0.1584
  138loPI   C1A 2199  14.294  18.017   9.097  0.3620 -0.2095 -0.0669
  138loPI   C2A 2200  14.471  18.087   8.655  0.1435  0.3878  0.0287
  138loPI   C3A 2201  14.482  17.934   8.223  0.0373  0.1596  0.0502
  138loPI   C4A 2202  14.301  17.828   7.845 -0.2433 -0.3349 -0.1123
  138loPI   C5A 2203  14.123  18.048   7.520  0.0812 -0.5121  0.2138
  138loPI   C6A 2204  13.744  18.026   7.337  0.0755  0.1162 -0.0167
  138loPI   C1B 2205  13.847  18.204   9.290  0.3436  0.1703  0.0501
  138loPI   C2B 2206  13.743  18.351   8.865 -0.0481  0.0854 -0.0492
  138loPI   C3B 2207  13.564  18.445   8.520 -0.1341  0.4105  0.0896
  138loPI   C4B 2208  13.600  18.427   8.132  0.0513 -0.3044  0.2812
  139loPI    C1 2209   5.356   3.722  10.099  0.1727 -0.0343  0.2683
  139loPI    C2 2210   5.432   3.365   9.935 -0.1294  0.0626 -0.0966
  139loPI    C3 2211   5.403   3.400  10.332 -0.0556 -0.3095 -0.0542
  139loPI   PO4 2212   5.144   3.783   9.943  0.0836 -0.1164 -0.2306
  139loPI   GL1 2213   4.839   3.816   9.602  0.1960 -0.1521 -0.0174
  139loPI   GL2 2214   4.585   3.577   9.584 -0.0519 -0.2053 -0.2038
  139loPI   C1A 2215   4.915   3.593   9.226 -0.0093  0.4006  0.0705
  139loPI   C2A 2216   4.981   3.235   8.916  0.0902 -0.1626  0.4638
  139loPI   C3A 2217   4.967   3.189   8.496 -0.0069 -0.2942 -0.2466
  139loPI   C4A 2218   4.975   3.302   8.062 -0.0274 -0.1198  0.0566
  139loPI   C5A 2219   4.881   3.126   7.812 -0.1719 -0.4197 -0.4940
  139loPI   C6A 2220   4.763   2.957   7.457  0.2003  0.2714 -0.2988
  139loPI   C1B 2221   4.442   3.438   9.234 -0.0648 -0.0997  0.1145
  139loPI   C2B 2222   4.478   3.220   8.742  0.2820  0.1034 -0.2717
  139loPI   C3B 2223   4.497   3.034   8.299  0.1226  0.4961 -0.0796
  139loPI   C4B 2224   4.445   2.904   7.964 -0.2911 -0.1396 -0.0537
  140loPI    C1 2225   9.789   1.925  10.656 -0.1979 -0.1082 -0.0391
  140loPI    C2 2226   9.839   1.559  10.808 -0.2901 -0.0652  0.0969
  140loPI    C3 2227   9.937   1.880  11.025 -0.2325 -0.0084 -0.0127
  140loPI   PO4 2228   9.778   1.919  10.404 -0.0802  0.2404  0.0673
  140loPI   GL1 2229   9.580   1.723   9.989 -0.1258 -0.0608 -0.1060
  140loPI   GL2 2230   9.389   1.964  10.042 -0.0755 -0.1762  0.1379
  140loPI   C1A 2231   9.728   1.832   9.584 -0.2204  0.3128 -0.5875
  140loPI   C2A 2232   9.626   1.838   9.079 -0.2101 -0.0630 -0.3367
  140loPI   C3A 2233   9.600   1.875   8.724 -0.0700  0.0729 -0.2016
  140loPI   C4A 2234   9.542   1.821   8.296  0.2279  0.2044  0.3712
  140loPI   C5A 2235   9.658   1.573   8.027  0.4025 -0.3261  0.1542
  140loPI   C6A 2236   9.769   1.230   7.961 -0.0460  0.3695 -0.1731
  140loPI   C1B 2237   9.340   2.178   9.668  0.1652 -0.3813  0.0089
  140loPI   C2B 2238   9.400   2.359   9.241 -0.2508  0.0400  0.1042
  140loPI   C3B 2239   9.261   2.321   8.810 -0.1056 -0.0139 -0.2557
  140loPI   C4B 2240   9.276   2.223   8.391  0.0635 -0.0870  0.1484
  141loPI    C1 2241   6.323   6.309   9.965 -0.1800 -0.2163  0.4258
  141loPI    C2 2242   5.990   6.319   9.743  0.0350 -0.3156  0.0906
  141loPI    C3 2243   6.261   6.030   9.686  0.3728 -0.0038  0.0713
  141loPI   PO4 2244   6.459   6.633   9.865  0.1624  0.3677 -0.1297
  141loPI   GL1 2245   6.146   6.689   9.437  0.0062  0.3374 -0.1943
  141loPI   GL2 2246   5.843   6.734   9.340  0.1619  0.0716  0.0618
  141loPI   C1A 2247   6.386   6.635   9.035 -0.1490  0.0812  0.0810
  141loPI   C2A 2248   6.730   6.715   8.611  0.0919  0.0637  0.2759
  141loPI   C3A 2249   6.771   6.484   8.323  0.1012 -0.1564  0.2335
  141loPI   C4A 2250   6.888   6.327   8.019  0.1060  0.0903 -0.0221
  141loPI   C5A 2251   6.698   6.237   7.713  0.3886 -0.0347  0.1170
  141loPI   C6A 2252   6.406   6.014   7.353  0.0477 -0.0970 -0.0803
  141loPI   C1B 2253   5.700   6.703   8.954  0.0021  0.1053  0.1852
  141loPI   C2B 2254   5.859   6.639   8.503 -0.1399  0.1307  0.0876
  141loPI   C3B 2255   5.829   6.647   8.117 -0.0745  0.1304  0.1038
  141loPI   C4B 2256   5.673   6.602   7.721  0.1254  0.1265  0.0362
  142loPI    C1 2257  10.773  16.935  10.112  0.1345 -0.0438  0.1362
  142loPI    C2 2258  11.021  17.173   9.909 -0.1177  0.1020 -0.0066
  142loPI    C3 2259  11.046  17.152  10.307  0.1233  0.1126 -0.0193
  142loPI   PO4 2260  10.551  16.946   9.943  0.1440  0.0881 -0.0722
  142loPI   GL1 2261  10.554  17.168   9.557 -0.0402  0.1726  0.0385
  142loPI   GL2 2262  10.431  17.430   9.573  0.0325 -0.1804  0.0760
  142loPI   C1A 2263  10.764  16.974   9.170  0.2890 -0.0639 -0.5001
  142loPI   C2A 2264  10.720  16.984   8.737 -0.0702  0.3018 -0.1625
  142loPI   C3A 2265  10.876  16.864   8.330  0.0765  0.0031  0.4402
  142loPI   C4A 2266  10.890  16.685   7.970  0.2967 -0.0066 -0.0751
  142loPI   C5A 2267  11.145  16.597   7.647  0.0929 -0.1422 -0.1996
  142loPI   C6A 2268  11.505  16.722   7.380  0.3942  0.2260  0.0423
  142loPI   C1B 2269  10.430  17.422   9.102  0.2502  0.1253 -0.3005
  142loPI   C2B 2270  10.600  17.433   8.809  0.2041  0.0912 -0.1143
  142loPI   C3B 2271  10.619  17.421   8.365 -0.1870  0.4428  0.1575
  142loPI   C4B 2272  10.780  17.275   8.064  0.3945  0.0875 -0.2711
  143loPI    C1 2273   0.768   6.626  10.086  0.2063  0.0993  0.1171
  143loPI    C2 2274   0.575   6.298  10.207  0.0690  0.1282 -0.0199
  143loPI    C3 2275   0.807   6.500  10.463  0.0263  0.0159  0.1086
  143loPI   PO4 2276   0.905   6.586   9.947  0.0736 -0.0677  0.0339
  143loPI   GL1 2277   1.055   6.657   9.593 -0.1343  0.2987  0.2249
  143loPI   GL2 2278   0.811   6.477   9.422 -0.2028 -0.2242 -0.0909
  143loPI   C1A 2279   1.078   6.805   9.140  0.1152  0.3004 -0.3644
  143loPI   C2A 2280   1.071   6.563   8.744  0.0821 -0.1276 -0.0418
  143loPI   C3A 2281   0.947   6.569   8.352  0.0166  0.0628  0.2184
  143loPI   C4A 2282   0.831   6.595   7.911  0.4554 -0.0038 -0.1387
  143loPI   C5A 2283   0.627   6.815   7.542  0.0582  0.0811  0.0542
  143loPI   C6A 2284   0.201   6.852   7.574  0.0032  0.0109 -0.0836
  143loPI   C1B 2285   0.761   6.383   9.132  0.0782 -0.1338 -0.1241
  143loPI   C2B 2286   0.603   6.446   8.783  0.1357 -0.1865 -0.2301
  143loPI   C3B 2287   0.439   6.621   8.304 -0.0372 -0.2916 -0.0734
  143loPI   C4B 2288   0.332   7.040   8.046  0.0069  0.1683  0.1351
  144loPI    C1 2289  13.368  17.715  10.235  0.0779 -0.0086  0.0844
  144loPI    C2 2290  13.480  17.562  10.588 -0.3145 -0.0505  0.1964
  144loPI    C3 2291  13.583  17.936  10.489  0.0208 -0.1283  0.2387
  144loPI   PO4 2292  13.419  17.474  10.071  0.2132 -0.0943  0.2824
  144loPI   GL1 2293  13.261  17.635   9.712 -0.1815 -0.0596  0.0185
  144loPI   GL2 2294  13.525  17.725   9.648 -0.1543 -0.1121 -0.2271
  144loPI   C1A 2295  13.016  17.540   9.310 -0.1634  0.0979 -0.0201
  144loPI   C2A 2296  12.993  17.645   8.829 -0.0533  0.1676 -0.0557
  144loPI   C3A 2297  13.029  17.631   8.427  0.1461 -0.1529  0.2585
  144loPI   C4A 2298  13.089  17.541   7.938  0.3568 -0.0533  0.1415
  144loPI   C5A 2299  13.325  17.251   7.670 -0.3486 -0.2696 -0.4345
  144loPI   C6A 2300  13.156  16.831   7.464  0.0115 -0.2617 -0.2266
  144loPI   C1B 2301  13.659  17.736   9.214 -0.1848 -0.1092 -0.0923
  144loPI   C2B 2302  13.844  17.895   8.764  0.0443  0.0637  0.3044
  144loPI   C3B 2303  13.946  17.925   8.264 -0.2130 -0.0762 -0.1866
  144loPI   C4B 2304  13.693  18.004   7.835  0.2188  0.0772 -0.1427
  145loPI    C1 2305   7.309  15.624  10.366 -0.2050 -0.2989  0.0255
  145loPI    C2 2306   7.421  15.906  10.627 -0.1599 -0.0477 -0.2601
  145loPI    C3 2307   7.527  15.525  10.686 -0.2264 -0.0087  0.1328
  145loPI   PO4 2308   7.122  15.773  10.287  0.0319 -0.0746  0.6631
  145loPI   GL1 2309   6.956  15.666   9.872  0.0442  0.1337  0.0483
  145loPI   GL2 2310   6.714  15.440   9.773  0.1307  0.2441 -0.0687
  145loPI   C1A 2311   6.938  15.737   9.429 -0.0978 -0.1922 -0.0670
  145loPI   C2A 2312   6.836  15.693   8.988  0.3400 -0.3488 -0.1094
  145loPI   C3A 2313   6.755  15.732   8.547 -0.0575  0.1738 -0.4678
  145loPI   C4A 2314   6.736  15.693   8.109 -0.1307 -0.0384 -0.2257
  145loPI   C5A 2315   6.653  15.926   7.757  0.0825 -0.0567 -0.0861
  145loPI   C6A 2316   6.707  16.348   7.761  0.1840 -0.3172 -0.0166
  145loPI   C1B 2317   6.629  15.355   9.298  0.1395 -0.0719 -0.0327
  145loPI   C2B 2318   6.478  15.110   9.016 -0.1848  0.0428  0.2858
  145loPI   C3B 2319   6.115  15.108   9.002 -0.0743  0.2385 -0.0504
  145loPI   C4B 2320   5.865  15.052   9.322  0.2346 -0.2564  0.2981
  146loPI    C1 2321   3.395   1.281  10.136 -0.1113 -0.0650 -0.1771
  146loPI    C2 2322   3.104   1.415   9.896 -0.1730  0.0356 -0.0477
  146loPI    C3 2323   3.024   1.329  10.278 -0.0567 -0.0427 -0.0404
  146loPI   PO4 2324   3.603   1.388  10.001  0.2610 -0.0157  0.3629
  146loPI   GL1 2325   3.823   1.507   9.554 -0.1464 -0.3826 -0.0720
  146loPI   GL2 2326   3.995   1.241   9.591 -0.0332  0.0270  0.0128
  146loPI   C1A 2327   3.572   1.489   9.214 -0.2555  0.0643  0.0415
  146loPI   C2A 2328   3.299   1.635   8.950  0.0773  0.1194 -0.2539
  146loPI   C3A 2329   2.997   1.772   8.613  0.3760 -0.1721 -0.1811
  146loPI   C4A 2330   3.218   1.955   8.286 -0.1080  0.2694 -0.2997
  146loPI   C5A 2331   3.213   2.088   7.969 -0.2631 -0.3821 -0.1997
  146loPI   C6A 2332   2.995   2.141   7.612 -0.1494  0.2625 -0.1881
  146loPI   C1B 2333   4.001   1.307   9.094 -0.2641 -0.1355  0.1025
  146loPI   C2B 2334   4.001   1.419   8.596 -0.1349 -0.2210  0.0395
  146loPI   C3B 2335   4.008   1.397   8.097  0.4037 -0.0713 -0.1818
  146loPI   C4B 2336   4.132   1.548   7.735 -0.2172  0.0850  0.0636
  147loPI    C1 2337   8.994   7.379  10.053  0.1065 -0.1693 -0.1406
  147loPI    C2 2338   8.707   7.618  10.196  0.0262 -0.0790 -0.4448
  147loPI    C3 2339   8.745   7.245  10.335  0.0156  0.0377 -0.1200
  147loPI   PO4 2340   8.994   7.399   9.857  0.1217 -0.2546  0.1836
  147loPI   GL1 2341   8.922   7.356   9.392 -0.1986 -0.3244 -0.1997
  147loPI   GL2 2342   8.878   7.701   9.407 -0.1205  0.3746 -0.1234
  147loPI   C1A 2343   8.888   7.356   8.935  0.2584  0.3355  0.0600
  147loPI   C2A 2344   8.947   7.226   8.615  0.2306  0.0078 -0.1164
  147loPI   C3A 2345   8.869   6.959   8.263  0.2174  0.0547 -0.0376
  147loPI   C4A 2346   8.517   6.729   8.002  0.0361 -0.2405  0.2950
  147loPI   C5A 2347   8.683   6.318   7.721  0.1781 -0.1748 -0.2510
  147loPI   C6A 2348   8.676   5.836   7.804  0.1612  0.0484  0.1780
  147loPI   C1B 2349   8.833   7.909   9.099  0.0687 -0.1585  0.0244
  147loPI   C2B 2350   8.966   7.916   8.741 -0.2141  0.1319 -0.1357
  147loPI   C3B 2351   8.934   7.958   8.225  0.1221  0.0482  0.0905
  147loPI   C4B 2352   8.804   7.913   7.746  0.2484 -0.1107 -0.2519
  148loPI    C1 2353  11.195  12.446  10.349  0.1822 -0.0738  0.1536
  148loPI    C2 2354  10.796  12.472  10.342  0.1589 -0.3763  0.2073
  148loPI    C3 2355  10.992  12.489  10.691  0.2164  0.0411  0.1598
  148loPI   PO4 2356  11.240  12.258  10.115  0.1045  0.0532  0.1111
  148loPI   GL1 2357  11.267  12.173   9.645 -0.2510  0.0480  0.2007
  148loPI   GL2 2358  11.400  12.520   9.555  0.3099 -0.5081 -0.0606
  148loPI   C1A 2359  11.564  12.064   9.289  0.3457 -0.1664 -0.3271
  148loPI   C2A 2360  11.612  11.900   8.862 -0.0429 -0.0509  0.3500
  148loPI   C3A 2361  11.668  11.537   8.550  0.2489 -0.1672 -0.1133
  148loPI   C4A 2362  11.733  11.393   8.004  0.2202  0.0918  0.0173
  148loPI   C5A 2363  11.343  11.373   7.751 -0.1188 -0.1437  0.1297
  148loPI   C6A 2364  10.896  11.257   7.784 -0.1798 -0.1245  0.1513
  148loPI   C1B 2365  11.363  12.528   9.162  0.0233 -0.2038  0.1535
  148loPI   C2B 2366  11.445  12.376   8.776 -0.2777  0.0906 -0.0021
  148loPI   C3B 2367  11.468  12.315   8.383 -0.1005  0.3485  0.2142
  148loPI   C4B 2368  11.398  12.329   7.962  0.0506  0.0067 -0.2700
  149loPI    C1 2369   8.850  10.744  10.093  0.0861  0.0006  0.0718
  149loPI    C2 2370   9.125  10.865  10.357  0.2208  0.0370 -0.0835
  149loPI    C3 2371   8.748  10.995  10.387  0.2036 -0.0660  0.1703
  149loPI   PO4 2372   8.988  10.774   9.863 -0.0221 -0.2088  0.0960
  149loPI   GL1 2373   9.117  10.607   9.469 -0.0699 -0.0634 -0.1010
  149loPI   GL2 2374   9.267  10.762   9.485 -0.2560 -0.0059  0.5533
  149loPI   C1A 2375   8.888  10.407   9.152  0.0602  0.2196 -0.0910
  149loPI   C2A 2376   8.892  10.409   8.723 -0.2463  0.3024  0.0126
  149loPI   C3A 2377   8.891  10.498   8.305  0.0476  0.0719  0.3686
  149loPI   C4A 2378   8.932  10.339   7.837  0.0227 -0.2766  0.3112
  149loPI   C5A 2379   9.317  10.138   7.666 -0.0690  0.1912  0.2786
  149loPI   C6A 2380   9.482   9.959   7.270  0.1389  0.1930 -0.2471
  149loPI   C1B 2381   9.453  11.087   9.136 -0.0153  0.0891 -0.0323
  149loPI   C2B 2382   9.534  11.077   8.732  0.0819  0.0805 -0.1646
  149loPI   C3B 2383   9.584  10.900   8.287  0.1513 -0.3301  0.2282
  149loPI   C4B 2384   9.376  10.614   8.011 -0.1225 -0.0525  0.1729
  150loPI    C1 2385   8.954   2.879  10.528 -0.0553 -0.1391 -0.1438
  150loPI    C2 2386   9.346   2.885  10.449 -0.0498 -0.1892 -0.1201
  150loPI    C3 2387   9.201   3.089  10.761 -0.0386 -0.1945 -0.1116
  150loPI   PO4 2388   8.855   2.686  10.267 -0.4267 -0.4055  0.0562
  150loPI   GL1 2389   8.630   2.856   9.937 -0.1236 -0.0712 -0.0276
  150loPI   GL2 2390   8.461   3.131   9.865  0.3008  0.0035 -0.2509
  150loPI   C1A 2391   8.737   2.745   9.543 -0.1961 -0.0942 -0.0661
  150loPI   C2A 2392   8.440   2.811   9.235  0.1340  0.0303  0.0776
  150loPI   C3A 2393   8.386   2.860   8.860  0.0370  0.2986  0.4274
  150loPI   C4A 2394   8.485   2.622   8.588  0.0780 -0.2716  0.0947
  150loPI   C5A 2395   8.390   2.543   8.133 -0.0162 -0.1013 -0.1570
  150loPI   C6A 2396   8.091   2.550   7.884 -0.0339 -0.0743  0.4866
  150loPI   C1B 2397   8.231   3.169   9.526  0.0779 -0.2126  0.2225
  150loPI   C2B 2398   8.298   3.262   9.064 -0.2664  0.2892  0.0210
  150loPI   C3B 2399   8.377   3.523   8.673  0.0439 -0.2525  0.0616
  150loPI   C4B 2400   8.458   3.497   8.258 -0.1994 -0.0277 -0.1534
  151loPI    C1 2401  10.320   5.714  10.440 -0.0624 -0.0464  0.0029
  151loPI    C2 2402  10.619   5.812  10.688 -0.3142  0.1388  0.2395
  151loPI    C3 2403  10.541   5.427  10.611  0.0995  0.0914  0.0280
  151loPI   PO4 2404  10.355   5.855  10.243 -0.0238 -0.0971 -0.2459
  151loPI   GL1 2405  10.486   5.958   9.838 -0.1169  0.1587 -0.1551
  151loPI   GL2 2406  10.246   5.810   9.769  0.0295  0.0866  0.2518
  151loPI   C1A 2407  10.655   6.166   9.585 -0.1612  0.1295  0.3003
  151loPI   C2A 2408  10.715   6.552   9.276  0.3439  0.1187  0.1314
  151loPI   C3A 2409  10.380   6.902   9.098  0.1913 -0.1405  0.1413
  151loPI   C4A 2410  10.456   6.745   8.651  0.2476 -0.3632 -0.1287
  151loPI   C5A 2411  10.394   6.998   8.186 -0.3323 -0.1656  0.0993
  151loPI   C6A 2412  10.223   7.420   8.147 -0.2205 -0.2048  0.3042
  151loPI   C1B 2413  10.235   5.528   9.434  0.2535 -0.0144 -0.0603
  151loPI   C2B 2414  10.092   5.633   9.009  0.0240  0.2416  0.0361
  151loPI   C3B 2415   9.819   5.632   8.696  0.1500 -0.0077  0.1320
  151loPI   C4B 2416   9.622   5.697   8.308  0.1639 -0.1514  0.1020
  152loPI    C1 2417   6.423   3.242  10.306 -0.0138  0.0481  0.2778
  152loPI    C2 2418   6.772   3.304  10.493  0.0303 -0.1539  0.2651
  152loPI    C3 2419   6.531   3.008  10.612 -0.0968 -0.0708  0.2166
  152loPI   PO4 2420   6.523   3.215  10.049  0.2160  0.2251 -0.2930
  152loPI   GL1 2421   6.607   2.855   9.792 -0.2586 -0.1701  0.2467
  152loPI   GL2 2422   6.889   2.634   9.717  0.0417 -0.2152 -0.0753
  152loPI   C1A 2423   6.357   3.032   9.420  0.0259 -0.1741 -0.0057
  152loPI   C2A 2424   6.268   3.116   9.007 -0.2700  0.0810  0.2034
  152loPI   C3A 2425   6.272   3.108   8.562  0.0779 -0.2130  0.3962
  152loPI   C4A 2426   6.033   3.173   8.147  0.0977  0.2383  0.0766
  152loPI   C5A 2427   5.858   3.335   7.817 -0.0400 -0.1462  0.2654
  152loPI   C6A 2428   5.756   3.550   7.503  0.1558  0.0089  0.2252
  152loPI   C1B 2429   6.745   2.667   9.278 -0.0222  0.0481  0.0956
  152loPI   C2B 2430   6.855   2.631   8.857 -0.2286  0.2154 -0.1705
  152loPI   C3B 2431   6.808   2.692   8.457  0.4206 -0.0905  0.0492
  152loPI   C4B 2432   6.738   2.669   8.030 -0.0042  0.1112  0.2961
  153loPI    C1 2433   7.527   5.505  10.132 -0.0994 -0.0946  0.0611
  153loPI    C2 2434   7.754   5.472  10.460  0.0242  0.1491  0.0027
  153loPI    C3 2435   7.722   5.825  10.274 -0.1264  0.0356 -0.1899
  153loPI   PO4 2436   7.561   5.339   9.894  0.2038 -0.1866  0.2460
  153loPI   GL1 2437   7.727   5.265   9.514 -0.0764 -0.5330 -0.0604
  153loPI   GL2 2438   7.795   5.496   9.369 -0.0502  0.0510 -0.0135
  153loPI   C1A 2439   7.891   5.158   9.013  0.1530  0.1019  0.1519
  153loPI   C2A 2440   7.997   5.246   8.618 -0.0277  0.2865 -0.1588
  153loPI   C3A 2441   7.805   5.544   8.320  0.1839 -0.1416 -0.1125
  153loPI   C4A 2442   7.603   5.842   8.497 -0.4185  0.1583 -0.1052
  153loPI   C5A 2443   7.401   6.130   8.856 -0.3908 -0.0227 -0.2394
  153loPI   C6A 2444   7.522   6.549   9.097  0.0026  0.0075  0.0895
  153loPI   C1B 2445   7.804   5.623   8.912  0.0738  0.0251  0.0278
  153loPI   C2B 2446   8.140   5.878   8.750 -0.2374  0.0765 -0.2617
  153loPI   C3B 2447   8.375   6.245   8.635 -0.1219  0.1482  0.2785
  153loPI   C4B 2448   8.690   6.483   8.498 -0.1247  0.2527  0.0520
  154loPI    C1 2449   4.588   1.873  10.035 -0.2996 -0.1030  0.0152
  154loPI    C2 2450   4.833   1.558  10.045 -0.2914 -0.1091 -0.2736
  154loPI    C3 2451   4.504   1.563  10.273  0.0173 -0.0616  0.1854
  154loPI   PO4 2452   4.619   1.937   9.811  0.0208 -0.2796 -0.1359
  154loPI   GL1 2453   4.769   1.902   9.487  0.1046  0.1305  0.0583
  154loPI   GL2 2454   5.133   1.920   9.677 -0.0964 -0.0052 -0.1855
  154loPI   C1A 2455   4.771   1.830   9.053 -0.0911 -0.3795  0.0545
  154loPI   C2A 2456   4.856   1.789   8.556  0.0585 -0.1785  0.0484
  154loPI   C3A 2457   4.854   1.763   8.168  0.2555 -0.0583  0.0838
  154loPI   C4A 2458   4.872   1.857   7.752 -0.1212  0.3114  0.2973
  154loPI   C5A 2459   4.688   2.163   7.425 -0.0462 -0.6303  0.3901
  154loPI   C6A 2460   4.630   2.569   7.188  0.0485  0.1462  0.2149
  154loPI   C1B 2461   5.292   2.047   9.310 -0.1402 -0.1021  0.1254
  154loPI   C2B 2462   5.295   1.840   8.929  0.1497  0.1049  0.0603
  154loPI   C3B 2463   5.382   1.858   8.501 -0.2092 -0.4548 -0.0262
  154loPI   C4B 2464   5.461   1.775   8.064  0.0651  0.2667 -0.1969
  155loPI    C1 2465   5.494   8.238  10.173 -0.2223  0.0894 -0.0839
  155loPI    C2 2466   5.273   8.143  10.493 -0.0115  0.1927  0.0951
  155loPI    C3 2467   5.543   8.437  10.516  0.2380 -0.0180 -0.0815
  155loPI   PO4 2468   5.372   8.222   9.986  0.1362  0.0107  0.5386
  155loPI   GL1 2469   5.333   8.068   9.634  0.2148 -0.0157  0.1506
  155loPI   GL2 2470   5.254   7.710   9.644 -0.1261 -0.0282 -0.2417
  155loPI   C1A 2471   5.342   8.083   9.208  0.4601 -0.2483 -0.2278
  155loPI   C2A 2472   5.346   8.053   8.721 -0.0275  0.2491  0.0001
  155loPI   C3A 2473   5.263   8.223   8.330  0.0007 -0.0511 -0.1676
  155loPI   C4A 2474   5.404   8.563   8.031 -0.1973 -0.1265 -0.0926
  155loPI   C5A 2475   5.697   8.817   7.894  0.3451  0.1189  0.2357
  155loPI   C6A 2476   6.154   8.955   7.888  0.0520 -0.2947  0.2841
  155loPI   C1B 2477   5.369   7.608   9.190 -0.1062 -0.2240  0.4376
  155loPI   C2B 2478   5.334   7.427   8.729 -0.0021 -0.4432 -0.0204
  155loPI   C3B 2479   5.353   7.595   8.314 -0.0222 -0.2157  0.2873
  155loPI   C4B 2480   5.342   7.725   7.910 -0.1115  0.0987  0.2455
  156loPI    C1 2481  18.628  15.401  10.358  0.2686  0.0639  0.0312
  156loPI    C2 2482  18.501  15.717  10.568 -0.1205 -0.0868  0.0323
  156loPI    C3 2483  18.630  15.389  10.758  0.3003  0.0720  0.0312
  156loPI   PO4 2484  18.764  15.484  10.179  0.2984 -0.0526  0.2378
  156loPI   GL1 2485  18.711  15.377   9.783 -0.0566 -0.1393 -0.2323
  156loPI   GL2 2486  18.674  15.690   9.777 -0.0535 -0.0393 -0.1992
  156loPI   C1A 2487  18.698  15.475   9.326 -0.3839 -0.0434 -0.1166
  156loPI   C2A 2488  18.624  15.730   8.920  0.2226 -0.2464  0.1894
  156loPI   C3A 2489  18.462  15.901   8.614  0.1675 -0.3187 -0.0941
  156loPI   C4A 2490  18.494  15.812   8.197  0.0035 -0.3701 -0.0724
  156loPI   C5A 2491  18.478  15.582   7.832 -0.0998  0.0001  0.2452
  156loPI   C6A 2492  18.817  15.465   7.665 -0.1907  0.1766  0.2587
  156loPI   C1B 2493  18.517  15.955   9.381 -0.3635  0.1271  0.0894
  156loPI   C2B 2494  18.284  16.129   9.061 -0.0074 -0.5004  0.0085
  156loPI   C3B 2495  18.085  16.284   8.771  0.1752 -0.0127 -0.0470
  156loPI   C4B 2496  18.141  16.225   8.286 -0.0560 -0.1533  0.1689
  157loPI    C1 2497   5.187   6.065  10.118  0.1599  0.0200 -0.2033
  157loPI    C2 2498   5.477   6.326  10.029  0.4163 -0.1310  0.1619
  157loPI    C3 2499   5.506   6.100  10.357 -0.0950 -0.1866  0.1764
  157loPI   PO4 2500   5.097   5.988   9.865 -0.0368  0.2547  0.1720
  157loPI   GL1 2501   4.852   5.905   9.481  0.3042 -0.1018 -0.1628
  157loPI   GL2 2502   4.819   6.301   9.460 -0.1192 -0.0949 -0.0790
  157loPI   C1A 2503   5.193   5.742   9.158  0.1013  0.1481  0.0152
  157loPI   C2A 2504   5.421   5.806   8.843 -0.1342 -0.0184 -0.0806
  157loPI   C3A 2505   5.438   5.789   8.419  0.0494  0.1175  0.1467
  157loPI   C4A 2506   5.339   5.837   7.949 -0.2391  0.2690  0.0018
  157loPI   C5A 2507   5.398   5.747   7.560 -0.2560  0.0131 -0.2133
  157loPI   C6A 2508   5.697   5.384   7.375  0.0007  0.3006 -0.2581
  157loPI   C1B 2509   4.748   6.295   9.055  0.2110  0.0144 -0.0217
  157loPI   C2B 2510   4.992   6.313   8.634  0.0711 -0.2743  0.0856
  157loPI   C3B 2511   5.022   6.193   8.124  0.0226  0.0813  0.3250
  157loPI   C4B 2512   4.899   5.951   7.724  0.0783 -0.0146 -0.0187
  158loPI    C1 2513   5.460  17.694  10.017 -0.0393  0.1499 -0.0720
  158loPI    C2 2514   5.367  17.862  10.368  0.0260  0.0718 -0.0171
  158loPI    C3 2515   5.111  17.885  10.061 -0.1118 -0.0173  0.0902
  158loPI   PO4 2516   5.720  17.709  10.019  0.3987  0.1327 -0.4487
  158loPI   GL1 2517   5.945  17.852   9.637 -0.0341 -0.2193  0.2280
  158loPI   GL2 2518   5.759  17.529   9.559  0.1457 -0.1356  0.2554
  158loPI   C1A 2519   5.999  17.925   9.147 -0.0864 -0.1237 -0.0996
  158loPI   C2A 2520   5.920  17.955   8.793  0.1230  0.2813  0.0622
  158loPI   C3A 2521   6.000  17.907   8.356  0.1694 -0.2117  0.4039
  158loPI   C4A 2522   6.003  17.891   7.975  0.0847  0.2136  0.1190
  158loPI   C5A 2523   6.223  18.135   7.746  0.0674  0.0880  0.0250
  158loPI   C6A 2524   6.445  18.215   7.429 -0.4832  0.0754 -0.2576
  158loPI   C1B 2525   5.838  17.512   9.044  0.1302  0.3589  0.1052
  158loPI   C2B 2526   5.750  17.415   8.597  0.0843  0.1436  0.0851
  158loPI   C3B 2527   5.645  17.426   8.220  0.1620  0.0018  0.1590
  158loPI   C4B 2528   5.567  17.301   7.782  0.2038 -0.1184  0.1402
  159loPI    C1 2529  15.722  17.420  10.290  0.2858 -0.0161 -0.2772
  159loPI    C2 2530  15.920  17.081  10.215  0.2048 -0.1217 -0.0243
  159loPI    C3 2531  16.051  17.329  10.499 -0.0821 -0.2457  0.2216
  159loPI   PO4 2532  15.675  17.554  10.131  0.3164  0.3103  0.2598
  159loPI   GL1 2533  15.574  17.405   9.757 -0.1200 -0.3352 -0.0412
  159loPI   GL2 2534  15.418  17.101   9.663  0.0901 -0.1113 -0.0059
  159loPI   C1A 2535  15.734  17.450   9.336 -0.2797 -0.1878  0.0485
  159loPI   C2A 2536  15.616  17.486   8.951 -0.1997  0.0850  0.1128
  159loPI   C3A 2537  15.711  17.564   8.468 -0.0204 -0.2002  0.2439
  159loPI   C4A 2538  15.990  17.789   8.263  0.0521 -0.1933  0.3457
  159loPI   C5A 2539  16.312  18.132   8.076  0.0450  0.0839 -0.0856
  159loPI   C6A 2540  16.175  18.442   7.782 -0.0219  0.0022  0.3554
  159loPI   C1B 2541  15.352  17.112   9.235 -0.1770  0.3435 -0.2046
  159loPI   C2B 2542  15.447  16.931   8.830  0.0306 -0.1929  0.1755
  159loPI   C3B 2543  15.524  17.124   8.464 -0.2086  0.1639  0.0027
  159loPI   C4B 2544  15.497  17.425   8.069 -0.0487  0.1465 -0.0015
  160loPI    C1 2545   7.550   7.493   9.706  0.2092  0.1346  0.1406
  160loPI    C2 2546   7.590   7.460  10.102 -0.0449 -0.1717  0.1449
  160loPI    C3 2547   7.550   7.132   9.878  0.0071  0.0042 -0.1262
  160loPI   PO4 2548   7.660   7.715   9.617 -0.3011 -0.1082  0.3108
  160loPI   GL1 2549   7.753   7.828   9.210 -0.0839  0.2928 -0.0691
  160loPI   GL2 2550   7.760   8.038   9.223  0.1578 -0.2670 -0.0331
  160loPI   C1A 2551   7.472   8.050   8.815  0.2971 -0.3111  0.1408
  160loPI   C2A 2552   7.542   8.060   8.274  0.2830  0.0210 -0.0957
  160loPI   C3A 2553   7.482   7.968   7.968  0.0518 -0.4192  0.2191
  160loPI   C4A 2554   7.372   7.632   7.698  0.0828  0.0748 -0.2937
  160loPI   C5A 2555   6.989   7.543   7.450 -0.1885  0.2327  0.0856
  160loPI   C6A 2556   7.284   7.378   7.098 -0.1605 -0.1161 -0.0665
  160loPI   C1B 2557   8.021   7.884   8.815  0.2191 -0.0411  0.2334
  160loPI   C2B 2558   8.111   7.773   8.434  0.1045  0.0798 -0.1530
  160loPI   C3B 2559   8.012   7.984   8.034  0.2153 -0.2206 -0.1112
  160loPI   C4B 2560   7.831   7.909   7.553 -0.2395  0.1292  0.2571
  161loPI    C1 2561  11.968  10.450  10.654 -0.0628 -0.1293 -0.0705
  161loPI    C2 2562  12.287  10.219  10.586  0.0796  0.0482 -0.0118
  161loPI    C3 2563  12.306  10.510  10.859 -0.0492  0.2276 -0.1909
  161loPI   PO4 2564  11.912  10.523  10.347 -0.1921  0.1342  0.0318
  161loPI   GL1 2565  12.203  10.520   9.928  0.4523  0.0161  0.0493
  161loPI   GL2 2566  12.361  10.314  10.096  0.2687  0.0270 -0.0424
  161loPI   C1A 2567  12.505  10.613   9.590 -0.0145 -0.1485 -0.1680
  161loPI   C2A 2568  12.334  10.750   9.175 -0.1680 -0.0087 -0.2480
  161loPI   C3A 2569  12.575  10.870   8.884 -0.2571 -0.0962  0.1338
  161loPI   C4A 2570  12.744  10.707   8.539  0.2409  0.0178  0.0436
  161loPI   C5A 2571  12.878  10.471   8.215  0.2616 -0.2575  0.1258
  161loPI   C6A 2572  13.321  10.289   8.074  0.2203 -0.2667 -0.0151
  161loPI   C1B 2573  12.663  10.174   9.839  0.0963  0.1156  0.0283
  161loPI   C2B 2574  12.890  10.346   9.455  0.0311 -0.1135 -0.0351
  161loPI   C3B 2575  13.067  10.488   9.083 -0.2065  0.1987  0.1109
  161loPI   C4B 2576  13.222  10.579   8.657 -0.0566  0.0492  0.0195
  162loPI    C1 2577  15.968   6.262  10.094  0.2439 -0.1687 -0.1857
  162loPI    C2 2578  16.264   6.008  10.183  0.3627  0.0155 -0.0453
  162loPI    C3 2579  16.252   6.368  10.356 -0.0936 -0.0899  0.1577
  162loPI   PO4 2580  16.005   6.205   9.803  0.0852  0.1402  0.2949
  162loPI   GL1 2581  15.865   6.311   9.441  0.1003  0.1899 -0.2898
  162loPI   GL2 2582  15.593   6.582   9.380  0.2772  0.2228 -0.0698
  162loPI   C1A 2583  15.865   6.393   9.006 -0.0637  0.1320 -0.1043
  162loPI   C2A 2584  15.611   6.295   8.678 -0.1824  0.0720  0.0670
  162loPI   C3A 2585  15.351   6.153   8.275 -0.0645 -0.3055  0.2823
  162loPI   C4A 2586  15.673   5.915   7.990 -0.1553  0.0277  0.0809
  162loPI   C5A 2587  15.998   5.891   7.878 -0.0407 -0.1103 -0.1024
  162loPI   C6A 2588  16.307   6.173   7.904  0.0395  0.0393 -0.0606
  162loPI   C1B 2589  15.400   6.590   9.054  0.1278  0.1306 -0.0768
  162loPI   C2B 2590  15.179   6.607   8.752  0.3153  0.1119  0.1069
  162loPI   C3B 2591  15.207   6.628   8.288 -0.3077 -0.0347 -0.3418
  162loPI   C4B 2592  15.222   6.585   7.920  0.2948 -0.0751 -0.3589
  163loPI    C1 2593  12.388  13.402  10.607 -0.2297  0.0702 -0.1870
  163loPI    C2 2594  12.712  13.171  10.570 -0.0916  0.2077  0.1269
  163loPI    C3 2595  12.383  13.027  10.746 -0.1626  0.1072 -0.0839
  163loPI   PO4 2596  12.346  13.483  10.329  0.1723 -0.0514 -0.0705
  163loPI   GL1 2597  12.304  13.414   9.902  0.2245  0.0932 -0.2146
  163loPI   GL2 2598  12.167  13.721   9.828  0.1087 -0.2198  0.0402
  163loPI   C1A 2599  12.416  13.340   9.518 -0.3554 -0.0802  0.0716
  163loPI   C2A 2600  12.459  13.348   9.061  0.2897  0.1498 -0.0299
  163loPI   C3A 2601  12.583  13.410   8.644  0.1218 -0.0420 -0.3239
  163loPI   C4A 2602  12.637  13.635   8.206  0.0106 -0.2208 -0.2774
  163loPI   C5A 2603  12.784  13.713   7.804  0.1162 -0.0045  0.1124
  163loPI   C6A 2604  12.831  14.228   7.714  0.2711  0.1191  0.0383
  163loPI   C1B 2605  12.167  13.744   9.348  0.1323 -0.0462 -0.0968
  163loPI   C2B 2606  12.330  13.886   8.912  0.0351 -0.0238 -0.1010
  163loPI   C3B 2607  12.310  13.979   8.427 -0.4848  0.2104  0.0516
  163loPI   C4B 2608  12.442  14.035   7.943  0.0848  0.0446 -0.0670
  164loPI    C1 2609   5.207   2.601  10.440  0.0550  0.1336  0.0195
  164loPI    C2 2610   5.198   2.339  10.743  0.0110  0.1378  0.0219
  164loPI    C3 2611   5.202   2.732  10.817  0.0851  0.1378  0.0185
  164loPI   PO4 2612   5.114   2.493  10.147 -0.1508 -0.1509 -0.0404
  164loPI   GL1 2613   5.146   2.708   9.795 -0.2257 -0.0607  0.2006
  164loPI   GL2 2614   5.022   2.908   9.720  0.1004 -0.1977  0.0029
  164loPI   C1A 2615   5.544   2.966   9.656 -0.0971  0.3673 -0.3661
  164loPI   C2A 2616   5.831   3.099   9.308  0.2534  0.1654 -0.0895
  164loPI   C3A 2617   5.812   2.928   8.908  0.1340 -0.1963 -0.0811
  164loPI   C4A 2618   5.836   2.840   8.511 -0.0106  0.0878 -0.0561
  164loPI   C5A 2619   5.819   2.649   8.274 -0.1903 -0.0458 -0.0518
  164loPI   C6A 2620   5.896   2.765   7.807 -0.0494 -0.1524 -0.0673
  164loPI   C1B 2621   5.181   3.034   9.349  0.3801 -0.2404 -0.1161
  164loPI   C2B 2622   5.270   2.814   9.002 -0.0702  0.1189 -0.1177
  164loPI   C3B 2623   5.289   2.751   8.585 -0.2231  0.1281  0.0984
  164loPI   C4B 2624   5.379   2.728   8.085  0.2936 -0.1132  0.1145
  165loPI    C1 2625   0.053   6.780  10.115  0.2320  0.0631 -0.1265
  165loPI    C2 2626   0.143   7.054  10.393 -0.0561 -0.1100  0.1453
  165loPI    C3 2627   0.345   6.709  10.380 -0.1118 -0.1451  0.2077
  165loPI   PO4 2628   0.101   6.871   9.898  0.1884 -0.1700 -0.2154
  165loPI   GL1 2629   0.319   7.013   9.504  0.0512  0.1039 -0.0113
  165loPI   GL2 2630   0.646   6.920   9.580  0.2976  0.0147 -0.2049
  165loPI   C1A 2631   0.047   7.150   9.126 -0.3331 -0.2362 -0.1881
  165loPI   C2A 2632  -0.282   7.119   9.043 -0.1087  0.0124 -0.3156
  165loPI   C3A 2633  -0.626   7.056   8.927 -0.0879 -0.3942 -0.0144
  165loPI   C4A 2634  -0.932   6.976   8.599  0.0445  0.1254 -0.1637
  165loPI   C5A 2635  -0.836   7.073   8.213  0.0825  0.0791  0.2491
  165loPI   C6A 2636  -0.723   7.222   7.832  0.0024 -0.0245 -0.2326
  165loPI   C1B 2637   0.671   7.023   9.129  0.4265  0.0411 -0.2080
  165loPI   C2B 2638   0.746   7.020   8.689  0.1296 -0.2080 -0.1391
  165loPI   C3B 2639   0.805   7.028   8.186  0.0907 -0.1508  0.1967
  165loPI   C4B 2640   0.822   7.111   7.858  0.2604  0.1939  0.2944
  166loPI    C1 2641   9.812   4.349  10.350  0.0599  0.1659 -0.1057
  166loPI    C2 2642   9.728   4.714  10.490  0.0317  0.1355 -0.0425
  166loPI    C3 2643   9.459   4.421  10.525  0.1580  0.0403  0.1496
  166loPI   PO4 2644   9.911   4.319  10.076 -0.0841 -0.0317 -0.0382
  166loPI   GL1 2645  10.013   4.117   9.675 -0.0030 -0.0343 -0.2679
  166loPI   GL2 2646   9.776   4.395   9.582 -0.0489  0.1773  0.1220
  166loPI   C1A 2647  10.292   4.164   9.469  0.2868 -0.2726  0.2231
  166loPI   C2A 2648  10.338   4.257   8.991 -0.2069 -0.0261 -0.0021
  166loPI   C3A 2649  10.236   4.143   8.610 -0.3557  0.1413  0.3172
  166loPI   C4A 2650  10.499   3.983   8.241 -0.2715 -0.2331 -0.1043
  166loPI   C5A 2651  10.764   3.924   7.863  0.0025  0.1807 -0.0041
  166loPI   C6A 2652  10.943   3.794   7.420  0.0772 -0.1846  0.3113
  166loPI   C1B 2653   9.830   4.125   9.166 -0.1291  0.0745  0.1040
  166loPI   C2B 2654   9.820   3.991   8.795 -0.0631  0.2532 -0.1344
  166loPI   C3B 2655   9.672   4.105   8.434 -0.1080 -0.0462 -0.2681
  166loPI   C4B 2656   9.559   4.516   8.257  0.1926  0.1108  0.0230
  167loPI    C1 2657  17.446  15.064  10.484  0.1210  0.1459  0.1075
  167loPI    C2 2658  17.504  14.682  10.383 -0.0150  0.1522  0.0024
  167loPI    C3 2659  17.431  14.779  10.764  0.0580  0.0780  0.0356
  167loPI   PO4 2660  17.278  15.166  10.250  0.2505 -0.2548 -0.1794
  167loPI   GL1 2661  17.357  15.410   9.869 -0.0675 -0.1353  0.0521
  167loPI   GL2 2662  17.379  15.198   9.765 -0.1280  0.1232 -0.0389
  167loPI   C1A 2663  17.364  15.622   9.463 -0.2550  0.0911 -0.2558
  167loPI   C2A 2664  17.458  15.746   8.999  0.1717  0.0910 -0.2743
  167loPI   C3A 2665  17.479  15.786   8.585  0.1429  0.0419 -0.1160
  167loPI   C4A 2666  17.517  15.671   8.127  0.1630  0.3718 -0.0987
  167loPI   C5A 2667  17.431  15.309   7.852 -0.3659  0.2915  0.2154
  167loPI   C6A 2668  17.523  14.849   7.542  0.1086 -0.0478 -0.2948
  167loPI   C1B 2669  17.540  14.979   9.422  0.1180 -0.1197 -0.1834
  167loPI   C2B 2670  17.531  14.973   8.974  0.2126 -0.0567  0.1559
  167loPI   C3B 2671  17.555  14.920   8.624  0.0960 -0.1248 -0.1455
  167loPI   C4B 2672  17.561  14.865   8.142 -0.1352 -0.4251  0.0678
  168loPI    C1 2673  14.553  12.830  10.421  0.0643  0.0306 -0.1984
  168loPI    C2 2674  14.940  12.870  10.515  0.0935  0.0469 -0.3249
  168loPI    C3 2675  14.694  12.676  10.763  0.1747  0.0692 -0.2260
  168loPI   PO4 2676  14.594  12.713  10.185  0.0489 -0.0558 -0.0351
  168loPI   GL1 2677  14.497  12.595   9.732 -0.0201 -0.1122  0.1673
  168loPI   GL2 2678  14.206  12.754   9.810  0.1956  0.1192  0.0088
  168loPI   C1A 2679  14.505  12.481   9.301  0.3369 -0.1594  0.1109
  168loPI   C2A 2680  14.504  12.361   8.860 -0.0386  0.0841 -0.2269
  168loPI   C3A 2681  14.236  12.425   8.540 -0.0761  0.2771 -0.1293
  168loPI   C4A 2682  14.139  12.572   8.061  0.2992 -0.0327  0.2632
  168loPI   C5A 2683  13.752  12.759   7.865  0.1799  0.0500  0.0201
  168loPI   C6A 2684  13.290  12.883   7.645 -0.1357  0.2087 -0.0721
  168loPI   C1B 2685  14.302  12.950   9.442  0.1283 -0.3213 -0.0597
  168loPI   C2B 2686  14.409  12.840   8.961 -0.0549 -0.3622 -0.1199
  168loPI   C3B 2687  14.489  12.802   8.560  0.3452  0.2074  0.2200
  168loPI   C4B 2688  14.547  12.895   8.182  0.0879  0.4164  0.2469
  169loPI    C1 2689   4.602   6.799  10.252  0.1112 -0.1359  0.0022
  169loPI    C2 2690   4.219   6.839  10.362  0.0712 -0.1320 -0.1370
  169loPI    C3 2691   4.510   6.994  10.589  0.0025 -0.3038  0.0708
  169loPI   PO4 2692   4.591   6.906  10.025  0.1037  0.0208  0.4172
  169loPI   GL1 2693   4.759   6.826   9.660 -0.1281 -0.1328  0.1375
  169loPI   GL2 2694   4.407   6.636   9.550 -0.1166  0.1811 -0.4278
  169loPI   C1A 2695   4.879   7.163   9.317  0.0340 -0.4830  0.0948
  169loPI   C2A 2696   4.851   7.268   8.855  0.0677 -0.0375 -0.0815
  169loPI   C3A 2697   5.050   7.138   8.441 -0.1712  0.2154 -0.0167
  169loPI   C4A 2698   5.184   7.213   7.990 -0.2089 -0.2062  0.4014
  169loPI   C5A 2699   5.240   6.933   7.630  0.0598  0.0420  0.0890
  169loPI   C6A 2700   5.386   7.025   7.188  0.0679  0.1518  0.0041
  169loPI   C1B 2701   4.350   6.673   9.159  0.1089 -0.3248 -0.0848
  169loPI   C2B 2702   4.238   6.635   8.696 -0.0803  0.0381  0.3090
  169loPI   C3B 2703   4.247   6.751   8.283  0.1893  0.0960  0.1767
  169loPI   C4B 2704   4.354   6.517   7.895 -0.1489  0.3433  0.1822
  170loPI    C1 2705  11.594  14.228  10.426 -0.3224  0.0164 -0.0424
  170loPI    C2 2706  11.553  13.860  10.274  0.1113 -0.0130 -0.1013
  170loPI    C3 2707  11.541  13.916  10.670  0.1346 -0.1029 -0.0878
  170loPI   PO4 2708  11.588  14.355  10.183  0.0582 -0.0288 -0.1158
  170loPI   GL1 2709  11.414  14.286   9.777 -0.1983  0.0776 -0.2419
  170loPI   GL2 2710  11.123  14.362   9.597 -0.2377  0.3122 -0.3244
  170loPI   C1A 2711  11.411  14.099   9.322  0.2744 -0.1636  0.2310
  170loPI   C2A 2712  11.386  14.111   8.861 -0.2523  0.1676  0.0701
  170loPI   C3A 2713  11.273  13.988   8.463  0.0217 -0.0905 -0.3828
  170loPI   C4A 2714  11.222  13.886   8.004  0.2891  0.3795  0.2193
  170loPI   C5A 2715  11.465  13.963   7.692  0.1036 -0.0948 -0.0900
  170loPI   C6A 2716  11.659  14.247   7.439 -0.1587  0.0714 -0.0077
  170loPI   C1B 2717  10.861  14.270   9.207 -0.0036 -0.0626 -0.0309
  170loPI   C2B 2718  10.772  14.165   8.732  0.2160 -0.0869 -0.0237
  170loPI   C3B 2719  10.767  13.946   8.353 -0.0803 -0.0883 -0.2234
  170loPI   C4B 2720  10.646  13.991   7.962  0.0850 -0.0900  0.0650
  171loPI    C1 2721  16.305   3.544  10.256  0.0559  0.1245  0.1038
  171loPI    C2 2722  16.128   3.844  10.452 -0.1356  0.0840 -0.0049
  171loPI    C3 2723  16.526   3.805  10.464 -0.1398  0.1162  0.3258
  171loPI   PO4 2724  16.228   3.554   9.987  0.0908 -0.4098  0.1482
  171loPI   GL1 2725  16.164   3.357   9.556 -0.2475  0.4432 -0.1322
  171loPI   GL2 2726  16.325   3.363   9.296 -0.2055 -0.0519  0.1943
  171loPI   C1A 2727  15.849   3.233   9.153 -0.2310 -0.0877  0.4398
  171loPI   C2A 2728  15.565   3.340   8.890  0.1075 -0.4251 -0.0897
  171loPI   C3A 2729  15.254   3.213   8.561  0.0898 -0.3363 -0.3231
  171loPI   C4A 2730  15.134   3.245   8.182 -0.3781  0.2420 -0.2291
  171loPI   C5A 2731  15.199   3.287   7.777 -0.0312 -0.1906 -0.1243
  171loPI   C6A 2732  15.336   3.659   7.533  0.0086  0.1238  0.0187
  171loPI   C1B 2733  16.321   3.192   8.859  0.0020 -0.0025  0.2392
  171loPI   C2B 2734  16.526   3.310   8.537  0.1372  0.1690 -0.0176
  171loPI   C3B 2735  16.744   3.390   8.174  0.1280 -0.0933  0.0615
  171loPI   C4B 2736  16.896   3.286   7.901 -0.0424 -0.0407 -0.3636
  172loPI    C1 2737   0.462   2.555  10.244 -0.0285  0.0570  0.1152
  172loPI    C2 2738   0.353   2.308  10.539  0.1596 -0.0988  0.0558
  172loPI    C3 2739   0.367   2.703  10.603 -0.0486 -0.1103  0.1793
  172loPI   PO4 2740   0.616   2.427  10.104 -0.0124 -0.2928  0.0315
  172loPI   GL1 2741   0.607   2.321   9.739  0.0904 -0.1668 -0.3026
  172loPI   GL2 2742   0.875   2.131   9.529  0.2318 -0.1512 -0.2248
  172loPI   C1A 2743   0.738   2.724   9.382  0.1688 -0.0039 -0.0449
  172loPI   C2A 2744   0.690   2.912   8.916  0.0984 -0.1170 -0.0097
  172loPI   C3A 2745   0.586   2.852   8.454 -0.0650 -0.0383  0.2070
  172loPI   C4A 2746   0.354   2.862   8.079 -0.1975  0.0347 -0.1713
  172loPI   C5A 2747  -0.044   3.171   8.018 -0.0031 -0.0826 -0.1092
  172loPI   C6A 2748  -0.249   3.545   8.275  0.0624  0.1721  0.1787
  172loPI   C1B 2749   0.882   2.223   9.018  0.1097  0.0413  0.1916
  172loPI   C2B 2750   0.687   2.384   8.687 -0.1408  0.1529  0.1083
  172loPI   C3B 2751   0.665   2.401   8.245  0.0233 -0.2732  0.2218
  172loPI   C4B 2752   0.610   2.056   7.903  0.0235  0.1714  0.0496
  173loPI    C1 2753  12.742   7.284  10.809  0.0982  0.2736  0.0357
  173loPI    C2 2754  12.434   7.473  10.635 -0.0758  0.0420  0.0881
  173loPI    C3 2755  12.369   7.147  10.859  0.2170 -0.0615  0.0274
  173loPI   PO4 2756  12.939   7.367  10.592 -0.1187  0.0576  0.0133
  173loPI   GL1 2757  13.002   7.151  10.243 -0.1886 -0.3066  0.0866
  173loPI   GL2 2758  12.771   7.369  10.022  0.1924 -0.0602  0.1621
  173loPI   C1A 2759  12.750   6.875   9.947 -0.1601 -0.2240  0.1202
  173loPI   C2A 2760  12.735   6.660   9.595  0.1612 -0.1907 -0.0594
  173loPI   C3A 2761  12.755   6.575   9.133  0.0583  0.0861  0.2663
  173loPI   C4A 2762  12.603   6.448   8.712  0.0781  0.1092 -0.1357
  173loPI   C5A 2763  12.528   6.415   8.364  0.1224 -0.0784  0.2945
  173loPI   C6A 2764  12.488   6.680   8.073 -0.3163 -0.0972 -0.0522
  173loPI   C1B 2765  13.075   7.158   9.699 -0.1709 -0.1718 -0.0208
  173loPI   C2B 2766  13.381   7.241   9.323 -0.0617  0.0562 -0.1450
  173loPI   C3B 2767  13.562   7.150   9.028 -0.1436 -0.0630 -0.0311
  173loPI   C4B 2768  13.984   7.143   8.962  0.0466 -0.0040  0.0659
  174loPI    C1 2769   7.878   5.850   9.744  0.1412 -0.0393  0.0786
  174loPI    C2 2770   8.039   5.513   9.887 -0.0548 -0.1261  0.0976
  174loPI    C3 2771   8.178   5.868  10.008  0.1075 -0.1996  0.1291
  174loPI   PO4 2772   7.589   5.828   9.730 -0.4838  0.1766  0.0581
  174loPI   GL1 2773   7.304   5.577   9.503  0.3629 -0.0607 -0.0290
  174loPI   GL2 2774   7.223   5.238   9.440 -0.0858  0.3469  0.1681
  174loPI   C1A 2775   7.262   5.640   9.012 -0.1058 -0.2041 -0.4393
  174loPI   C2A 2776   7.283   5.429   8.520 -0.0618 -0.0920  0.0438
  174loPI   C3A 2777   7.339   5.425   8.070 -0.2316  0.1336 -0.1131
  174loPI   C4A 2778   7.626   5.695   7.906  0.1373 -0.0810 -0.0302
  174loPI   C5A 2779   7.812   5.707   7.544  0.0462  0.0661 -0.1032
  174loPI   C6A 2780   7.725   5.590   7.110 -0.0063 -0.0949  0.1043
  174loPI   C1B 2781   7.378   5.120   9.044  0.2156  0.2205  0.3757
  174loPI   C2B 2782   7.579   5.021   8.551 -0.0955 -0.1991  0.0062
  174loPI   C3B 2783   7.710   4.915   8.218  0.2377  0.2283 -0.0028
  174loPI   C4B 2784   7.752   4.475   7.959 -0.1814  0.1311 -0.2596
  175loPI    C1 2785   6.423  14.197  10.220 -0.0627  0.0713  0.0290
  175loPI    C2 2786   6.373  14.476   9.937 -0.3051 -0.0910 -0.0924
  175loPI    C3 2787   6.328  14.572  10.323  0.0535  0.1379 -0.1021
  175loPI   PO4 2788   6.634  14.093  10.192 -0.3308  0.1287  0.1939
  175loPI   GL1 2789   6.715  14.130   9.821 -0.1819  0.0110 -0.0615
  175loPI   GL2 2790   6.737  13.854   9.614  0.1685  0.0771 -0.2595
  175loPI   C1A 2791   6.900  14.266   9.375  0.1403 -0.1228  0.0277
  175loPI   C2A 2792   7.025  14.409   8.892 -0.2677  0.1364  0.0749
  175loPI   C3A 2793   6.999  14.445   8.394  0.0629  0.1172  0.1789
  175loPI   C4A 2794   6.639  14.568   8.286  0.1064 -0.0742 -0.0637
  175loPI   C5A 2795   6.357  14.709   8.094  0.1821  0.1172  0.0794
  175loPI   C6A 2796   6.096  14.576   7.742 -0.3516 -0.2437  0.3432
  175loPI   C1B 2797   6.766  13.706   9.223  0.0187  0.0652  0.0248
  175loPI   C2B 2798   6.682  13.722   8.780 -0.3009 -0.0890 -0.2202
  175loPI   C3B 2799   6.695  13.667   8.301 -0.0340  0.0011  0.0092
  175loPI   C4B 2800   6.668  13.493   7.879 -0.0188  0.1052  0.0745
  176loPI    C1 2801   1.022   3.886  10.124 -0.0080  0.0910  0.3137
  176loPI    C2 2802   1.404   3.953  10.222  0.0416 -0.0742  0.2363
  176loPI    C3 2803   1.114   4.173  10.387  0.1576 -0.0562  0.4188
  176loPI   PO4 2804   0.992   3.838   9.909 -0.2331 -0.1000  0.0366
  176loPI   GL1 2805   0.822   4.126   9.638  0.1389 -0.0760 -0.0963
  176loPI   GL2 2806   0.617   4.364   9.558  0.2368  0.1553 -0.2678
  176loPI   C1A 2807   0.748   3.967   9.167 -0.2903 -0.0071  0.0124
  176loPI   C2A 2808   0.727   4.069   8.630 -0.2876 -0.1168 -0.1207
  176loPI   C3A 2809   0.626   4.018   8.361  0.1037 -0.1861  0.0403
  176loPI   C4A 2810   0.487   3.798   8.172 -0.0008 -0.0487  0.0896
  176loPI   C5A 2811   0.207   3.556   7.891 -0.2700 -0.2048  0.2129
  176loPI   C6A 2812   0.025   3.416   7.477  0.1452  0.0623  0.0031
  176loPI   C1B 2813   0.775   4.469   9.254  0.1002  0.2681 -0.0420
  176loPI   C2B 2814   1.116   4.311   8.982  0.2091 -0.0238 -0.0442
  176loPI   C3B 2815   1.212   4.196   8.493  0.0502  0.0779  0.0459
  176loPI   C4B 2816   1.450   4.348   8.200  0.1192  0.1557 -0.1960
  177loPI    C1 2817  10.630   7.791  10.144  0.1108 -0.0230  0.0489
  177loPI    C2 2818  10.863   8.075  10.303 -0.1657  0.2720 -0.0622
  177loPI    C3 2819  10.827   7.721  10.485 -0.0553  0.4142  0.2421
  177loPI   PO4 2820  10.804   7.660   9.894  0.2364  0.4037  0.0081
  177loPI   GL1 2821  10.847   7.605   9.468  0.0985 -0.1330  0.2145
  177loPI   GL2 2822  10.668   7.357   9.412 -0.5429 -0.1666  0.0885
  177loPI   C1A 2823  11.214   7.630   9.135  0.1186 -0.0385  0.0622
  177loPI   C2A 2824  11.494   7.288   9.000  0.0284 -0.2337  0.0150
  177loPI   C3A 2825  12.048   7.210   8.795  0.1929 -0.1662 -0.0375
  177loPI   C4A 2826  12.208   7.352   8.422 -0.0376 -0.0358 -0.1259
  177loPI   C5A 2827  12.631   7.277   8.101 -0.2124  0.2382  0.0853
  177loPI   C6A 2828  12.958   6.925   8.129  0.1825 -0.0826  0.2296
  177loPI   C1B 2829  10.764   7.430   9.008 -0.2301  0.1381  0.5769
  177loPI   C2B 2830  11.032   7.366   8.728 -0.3130 -0.1594  0.0714
  177loPI   C3B 2831  11.264   7.493   8.555  0.0273  0.0564 -0.1118
  177loPI   C4B 2832  11.677   7.560   8.579  0.3610 -0.1436 -0.1995
  178loPI    C1 2833  14.355  14.411  10.423 -0.1859 -0.0241  0.0710
  178loPI    C2 2834  14.603  14.202  10.657  0.0226 -0.0966 -0.2090
  178loPI    C3 2835  14.542  14.591  10.727 -0.2023 -0.1967  0.1849
  178loPI   PO4 2836  14.416  14.206  10.131  0.1997 -0.0700  0.2630
  178loPI   GL1 2837  14.296  14.275   9.732 -0.0678 -0.0334 -0.0051
  178loPI   GL2 2838  14.107  14.483   9.458 -0.1220  0.0867  0.1522
  178loPI   C1A 2839  14.288  14.026   9.416 -0.0399  0.0761 -0.0284
  178loPI   C2A 2840  14.350  13.986   9.045  0.1048 -0.1444 -0.0253
  178loPI   C3A 2841  14.400  13.894   8.669  0.0725  0.0482  0.0415
  178loPI   C4A 2842  14.413  14.020   8.243  0.0057 -0.1742 -0.0553
  178loPI   C5A 2843  14.515  14.289   7.879 -0.0080 -0.0691 -0.0364
  178loPI   C6A 2844  14.804  14.362   7.544  0.1490 -0.0467  0.0090
  178loPI   C1B 2845  14.027  14.367   9.035 -0.3215 -0.1011 -0.1416
  178loPI   C2B 2846  14.108  14.461   8.535  0.2020  0.0179 -0.0896
  178loPI   C3B 2847  14.211  14.551   8.154 -0.0258  0.0028  0.2269
  178loPI   C4B 2848  13.981  14.452   7.851  0.4156  0.1678 -0.2492
  179loPI    C1 2849   9.933  12.116  10.151  0.0335 -0.2454 -0.2752
  179loPI    C2 2850   9.617  12.335  10.263  0.3059  0.0891 -0.1404
  179loPI    C3 2851   9.599  11.935  10.276 -0.0950  0.1049 -0.0989
  179loPI   PO4 2852   9.942  12.193   9.908 -0.0343  0.3335  0.0863
  179loPI   GL1 2853   9.784  11.916   9.528 -0.1054 -0.1782  0.2134
  179loPI   GL2 2854   9.463  11.919   9.373  0.2382 -0.1420 -0.3819
  179loPI   C1A 2855   9.776  12.061   9.024  0.1215  0.1061 -0.2729
  179loPI   C2A 2856   9.643  11.988   8.651  0.0640  0.2938  0.0525
  179loPI   C3A 2857   9.536  11.864   8.297 -0.0655  0.3314 -0.2959
  179loPI   C4A 2858   9.315  11.742   7.881  0.0138 -0.0385 -0.0732
  179loPI   C5A 2859   9.194  11.515   7.532  0.1456  0.4081 -0.2409
  179loPI   C6A 2860   9.062  11.132   7.428 -0.0940 -0.1959  0.2422
  179loPI   C1B 2861   9.246  12.033   9.017  0.0366 -0.1150  0.0829
  179loPI   C2B 2862   9.121  12.050   8.692 -0.2701  0.1851 -0.3852
  179loPI   C3B 2863   8.942  11.945   8.372 -0.0389 -0.3104 -0.0209
  179loPI   C4B 2864   8.843  11.773   7.978  0.0428  0.0036  0.3090
  180loPI    C1 2865   8.752   4.384  10.214  0.1390  0.1978 -0.2748
  180loPI    C2 2866   8.924   4.501  10.556 -0.0710 -0.0330 -0.0860
  180loPI    C3 2867   8.527   4.530  10.512 -0.0356  0.0832 -0.3488
  180loPI   PO4 2868   9.003   4.523  10.036 -0.2255 -0.1123 -0.0407
  180loPI   GL1 2869   9.133   4.489   9.582  0.1992 -0.1400  0.0790
  180loPI   GL2 2870   9.343   4.479   9.433  0.2596 -0.0145  0.0908
  180loPI   C1A 2871   9.072   4.653   9.106 -0.1138  0.1642 -0.1619
  180loPI   C2A 2872   8.934   4.978   8.899 -0.3114  0.1614 -0.0701
  180loPI   C3A 2873   8.909   4.981   8.534  0.1408  0.0981  0.0191
  180loPI   C4A 2874   8.678   5.041   8.189  0.1371 -0.2042  0.2834
  180loPI   C5A 2875   9.035   5.091   7.702  0.3727 -0.1642  0.1090
  180loPI   C6A 2876   8.944   4.939   7.267 -0.0398 -0.0734 -0.0007
  180loPI   C1B 2877   9.702   4.578   9.128 -0.0313  0.0259 -0.0692
  180loPI   C2B 2878   9.909   4.447   8.807  0.2075 -0.1333  0.2213
  180loPI   C3B 2879  10.050   4.640   8.424  0.0123 -0.0012  0.0314
  180loPI   C4B 2880  10.021   4.735   7.994  0.3407  0.0060 -0.0084
  181loPI    C1 2881  16.060   1.265  10.108  0.0132  0.0437 -0.2431
  181loPI    C2 2882  16.375   1.035  10.200  0.0393  0.0819 -0.2369
  181loPI    C3 2883  16.006   0.918  10.300  0.0671  0.1212 -0.0866
  181loPI   PO4 2884  16.100   1.310   9.874  0.1338 -0.2073 -0.1273
  181loPI   GL1 2885  15.940   1.226   9.545 -0.1097 -0.2081  0.5503
  181loPI   GL2 2886  15.717   1.426   9.487 -0.0341  0.1735 -0.2241
  181loPI   C1A 2887  16.018   1.327   9.085 -0.1439 -0.1697  0.3937
  181loPI   C2A 2888  16.225   1.358   8.585 -0.3904 -0.1438 -0.1046
  181loPI   C3A 2889  16.182   1.292   8.100  0.3995  0.2298 -0.0579
  181loPI   C4A 2890  16.367   1.692   7.919  0.0978 -0.3445  0.1764
  181loPI   C5A 2891  16.618   1.872   7.620 -0.2388  0.2881 -0.1515
  181loPI   C6A 2892  16.694   2.220   7.395 -0.0953  0.0702 -0.1688
  181loPI   C1B 2893  15.534   1.393   9.126 -0.2121  0.0998  0.1209
  181loPI   C2B 2894  15.670   1.372   8.620 -0.2469  0.0909 -0.0973
  181loPI   C3B 2895  15.659   1.297   8.131  0.0882 -0.4444 -0.0291
  181loPI   C4B 2896  15.827   1.581   7.811 -0.1905  0.0214  0.1622
  182loPI    C1 2897   7.960  17.225  10.756 -0.0128 -0.0165 -0.1102
  182loPI    C2 2898   8.198  17.460  10.975  0.0569 -0.2414  0.0589
  182loPI    C3 2899   7.845  17.340  11.121 -0.0405 -0.1305 -0.0825
  182loPI   PO4 2900   7.890  17.381  10.526 -0.4584 -0.2722  0.2441
  182loPI   GL1 2901   7.904  17.250  10.085  0.1261 -0.2063 -0.5688
  182loPI   GL2 2902   8.219  17.394  10.114 -0.1728  0.1230 -0.0247
  182loPI   C1A 2903   7.564  17.238   9.814  0.1652 -0.1087 -0.2077
  182loPI   C2A 2904   7.607  17.019   9.447  0.2095  0.0252 -0.1792
  182loPI   C3A 2905   7.583  17.000   8.981  0.1927  0.0469 -0.3138
  182loPI   C4A 2906   7.539  17.012   8.564  0.0657 -0.1255 -0.0245
  182loPI   C5A 2907   7.517  16.932   8.117  0.0248 -0.2745 -0.2390
  182loPI   C6A 2908   7.830  16.831   7.735  0.1008 -0.0799  0.3315
  182loPI   C1B 2909   8.378  17.642   9.675  0.1025 -0.0626  0.2021
  182loPI   C2B 2910   8.314  17.507   9.240 -0.0053 -0.0123  0.1382
  182loPI   C3B 2911   8.289  17.547   8.772 -0.2758  0.1412  0.3091
  182loPI   C4B 2912   8.308  17.436   8.304  0.0905  0.2462  0.1305
  183loPI    C1 2913   8.285  11.716   9.713  0.2114 -0.1828  0.0885
  183loPI    C2 2914   8.483  12.010   9.528 -0.3356  0.0975 -0.0737
  183loPI    C3 2915   8.406  12.036   9.920  0.0235 -0.0615  0.0126
  183loPI   PO4 2916   8.354  11.505   9.612 -0.2411  0.2526 -0.1409
  183loPI   GL1 2917   8.563  11.542   9.310  0.0369 -0.0282  0.0087
  183loPI   GL2 2918   8.411  11.379   9.089  0.0464 -0.3489 -0.1783
  183loPI   C1A 2919   8.799  11.537   8.839  0.1834 -0.2655  0.0054
  183loPI   C2A 2920   8.787  11.379   8.451 -0.2017 -0.0751  0.1192
  183loPI   C3A 2921   8.643  11.256   7.971  0.0864 -0.0503  0.1831
  183loPI   C4A 2922   8.641  11.462   7.570  0.3506  0.1401  0.0133
  183loPI   C5A 2923   8.716  11.627   7.200  0.1177 -0.2299  0.2660
  183loPI   C6A 2924   8.395  11.596   6.885 -0.0212  0.1640  0.2380
  183loPI   C1B 2925   8.303  11.225   8.745 -0.0577 -0.0234  0.1905
  183loPI   C2B 2926   8.296  11.483   8.336  0.0903  0.0639  0.2340
  183loPI   C3B 2927   8.332  11.633   7.939  0.0668 -0.3887  0.1320
  183loPI   C4B 2928   8.512  11.893   7.588  0.2305  0.0493  0.1076
  184loPI    C1 2929  15.383   5.465  10.454 -0.1545 -0.0858 -0.0786
  184loPI    C2 2930  15.000   5.417  10.349 -0.1511 -0.0045 -0.1290
  184loPI    C3 2931  15.096   5.477  10.732 -0.1862 -0.0525 -0.1126
  184loPI   PO4 2932  15.443   5.644  10.392 -0.0317  0.0973  0.3769
  184loPI   GL1 2933  15.248   5.840  10.074 -0.0941 -0.2636 -0.1848
  184loPI   GL2 2934  15.358   5.905   9.761  0.2703 -0.1131 -0.0170
  184loPI   C1A 2935  15.066   5.433   9.777  0.1945  0.1429  0.1884
  184loPI   C2A 2936  14.931   5.277   9.390  0.3229  0.0155  0.1282
  184loPI   C3A 2937  14.633   5.210   9.010 -0.0196 -0.2479 -0.2336
  184loPI   C4A 2938  14.557   5.227   8.587 -0.1707 -0.1191 -0.2937
  184loPI   C5A 2939  14.794   5.306   8.284  0.2293  0.1064 -0.3139
  184loPI   C6A 2940  14.942   5.710   8.016  0.0789  0.0344  0.0413
  184loPI   C1B 2941  15.494   5.939   9.313 -0.2537  0.1605  0.0934
  184loPI   C2B 2942  15.700   5.856   9.082 -0.2782 -0.0048  0.2436
  184loPI   C3B 2943  16.113   5.794   8.923 -0.1217  0.1487 -0.1084
  184loPI   C4B 2944  16.571   5.798   8.680 -0.1490 -0.3320  0.0933
  185loPI    C1 2945   2.317   9.335  10.277  0.2699  0.0444  0.0096
  185loPI    C2 2946   2.312   9.014  10.516  0.0741 -0.1026 -0.1883
  185loPI    C3 2947   2.660   9.188  10.422  0.1623 -0.1136  0.1067
  185loPI   PO4 2948   2.211   9.196  10.011  0.1168 -0.0781 -0.1460
  185loPI   GL1 2949   2.171   9.333   9.451 -0.0683  0.0638 -0.2980
  185loPI   GL2 2950   2.072   9.659   9.210  0.2131  0.1729 -0.1707
  185loPI   C1A 2951   2.385   9.027   9.078 -0.3472  0.0008  0.0084
  185loPI   C2A 2952   2.661   9.063   8.820 -0.1277 -0.0296 -0.1256
  185loPI   C3A 2953   2.806   9.236   8.624  0.3673 -0.2129  0.2510
  185loPI   C4A 2954   2.947   9.280   8.267 -0.1466  0.0491  0.0146
  185loPI   C5A 2955   3.029   9.321   7.801 -0.2043 -0.2754  0.2552
  185loPI   C6A 2956   3.271   9.335   7.366 -0.1809  0.1777  0.2178
  185loPI   C1B 2957   2.243   9.484   8.807  0.0076 -0.0073  0.0558
  185loPI   C2B 2958   2.260   9.514   8.382 -0.0451  0.0737  0.1114
  185loPI   C3B 2959   2.037   9.696   8.006  0.0960 -0.0066 -0.0836
  185loPI   C4B 2960   1.609   9.525   7.991  0.0010  0.3112  0.0530
  186loPI    C1 2961   4.399  11.937   9.878  0.0080 -0.3057 -0.0829
  186loPI    C2 2962   4.532  11.816  10.236  0.0443 -0.0014  0.0089
  186loPI    C3 2963   4.199  11.657  10.082 -0.0706 -0.0078  0.2592
  186loPI   PO4 2964   4.510  11.899   9.634  0.1239  0.2025 -0.3053
  186loPI   GL1 2965   4.454  12.146   9.319 -0.2336 -0.1094 -0.1319
  186loPI   GL2 2966   4.178  12.097   9.126  0.1188 -0.0705 -0.0015
  186loPI   C1A 2967   4.673  11.832   9.021 -0.1196 -0.1086 -0.1941
  186loPI   C2A 2968   4.455  11.807   8.577  0.1721  0.0269  0.2825
  186loPI   C3A 2969   4.412  11.763   8.021 -0.0704 -0.3219  0.1700
  186loPI   C4A 2970   4.484  12.076   7.700  0.1819  0.0949 -0.2240
  186loPI   C5A 2971   4.503  12.202   7.324  0.1571  0.1073 -0.2038
  186loPI   C6A 2972   4.524  12.435   7.010 -0.2786 -0.0291 -0.1032
  186loPI   C1B 2973   4.057  12.154   8.778  0.0130 -0.0577 -0.0204
  186loPI   C2B 2974   4.049  12.001   8.356  0.0420 -0.0845 -0.0859
  186loPI   C3B 2975   4.033  12.012   7.916  0.1371  0.1907 -0.1894
  186loPI   C4B 2976   3.967  12.126   7.626  0.0638  0.0587 -0.1540
  187loPI    C1 2977  13.325  16.319  10.246 -0.1462  0.2179  0.1403
  187loPI    C2 2978  13.716  16.240  10.222 -0.1701  0.1063  0.1096
  187loPI    C3 2979  13.531  16.226  10.576 -0.1468  0.1578  0.1239
  187loPI   PO4 2980  13.177  16.489  10.082 -0.0522  0.0950 -0.0010
  187loPI   GL1 2981  13.082  16.756   9.826  0.0410 -0.0606  0.0084
  187loPI   GL2 2982  13.341  16.532   9.588  0.5522 -0.0631 -0.0728
  187loPI   C1A 2983  13.282  17.039   9.596 -0.1220 -0.1688 -0.0748
  187loPI   C2A 2984  13.412  17.207   9.230 -0.4797 -0.0414  0.0106
  187loPI   C3A 2985  13.479  17.471   8.872  0.1752  0.2258  0.2137
  187loPI   C4A 2986  13.614  17.606   8.424 -0.1173 -0.4769 -0.0621
  187loPI   C5A 2987  13.651  17.457   8.001  0.0270 -0.1863  0.1231
  187loPI   C6A 2988  13.808  17.525   7.587  0.0353  0.0795  0.1550
  187loPI   C1B 2989  13.585  16.714   9.250  0.0688 -0.0802  0.0052
  187loPI   C2B 2990  13.535  16.826   8.883 -0.0256 -0.0569 -0.0695
  187loPI   C3B 2991  13.340  17.071   8.575  0.1353 -0.0108 -0.2655
  187loPI   C4B 2992  13.258  17.168   8.222  0.3278  0.1269  0.0884
  188loPI    C1 2993  16.768  17.549  10.182  0.2747  0.1123 -0.0708
  188loPI    C2 2994  16.452  17.516  10.425  0.1505 -0.4442 -0.2914
  188loPI    C3 2995  16.816  17.412  10.555  0.1565 -0.3225 -0.2087
  188loPI   PO4 2996  16.691  17.496   9.890  0.1104 -0.1019  0.3762
  188loPI   GL1 2997  16.698  17.216   9.546 -0.0746  0.0184 -0.0772
  188loPI   GL2 2998  17.107  17.207   9.472 -0.2356  0.1873 -0.0148
  188loPI   C1A 2999  16.819  17.434   9.044  0.1090 -0.0987  0.1447
  188loPI   C2A 3000  16.866  17.254   8.555 -0.2291  0.0511  0.0081
  188loPI   C3A 3001  17.028  17.016   8.287 -0.4489  0.2948 -0.1602
  188loPI   C4A 3002  17.124  16.871   7.901  0.0652  0.0331 -0.4031
  188loPI   C5A 3003  16.946  16.940   7.426 -0.1961  0.0767 -0.4021
  188loPI   C6A 3004  16.629  17.022   7.192 -0.1991  0.0583  0.0626
  188loPI   C1B 3005  17.211  17.146   8.989 -0.0432  0.0883  0.0121
  188loPI   C2B 3006  17.400  17.109   8.587  0.0432  0.1123  0.0284
  188loPI   C3B 3007  17.389  17.374   8.164  0.0845  0.2384  0.3057
  188loPI   C4B 3008  17.544  17.627   7.949 -0.2459  0.2684  0.0366
  189loPI    C1 3009   8.587   9.206   9.938 -0.1686  0.0426 -0.0404
  189loPI    C2 3010   8.387   8.886  10.071 -0.0336 -0.0150  0.0262
  189loPI    C3 3011   8.745   8.976  10.225 -0.0140  0.0954 -0.0823
  189loPI   PO4 3012   8.630   9.250   9.732  0.1401  0.0438  0.0252
  189loPI   GL1 3013   8.669   9.437   9.357 -0.1973  0.2184 -0.0993
  189loPI   GL2 3014   8.313   9.451   9.449 -0.2515 -0.0416  0.0017
  189loPI   C1A 3015   8.614   9.551   8.954  0.0989 -0.1366 -0.0580
  189loPI   C2A 3016   8.591   9.722   8.616 -0.0101  0.0897  0.0434
  189loPI   C3A 3017   8.747   9.568   8.195 -0.3247  0.0807  0.0612
  189loPI   C4A 3018   8.847   9.821   7.865 -0.0444 -0.1845  0.2136
  189loPI   C5A 3019   8.877   9.953   7.424 -0.0176 -0.1541 -0.1778
  189loPI   C6A 3020   9.046   9.814   7.052  0.2371 -0.4620 -0.3504
  189loPI   C1B 3021   8.210   9.211   9.072 -0.0709 -0.0427  0.0444
  189loPI   C2B 3022   8.203   9.377   8.716 -0.4255  0.0134  0.0528
  189loPI   C3B 3023   8.329   9.329   8.275  0.0160  0.0760 -0.0422
  189loPI   C4B 3024   8.503   9.366   7.829  0.0092 -0.1006  0.3872
  190loPI    C1 3025   6.061   0.854  10.355  0.0562 -0.0238  0.1206
  190loPI    C2 3026   6.324   0.962  10.636 -0.1584  0.1033  0.2760
  190loPI    C3 3027   5.976   0.796  10.742 -0.0956 -0.1674  0.0667
  190loPI   PO4 3028   6.173   1.050  10.092  0.0397 -0.1066  0.0195
  190loPI   GL1 3029   6.341   1.033   9.688  0.0575  0.2275  0.2955
  190loPI   GL2 3030   6.279   1.380   9.668 -0.1243 -0.0268 -0.3757
  190loPI   C1A 3031   6.335   0.884   9.215  0.0197  0.0335 -0.1016
  190loPI   C2A 3032   6.459   0.869   8.715 -0.2146  0.0222  0.2144
  190loPI   C3A 3033   6.399   0.813   8.299  0.1842  0.0566  0.0716
  190loPI   C4A 3034   6.500   0.910   7.890 -0.2421  0.0742  0.1221
  190loPI   C5A 3035   6.524   1.006   7.526  0.1891 -0.0219  0.0514
  190loPI   C6A 3036   6.620   1.026   7.156  0.1717  0.7072 -0.3758
  190loPI   C1B 3037   6.117   1.343   9.256 -0.2585 -0.0314 -0.0021
  190loPI   C2B 3038   6.158   1.252   8.807 -0.0435  0.0226 -0.0069
  190loPI   C3B 3039   6.202   1.255   8.355  0.1630 -0.0582 -0.1884
  190loPI   C4B 3040   6.231   1.433   7.902  0.3833 -0.3580  0.0029
  191loPI    C1 3041  12.436  14.411  10.287 -0.0013  0.0387  0.2088
  191loPI    C2 3042  12.060  14.506  10.383 -0.0700 -0.2649  0.2509
  191loPI    C3 3043  12.340  14.487  10.668 -0.0045  0.0316  0.2095
  191loPI   PO4 3044  12.507  14.432  10.070 -0.0048  0.3000  0.4311
  191loPI   GL1 3045  12.490  14.658   9.697 -0.1507  0.0806 -0.1593
  191loPI   GL2 3046  12.131  14.636   9.529  0.0270  0.1297  0.0165
  191loPI   C1A 3047  12.524  14.761   9.300 -0.3181  0.0351 -0.0999
  191loPI   C2A 3048  12.818  14.727   8.850  0.1894  0.1903  0.0398
  191loPI   C3A 3049  12.865  14.841   8.570 -0.1419  0.1000 -0.0415
  191loPI   C4A 3050  12.775  14.872   8.272  0.1509  0.0981 -0.0374
  191loPI   C5A 3051  12.741  15.029   7.839 -0.0200 -0.3201  0.2168
  191loPI   C6A 3052  12.776  15.269   7.472  0.1129  0.0410  0.2381
  191loPI   C1B 3053  12.081  14.690   9.087 -0.0260 -0.4239 -0.1841
  191loPI   C2B 3054  12.358  14.798   8.698 -0.0975 -0.0868  0.0042
  191loPI   C3B 3055  12.264  15.022   8.303 -0.2208  0.1186 -0.0162
  191loPI   C4B 3056  11.889  15.135   8.126  0.0021 -0.0698  0.1381
  192loPI    C1 3057  15.004  10.672  10.277 -0.1652 -0.1273  0.1052
  192loPI    C2 3058  15.009  11.065  10.351  0.1090 -0.1274  0.0954
  192loPI    C3 3059  14.669  10.888  10.237 -0.0266  0.0978  0.1434
  192loPI   PO4 3060  15.155  10.634  10.111 -0.0700  0.0840 -0.1776
  192loPI   GL1 3061  15.287  10.840   9.713 -0.1572  0.1385 -0.1464
  192loPI   GL2 3062  15.186  10.660   9.558  0.0796  0.1930  0.0785
  192loPI   C1A 3063  15.167  11.202   9.490 -0.0807 -0.1058 -0.0263
  192loPI   C2A 3064  15.188  11.185   9.125  0.2237  0.2112  0.0764
  192loPI   C3A 3065  15.261  11.229   8.605  0.2867 -0.2628  0.1867
  192loPI   C4A 3066  15.165  11.027   8.170  0.1566  0.0301  0.2494
  192loPI   C5A 3067  15.107  10.840   7.814 -0.1368  0.0699 -0.0150
  192loPI   C6A 3068  15.354  10.797   7.499 -0.0157 -0.0186 -0.0034
  192loPI   C1B 3069  15.034  10.543   9.147  0.2711 -0.2585 -0.2903
  192loPI   C2B 3070  14.972  10.873   8.779  0.1177  0.3252  0.2208
  192loPI   C3B 3071  14.640  11.019   8.478 -0.0128 -0.1274 -0.0123
  192loPI   C4B 3072  14.672  11.162   8.091  0.3028 -0.2038  0.1788
  193loPI    C1 3073   7.049   8.017   9.713  0.0008 -0.1436 -0.0780
  193loPI    C2 3074   7.251   7.834  10.005 -0.2370 -0.1124  0.1094
  193loPI    C3 3075   7.060   8.177  10.079 -0.0848  0.0319 -0.1508
  193loPI   PO4 3076   7.140   8.124   9.582 -0.2703 -0.0282 -0.3136
  193loPI   GL1 3077   7.200   8.390   9.302 -0.0748 -0.0660 -0.0201
  193loPI   GL2 3078   7.410   8.631   9.345  0.0460  0.1290  0.2894
  193loPI   C1A 3079   7.031   8.189   8.984 -0.0422  0.1617 -0.0228
  193loPI   C2A 3080   7.054   8.108   8.498  0.0673 -0.1173  0.1766
  193loPI   C3A 3081   7.089   7.856   8.243 -0.0070  0.0612  0.5363
  193loPI   C4A 3082   6.947   7.751   7.909 -0.0328  0.0438 -0.1617
  193loPI   C5A 3083   6.820   7.970   7.566  0.0500  0.0764 -0.1227
  193loPI   C6A 3084   6.651   7.979   7.027 -0.0540  0.2134 -0.3226
  193loPI   C1B 3085   7.381   8.599   8.855  0.0399 -0.2002  0.0920
  193loPI   C2B 3086   7.503   8.584   8.353 -0.1016  0.2435  0.1226
  193loPI   C3B 3087   7.304   8.470   8.116 -0.1783  0.2088 -0.0924
  193loPI   C4B 3088   7.070   8.258   7.880 -0.0843  0.0118  0.1340
  194loPI    C1 3089   0.201   8.149  10.068 -0.0754  0.1427  0.2197
  194loPI    C2 3090   0.486   7.878  10.140  0.0141  0.1447 -0.1087
  194loPI    C3 3091   0.545   8.262  10.238  0.1034  0.1363 -0.1294
  194loPI   PO4 3092   0.061   8.057   9.863  0.0097 -0.1546 -0.0200
  194loPI   GL1 3093   0.208   7.972   9.415 -0.0099 -0.0008 -0.2427
  194loPI   GL2 3094   0.007   7.630   9.379  0.0505 -0.1587  0.0505
  194loPI   C1A 3095   0.353   7.862   8.989 -0.1750  0.2038  0.2824
  194loPI   C2A 3096   0.271   8.051   8.608 -0.1195  0.1720 -0.0033
  194loPI   C3A 3097   0.294   8.014   8.236  0.0271 -0.1014 -0.2157
  194loPI   C4A 3098   0.411   8.261   7.862 -0.0309 -0.1608  0.1605
  194loPI   C5A 3099   0.156   8.704   7.767  0.1157  0.1810  0.1425
  194loPI   C6A 3100  -0.096   8.792   7.484 -0.2770  0.0208 -0.0195
  194loPI   C1B 3101  -0.047   7.574   8.960  0.2777  0.2595 -0.3584
  194loPI   C2B 3102  -0.029   7.631   8.535  0.0849 -0.1165  0.0450
  194loPI   C3B 3103  -0.151   7.449   8.109  0.0179  0.0194  0.0962
  194loPI   C4B 3104  -0.128   7.464   7.730 -0.1555  0.0508 -0.1291
  195loPI    C1 3105   6.107  17.619  10.338  0.0142  0.0591 -0.1865
  195loPI    C2 3106   5.776  17.495  10.526  0.0983  0.0346 -0.0533
  195loPI    C3 3107   5.876  17.883  10.530  0.1640  0.0171  0.0567
  195loPI   PO4 3108   6.093  17.359  10.168 -0.0743  0.0099  0.0457
  195loPI   GL1 3109   6.214  17.392   9.777  0.1041  0.2556 -0.2316
  195loPI   GL2 3110   6.497  17.204   9.796  0.3165 -0.0765 -0.1443
  195loPI   C1A 3111   6.242  17.402   9.425  0.2800 -0.2081  0.0876
  195loPI   C2A 3112   6.312  17.413   9.003  0.0212  0.0360  0.0583
  195loPI   C3A 3113   6.240  17.497   8.592  0.1058  0.1984  0.0403
  195loPI   C4A 3114   6.219  17.485   8.136 -0.1176 -0.0832 -0.0157
  195loPI   C5A 3115   6.180  17.260   7.710  0.0848 -0.2619  0.1063
  195loPI   C6A 3116   5.819  17.016   7.507  0.1327 -0.1131 -0.1983
  195loPI   C1B 3117   6.548  17.039   9.372  0.3735 -0.0058  0.0700
  195loPI   C2B 3118   6.660  17.059   9.018 -0.3278  0.4386  0.1187
  195loPI   C3B 3119   6.522  17.058   8.648 -0.2052 -0.2629 -0.3108
  195loPI   C4B 3120   6.506  16.999   8.219 -0.1002  0.2974 -0.1693
  196loPI    C1 3121  17.562   9.876  10.490 -0.2085 -0.1756 -0.0787
  196loPI    C2 3122  17.386  10.204  10.342 -0.1675 -0.2207 -0.2288
  196loPI    C3 3123  17.261  10.049  10.689 -0.0688  0.0576 -0.0659
  196loPI   PO4 3124  17.826   9.846  10.149 -0.0990 -0.0433 -0.2257
  196loPI   GL1 3125  17.652   9.766   9.728 -0.0426 -0.1650 -0.1306
  196loPI   GL2 3126  17.993   9.708   9.675  0.1084 -0.3573  0.0328
  196loPI   C1A 3127  17.709   9.684   9.268  0.1834 -0.1141 -0.2067
  196loPI   C2A 3128  17.766   9.938   8.913 -0.1435  0.0141  0.0306
  196loPI   C3A 3129  17.696  10.005   8.425  0.0959  0.1997 -0.1429
  196loPI   C4A 3130  17.875   9.914   8.016  0.0336 -0.0101 -0.0322
  196loPI   C5A 3131  17.823   9.509   7.746 -0.3066  0.1259  0.0656
  196loPI   C6A 3132  17.484   9.187   7.799 -0.0994  0.2229 -0.3450
  196loPI   C1B 3133  17.960  10.043   9.448  0.0068 -0.0809 -0.0096
  196loPI   C2B 3134  17.813  10.389   9.284  0.4481 -0.1010 -0.1925
  196loPI   C3B 3135  17.490  10.286   9.117  0.4311 -0.3311  0.1188
  196loPI   C4B 3136  17.122  10.103   8.958 -0.0265 -0.0434 -0.2480
  197loPI    C1 3137   5.411  18.851  10.732  0.1691 -0.1907  0.1689
  197loPI    C2 3138   5.071  18.775  10.929  0.0460 -0.2220 -0.0525
  197loPI    C3 3139   5.169  19.152  10.835 -0.1150 -0.2433 -0.3159
  197loPI   PO4 3140   5.382  18.733  10.525  0.0095 -0.1959 -0.1835
  197loPI   GL1 3141   5.466  18.772  10.053  0.1091  0.0749 -0.4760
  197loPI   GL2 3142   5.650  19.069   9.857  0.0221  0.1678  0.2173
  197loPI   C1A 3143   5.619  18.544   9.655  0.2617  0.1086 -0.2168
  197loPI   C2A 3144   5.643  18.409   9.274 -0.1880  0.1274  0.2257
  197loPI   C3A 3145   5.578  18.313   8.920 -0.3125  0.0747 -0.1800
  197loPI   C4A 3146   5.560  18.266   8.531  0.0993  0.1515 -0.1494
  197loPI   C5A 3147   5.533  17.924   8.228 -0.0395 -0.1638  0.1681
  197loPI   C6A 3148   5.516  17.832   7.814  0.0198 -0.0768  0.0751
  197loPI   C1B 3149   5.919  18.953   9.515  0.2196 -0.0277  0.2715
  197loPI   C2B 3150   5.951  18.806   9.106  0.0459 -0.1601  0.1253
  197loPI   C3B 3151   5.845  18.847   8.755  0.1439  0.0337  0.1281
  197loPI   C4B 3152   5.876  18.720   8.450 -0.0546 -0.0078  0.1362
  198loPI    C1 3153   0.969   8.736  10.222  0.0405  0.0274 -0.2206
  198loPI    C2 3154   0.813   9.085  10.102  0.0030  0.1997  0.3018
  198loPI    C3 3155   0.742   8.951  10.472  0.4334 -0.1183  0.2771
  198loPI   PO4 3156   0.910   8.592   9.966 -0.0886 -0.0026  0.2095
  198loPI   GL1 3157   1.001   8.703   9.528 -0.1334 -0.0833 -0.0712
  198loPI   GL2 3158   0.746   8.962   9.597 -0.4309 -0.6891  0.0654
  198loPI   C1A 3159   1.029   8.668   9.145 -0.1712 -0.0770  0.1199
  198loPI   C2A 3160   1.001   8.649   8.794 -0.3543  0.0182  0.1257
  198loPI   C3A 3161   1.054   8.765   8.396 -0.2130  0.0162 -0.1405
  198loPI   C4A 3162   1.294   8.629   7.998 -0.0905 -0.1977 -0.1665
  198loPI   C5A 3163   1.407   8.400   7.644 -0.1399  0.1473 -0.2285
  198loPI   C6A 3164   1.586   8.277   7.183 -0.1677 -0.0699  0.0921
  198loPI   C1B 3165   0.573   8.759   9.355  0.0986  0.1084 -0.1822
  198loPI   C2B 3166   0.538   8.827   8.923  0.1028 -0.1811 -0.0872
  198loPI   C3B 3167   0.590   8.760   8.549 -0.2972 -0.1288  0.2433
  198loPI   C4B 3168   0.628   8.758   8.038  0.2924  0.0829  0.1714
  199loPI    C1 3169  16.017  15.727  10.163 -0.0994 -0.0022  0.0416
  199loPI    C2 3170  16.417  15.730  10.179 -0.0968  0.1827 -0.0292
  199loPI    C3 3171  16.204  15.645  10.507  0.0034 -0.3272 -0.0883
  199loPI   PO4 3172  15.976  15.682   9.877 -0.0597  0.0846  0.1085
  199loPI   GL1 3173  16.379  15.653   9.658  0.4465  0.2623 -0.1914
  199loPI   GL2 3174  16.721  15.628   9.716 -0.3167  0.1698 -0.0291
  199loPI   C1A 3175  16.303  15.634   9.319 -0.0165  0.2686 -0.0648
  199loPI   C2A 3176  16.473  15.924   8.995 -0.1691  0.1019  0.1427
  199loPI   C3A 3177  16.605  15.950   8.609  0.1364  0.2040 -0.3043
  199loPI   C4A 3178  16.640  16.091   8.145  0.2135  0.2045  0.4167
  199loPI   C5A 3179  16.669  15.994   7.720  0.0543 -0.0534 -0.3398
  199loPI   C6A 3180  16.813  15.676   7.505  0.1535  0.1164 -0.2121
  199loPI   C1B 3181  16.924  15.284   9.417 -0.1468 -0.2014  0.2192
  199loPI   C2B 3182  17.209  15.360   9.094 -0.0681  0.3606 -0.1028
  199loPI   C3B 3183  17.270  15.333   8.691 -0.1360 -0.0677 -0.2223
  199loPI   C4B 3184  17.229  15.190   8.376 -0.1953  0.0594 -0.1361
  200loPI    C1 3185  17.769  11.800  10.568 -0.3168 -0.0357  0.0266
  200loPI    C2 3186  17.788  12.107  10.824 -0.2311  0.0670 -0.1019
  200loPI    C3 3187  17.808  11.732  10.960  0.1391  0.1250  0.0147
  200loPI   PO4 3188  17.562  11.895  10.402  0.0686 -0.1700  0.0625
  200loPI   GL1 3189  17.667  12.059   9.939  0.1761  0.1411 -0.1748
  200loPI   GL2 3190  18.069  12.107   9.852  0.0283 -0.2877  0.3289
  200loPI   C1A 3191  17.359  12.110   9.515  0.2831 -0.0713  0.0265
  200loPI   C2A 3192  17.377  12.090   9.062  0.0359  0.2059 -0.5629
  200loPI   C3A 3193  17.467  11.973   8.659  0.4817  0.0816 -0.1751
  200loPI   C4A 3194  17.357  11.808   8.205 -0.0794 -0.1653 -0.0375
  200loPI   C5A 3195  17.669  11.989   8.111  0.3021  0.2040 -0.2602
  200loPI   C6A 3196  18.133  12.000   7.859  0.0154 -0.0025 -0.1459
  200loPI   C1B 3197  17.888  12.123   9.435  0.1749  0.0758  0.0452
  200loPI   C2B 3198  17.949  12.113   9.003 -0.3810  0.0261 -0.4637
  200loPI   C3B 3199  17.983  12.069   8.513  0.1866 -0.0685  0.2507
  200loPI   C4B 3200  18.147  12.350   8.193 -0.1755  0.4444  0.2577
  201loPI    C1 3201  11.974   4.526  10.528  0.0706  0.3912 -0.0908
  201loPI    C2 3202  11.680   4.310  10.691 -0.0158  0.3371 -0.3143
  201loPI    C3 3203  12.007   4.397  10.905 -0.0677  0.1539 -0.1583
  201loPI   PO4 3204  11.954   4.468  10.325  0.1065 -0.2179  0.2956
  201loPI   GL1 3205  12.036   4.599   9.924  0.2212 -0.2788 -0.0452
  201loPI   GL2 3206  12.021   4.968   9.918  0.1220 -0.0255 -0.1114
  201loPI   C1A 3207  11.821   4.407   9.443  0.0986 -0.4303 -0.3546
  201loPI   C2A 3208  11.717   4.558   9.084 -0.1250 -0.1165 -0.3108
  201loPI   C3A 3209  11.697   4.589   8.786 -0.0598 -0.0480 -0.0526
  201loPI   C4A 3210  11.676   4.587   8.346 -0.0245  0.2194  0.0068
  201loPI   C5A 3211  11.751   4.474   7.879  0.1998 -0.2400  0.1987
  201loPI   C6A 3212  11.673   4.225   7.475 -0.0965 -0.1367  0.0904
  201loPI   C1B 3213  12.054   4.921   9.450  0.2321  0.1210  0.1652
  201loPI   C2B 3214  11.994   5.006   9.016 -0.1653  0.0160  0.1058
  201loPI   C3B 3215  11.937   5.010   8.637 -0.0206  0.4056 -0.0417
  201loPI   C4B 3216  11.842   5.137   8.202 -0.0611 -0.1233 -0.1552
  202loPI    C1 3217  16.522  12.347  10.543 -0.0051 -0.1791  0.1226
  202loPI    C2 3218  16.773  12.580  10.749 -0.1921 -0.0552  0.2131
  202loPI    C3 3219  16.500  12.361  10.942 -0.1753 -0.1654  0.1134
  202loPI   PO4 3220  16.686  12.440  10.214 -0.0390 -0.0008 -0.2039
  202loPI   GL1 3221  16.761  12.233   9.811  0.3642 -0.2067 -0.1634
  202loPI   GL2 3222  16.512  12.540   9.791  0.2554  0.0517  0.0141
  202loPI   C1A 3223  16.395  12.057   9.541 -0.0953  0.1077 -0.1732
  202loPI   C2A 3224  16.378  12.079   9.199 -0.0171 -0.1709 -0.0374
  202loPI   C3A 3225  16.449  11.963   8.856 -0.2080 -0.2999  0.1881
  202loPI   C4A 3226  16.481  11.937   8.436 -0.2900 -0.1771  0.1229
  202loPI   C5A 3227  16.626  12.162   8.076  0.1061  0.1348  0.2232
  202loPI   C6A 3228  17.044  12.180   7.928  0.4616  0.0963  0.0454
  202loPI   C1B 3229  16.433  12.509   9.339  0.1636 -0.0209 -0.1716
  202loPI   C2B 3230  16.678  12.483   8.940 -0.0223  0.2317 -0.0181
  202loPI   C3B 3231  16.460  12.440   8.698  0.0043  0.3087  0.0844
  202loPI   C4B 3232  16.394  12.675   8.326  0.2768  0.3832  0.0831
  203loPI    C1 3233   9.705  17.568  10.278  0.0543  0.1248  0.1109
  203loPI    C2 3234  10.023  17.514  10.514  0.1407  0.0491 -0.0218
  203loPI    C3 3235   9.655  17.456  10.658  0.1898  0.0670  0.1124
  203loPI   PO4 3236   9.740  17.717  10.100 -0.2213  0.0263 -0.0536
  203loPI   GL1 3237   9.964  17.956   9.803 -0.1473  0.3345  0.2104
  203loPI   GL2 3238  10.144  17.889   9.586 -0.3140 -0.2367  0.1091
  203loPI   C1A 3239   9.610  17.995   9.540  0.3018  0.0061  0.1904
  203loPI   C2A 3240   9.562  18.030   8.971 -0.0348 -0.2069 -0.0438
  203loPI   C3A 3241   9.606  17.980   8.560  0.0414 -0.2025 -0.0120
  203loPI   C4A 3242   9.811  17.799   8.152 -0.2210 -0.1861  0.3226
  203loPI   C5A 3243   9.810  17.987   7.710 -0.2969 -0.0017  0.2190
  203loPI   C6A 3244   9.531  18.299   7.756  0.0992  0.1064  0.1787
  203loPI   C1B 3245  10.121  17.896   9.185 -0.4190  0.1003 -0.1627
  203loPI   C2B 3246  10.034  17.691   8.760  0.2174 -0.0905 -0.0270
  203loPI   C3B 3247  10.022  17.484   8.448 -0.1866 -0.0837  0.1209
  203loPI   C4B 3248  10.258  17.422   8.003  0.1537 -0.2081 -0.1278
  204loPI    C1 3249   6.474  13.148  10.182  0.0978  0.3591  0.1529
  204loPI    C2 3250   6.854  13.033  10.231 -0.0100 -0.0818  0.0032
  204loPI    C3 3251   6.593  12.998  10.533  0.0906  0.3323  0.1440
  204loPI   PO4 3252   6.462  13.033   9.892  0.1556  0.0882 -0.1206
  204loPI   GL1 3253   6.215  13.080   9.460 -0.0132 -0.1797 -0.0767
  204loPI   GL2 3254   6.586  12.882   9.391  0.0403 -0.3954 -0.0292
  204loPI   C1A 3255   5.934  13.062   9.135  0.2187 -0.0819  0.2648
  204loPI   C2A 3256   5.943  13.078   8.767 -0.4208  0.0352 -0.3004
  204loPI   C3A 3257   5.872  13.356   8.240 -0.1395 -0.4177 -0.0825
  204loPI   C4A 3258   5.781  13.722   8.032  0.0315 -0.0730  0.0734
  204loPI   C5A 3259   5.481  14.017   7.987  0.0851  0.2302 -0.1522
  204loPI   C6A 3260   5.209  14.348   8.169 -0.0845 -0.0754  0.1077
  204loPI   C1B 3261   6.357  12.752   9.034  0.1124 -0.1496  0.1582
  204loPI   C2B 3262   6.286  12.396   8.758  0.1146 -0.0045 -0.0195
  204loPI   C3B 3263   5.998  12.176   8.506  0.0852 -0.1180  0.0843
  204loPI   C4B 3264   5.878  12.085   8.092  0.2027  0.2214  0.1510
  205loPI    C1 3265   3.398   2.255  10.107 -0.0660  0.1481 -0.0961
  205loPI    C2 3266   3.573   2.528  10.340 -0.0896  0.0983 -0.0199
  205loPI    C3 3267   3.686   2.145  10.362  0.0515  0.1261 -0.2367
  205loPI   PO4 3268   3.463   2.302   9.871 -0.0869 -0.2432 -0.0831
  205loPI   GL1 3269   3.306   2.255   9.426  0.2255  0.3532 -0.0153
  205loPI   GL2 3270   3.661   2.173   9.461 -0.3129  0.3018  0.3730
  205loPI   C1A 3271   3.262   2.728   9.354  0.1003 -0.2894 -0.0219
  205loPI   C2A 3272   3.479   2.994   9.186 -0.0370  0.0558  0.0797
  205loPI   C3A 3273   3.404   3.312   9.029 -0.0035 -0.4498  0.0498
  205loPI   C4A 3274   3.071   3.567   8.899  0.0610  0.3004  0.2593
  205loPI   C5A 3275   2.860   3.750   8.523 -0.3443  0.2610 -0.3077
  205loPI   C6A 3276   2.477   3.802   8.240  0.2253  0.0948 -0.2153
  205loPI   C1B 3277   3.713   1.977   9.128  0.0812 -0.0113 -0.0512
  205loPI   C2B 3278   3.734   1.783   8.718  0.0939  0.0754 -0.1968
  205loPI   C3B 3279   3.430   1.489   8.530  0.1199 -0.0860 -0.1728
  205loPI   C4B 3280   3.333   1.384   8.123 -0.0789  0.1669 -0.1326
  206loPI    C1 3281   7.237  16.707  10.781 -0.1636 -0.0334 -0.0412
  206loPI    C2 3282   7.399  16.364  10.906 -0.0274  0.0553  0.0287
  206loPI    C3 3283   7.133  16.555  11.136 -0.1194 -0.0132 -0.0196
  206loPI   PO4 3284   7.426  16.816  10.642 -0.0885  0.1150  0.0004
  206loPI   GL1 3285   7.638  16.762  10.137  0.0168  0.0005 -0.0547
  206loPI   GL2 3286   7.320  16.579   9.908 -0.0150 -0.2627 -0.1384
  206loPI   C1A 3287   7.771  16.588   9.736 -0.3453 -0.1939 -0.1744
  206loPI   C2A 3288   7.846  16.626   9.261 -0.3854  0.1356 -0.0683
  206loPI   C3A 3289   7.821  16.576   8.794  0.0326  0.0556 -0.0386
  206loPI   C4A 3290   7.805  16.615   8.353 -0.2103 -0.0851  0.3136
  206loPI   C5A 3291   7.620  16.412   7.926  0.2509  0.1045  0.3861
  206loPI   C6A 3292   7.211  16.239   7.854 -0.3872 -0.2764 -0.1528
  206loPI   C1B 3293   7.305  16.592   9.499 -0.2387  0.1747  0.3518
  206loPI   C2B 3294   7.299  16.558   9.078  0.4186  0.0623 -0.0251
  206loPI   C3B 3295   7.299  16.631   8.736 -0.0226  0.3091  0.1113
  206loPI   C4B 3296   7.261  16.554   8.322 -0.0427 -0.0552 -0.1700
  207loPI    C1 3297  16.474   2.621  10.060  0.0571  0.1158 -0.0703
  207loPI    C2 3298  16.159   2.720  10.287  0.0446 -0.0222 -0.0266
  207loPI    C3 3299  16.409   2.432  10.406  0.0042 -0.1374 -0.2163
  207loPI   PO4 3300  16.307   2.616   9.754  0.0077 -0.0145 -0.0987
  207loPI   GL1 3301  16.367   2.851   9.305 -0.0066  0.0754 -0.2042
  207loPI   GL2 3302  16.622   2.959   9.236  0.1309  0.0984 -0.2122
  207loPI   C1A 3303  15.950   2.789   9.071 -0.1931  0.3410  0.0261
  207loPI   C2A 3304  15.964   2.578   8.731  0.1959  0.1330 -0.2073
  207loPI   C3A 3305  15.960   2.538   8.270 -0.0392 -0.2406 -0.0595
  207loPI   C4A 3306  16.254   2.488   8.019 -0.0857 -0.1467  0.1850
  207loPI   C5A 3307  16.174   2.256   7.703  0.1302 -0.2763 -0.2042
  207loPI   C6A 3308  16.130   2.220   7.254  0.2153 -0.0829 -0.0147
  207loPI   C1B 3309  16.922   2.872   8.879  0.2455 -0.1124  0.0535
  207loPI   C2B 3310  16.862   2.925   8.430  0.1030 -0.1055  0.1978
  207loPI   C3B 3311  16.879   2.802   8.021  0.1965  0.0031 -0.0672
  207loPI   C4B 3312  16.584   2.624   7.653 -0.3109  0.0889  0.1128
  208loPI    C1 3313   7.790   3.477  10.527 -0.0568  0.0025 -0.0514
  208loPI    C2 3314   8.039   3.709  10.737 -0.0923  0.0325 -0.0422
  208loPI    C3 3315   8.137   3.329  10.660  0.1110  0.1387 -0.3276
  208loPI   PO4 3316   7.776   3.612  10.340 -0.1426 -0.1545  0.4991
  208loPI   GL1 3317   7.937   3.815   9.904  0.0935 -0.1985  0.4264
  208loPI   GL2 3318   7.845   3.433   9.830  0.2647  0.0219  0.4157
  208loPI   C1A 3319   8.000   3.795   9.382 -0.2422  0.1960  0.0403
  208loPI   C2A 3320   7.983   3.756   8.912  0.1340 -0.0060 -0.0911
  208loPI   C3A 3321   7.945   3.660   8.528  0.0620 -0.2183  0.3864
  208loPI   C4A 3322   7.924   3.445   8.202  0.1008 -0.2494 -0.3070
  208loPI   C5A 3323   8.111   3.501   7.821  0.0045 -0.0486 -0.2076
  208loPI   C6A 3324   8.492   3.446   7.658 -0.0553  0.1824 -0.1241
  208loPI   C1B 3325   7.832   3.390   9.385  0.3812 -0.0550 -0.0414
  208loPI   C2B 3326   7.808   3.286   8.914  0.0623  0.4420 -0.1133
  208loPI   C3B 3327   8.056   3.152   8.635 -0.1720  0.0555 -0.0279
  208loPI   C4B 3328   8.257   3.045   8.288  0.1460 -0.0612 -0.1691
  209loPI    C1 3329   2.872   9.913   9.759  0.0545  0.2170 -0.0192
  209loPI    C2 3330   2.638  10.231   9.820 -0.1362  0.1444 -0.3480
  209loPI    C3 3331   2.673   9.952  10.104 -0.1249  0.3573 -0.1368
  209loPI   PO4 3332   2.932   9.882   9.579 -0.2526  0.2015 -0.1875
  209loPI   GL1 3333   2.907  10.043   9.117  0.0325  0.0692  0.1549
  209loPI   GL2 3334   2.730  10.325   8.984 -0.1440 -0.0052 -0.0189
  209loPI   C1A 3335   2.675   9.851   8.824  0.1042  0.3567  0.0071
  209loPI   C2A 3336   2.705   9.759   8.409 -0.4454  0.2257 -0.3450
  209loPI   C3A 3337   2.789   9.672   8.060  0.1558 -0.2504  0.4530
  209loPI   C4A 3338   2.710   9.779   7.611 -0.1480 -0.0368 -0.1863
  209loPI   C5A 3339   2.757  10.194   7.396 -0.3739  0.2362  0.4022
  209loPI   C6A 3340   2.595  10.519   7.429  0.0501 -0.0705  0.1172
  209loPI   C1B 3341   2.711  10.260   8.527  0.4160 -0.1970 -0.3100
  209loPI   C2B 3342   2.780  10.382   8.012  0.3980  0.0649  0.0009
  209loPI   C3B 3343   3.059  10.502   7.709 -0.0075  0.0870  0.2126
  209loPI   C4B 3344   3.389  10.362   7.576 -0.0462 -0.3598  0.0601
  210loPI    C1 3345   9.696  14.477  10.276  0.1226  0.0514 -0.0189
  210loPI    C2 3346   9.712  14.085  10.354  0.1406  0.0172 -0.1920
  210loPI    C3 3347   9.670  14.346  10.654  0.0246 -0.1226 -0.0850
  210loPI   PO4 3348   9.895  14.477  10.076 -0.0647 -0.1097 -0.1650
  210loPI   GL1 3349  10.010  14.304   9.765 -0.2201  0.1898 -0.2985
  210loPI   GL2 3350  10.129  14.072   9.608  0.1870  0.5319 -0.1546
  210loPI   C1A 3351  10.183  14.410   9.334 -0.0072  0.2443 -0.0442
  210loPI   C2A 3352  10.343  14.241   9.006  0.1088 -0.2776  0.2759
  210loPI   C3A 3353  10.283  14.162   8.494  0.1442 -0.0965 -0.3141
  210loPI   C4A 3354  10.202  13.917   8.159 -0.2803 -0.0618  0.1072
  210loPI   C5A 3355  10.147  13.860   7.743 -0.1808  0.2102 -0.0277
  210loPI   C6A 3356  10.126  13.501   7.674  0.1672 -0.1852  0.2677
  210loPI   C1B 3357   9.939  13.944   9.174 -0.0086  0.1775 -0.2894
  210loPI   C2B 3358  10.069  13.775   8.827 -0.0760 -0.1908 -0.2861
  210loPI   C3B 3359   9.977  13.512   8.391  0.0337  0.1178 -0.0764
  210loPI   C4B 3360   9.836  13.559   8.057 -0.3999 -0.0051  0.0597
  211loPI    C1 3361   0.719   3.614  10.353 -0.1257  0.1095  0.2191
  211loPI    C2 3362   1.065   3.541  10.540  0.0817  0.3275 -0.0710
  211loPI    C3 3363   0.835   3.845  10.659  0.0699  0.2839  0.0177
  211loPI   PO4 3364   0.795   3.349  10.169 -0.1935  0.1261  0.0883
  211loPI   GL1 3365   0.900   3.397   9.799 -0.0710  0.2986  0.0164
  211loPI   GL2 3366   0.856   3.620   9.493 -0.0848  0.0501  0.0602
  211loPI   C1A 3367   0.997   3.127   9.427 -0.1765  0.0410  0.0501
  211loPI   C2A 3368   1.126   3.030   9.089 -0.1050  0.0005  0.0165
  211loPI   C3A 3369   1.145   3.183   8.717  0.0686  0.1318 -0.0270
  211loPI   C4A 3370   1.062   3.253   8.228  0.1509 -0.0176 -0.0177
  211loPI   C5A 3371   1.235   3.312   7.840  0.0434 -0.2812 -0.0504
  211loPI   C6A 3372   1.577   3.555   7.646  0.1915  0.2021 -0.1162
  211loPI   C1B 3373   0.815   3.500   9.066 -0.0412 -0.0801 -0.2184
  211loPI   C2B 3374   0.892   3.627   8.688  0.0669 -0.2917 -0.2321
  211loPI   C3B 3375   1.186   3.735   8.333  0.1147 -0.0452 -0.1875
  211loPI   C4B 3376   1.390   3.909   7.976 -0.1322 -0.0057  0.2318
  212loPI    C1 3377   9.935   8.432  10.364 -0.0488  0.0230 -0.0264
  212loPI    C2 3378   9.926   8.832  10.342  0.1865  0.0342  0.0594
  212loPI    C3 3379   9.871   8.649  10.694  0.0354 -0.0115  0.0128
  212loPI   PO4 3380   9.921   8.415  10.110 -0.1869  0.1085 -0.4747
  212loPI   GL1 3381  10.028   8.542   9.719 -0.0240 -0.1417  0.0252
  212loPI   GL2 3382  10.138   8.350   9.519  0.0495  0.2724 -0.1513
  212loPI   C1A 3383  10.050   8.856   9.370 -0.1484  0.2426 -0.0717
  212loPI   C2A 3384  10.128   8.939   8.942 -0.3686  0.0329  0.0155
  212loPI   C3A 3385  10.197   9.170   8.580  0.0430 -0.4455  0.1367
  212loPI   C4A 3386  10.236   9.436   8.218  0.0899  0.0979  0.1261
  212loPI   C5A 3387  10.488   9.413   7.780  0.2401  0.2715  0.0877
  212loPI   C6A 3388  10.669   9.489   7.449  0.0342  0.0751 -0.2601
  212loPI   C1B 3389  10.122   8.392   9.075 -0.0299 -0.2505  0.0410
  212loPI   C2B 3390  10.255   8.525   8.601 -0.2381 -0.0282  0.0607
  212loPI   C3B 3391  10.144   8.717   8.259 -0.2411  0.0819 -0.0364
  212loPI   C4B 3392  10.253   8.482   7.938  0.4048 -0.2356  0.0270
  213loPI    C1 3393  14.240  15.119  10.124  0.1659  0.1190  0.0381
  213loPI    C2 3394  14.198  15.237  10.504 -0.0746  0.0305  0.0406
  213loPI    C3 3395  14.137  14.854  10.406  0.3334 -0.0206 -0.0301
  213loPI   PO4 3396  14.322  15.342  10.008  0.2019 -0.0818  0.3912
  213loPI   GL1 3397  14.204  15.591   9.674  0.1824  0.0411 -0.5859
  213loPI   GL2 3398  14.177  16.022   9.522 -0.1109 -0.2515 -0.1736
  213loPI   C1A 3399  14.568  15.793   9.451  0.0105 -0.2531  0.0450
  213loPI   C2A 3400  14.553  15.779   8.992 -0.1789 -0.0768  0.0361
  213loPI   C3A 3401  14.465  15.675   8.603  0.0470  0.1427 -0.0578
  213loPI   C4A 3402  14.462  15.656   8.110  0.0357 -0.2892 -0.1575
  213loPI   C5A 3403  14.357  15.550   7.689 -0.0651 -0.0680  0.0168
  213loPI   C6A 3404  14.287  15.102   7.603  0.1638 -0.1768 -0.0210
  213loPI   C1B 3405  14.051  15.770   9.112 -0.2589  0.1024  0.1487
  213loPI   C2B 3406  13.933  15.977   8.798 -0.0752 -0.3039 -0.1100
  213loPI   C3B 3407  14.034  15.971   8.388 -0.3221 -0.2509 -0.3910
  213loPI   C4B 3408  14.027  15.941   8.057  0.0269  0.2197 -0.1285
  214loPI    C1 3409   0.983  14.143  10.243  0.1379 -0.1273  0.0147
  214loPI    C2 3410   0.719  13.843  10.233 -0.1009  0.0787  0.0440
  214loPI    C3 3411   0.592  14.222  10.226  0.1897  0.1820  0.1876
  214loPI   PO4 3412   1.081  14.128  10.045  0.0189 -0.1159 -0.0818
  214loPI   GL1 3413   1.099  14.242   9.482 -0.1070 -0.2027  0.2033
  214loPI   GL2 3414   1.307  13.972   9.487 -0.4232 -0.0601  0.1247
  214loPI   C1A 3415   1.033  14.123   9.022  0.0334 -0.0195  0.0082
  214loPI   C2A 3416   0.927  14.057   8.547  0.1888  0.0155 -0.0579
  214loPI   C3A 3417   0.677  14.231   8.147  0.1416 -0.2070  0.1283
  214loPI   C4A 3418   0.636  14.439   7.730 -0.0842  0.3606 -0.0751
  214loPI   C5A 3419   0.851  14.706   7.430  0.1825  0.2175  0.0973
  214loPI   C6A 3420   1.003  15.051   7.362 -0.0775 -0.0090  0.0016
  214loPI   C1B 3421   1.221  13.606   9.316  0.2350  0.0158 -0.0930
  214loPI   C2B 3422   1.199  13.568   8.824 -0.2987 -0.1595 -0.0619
  214loPI   C3B 3423   1.139  13.540   8.437 -0.0548  0.2564 -0.2793
  214loPI   C4B 3424   1.040  13.346   7.994 -0.2352  0.2447  0.0769
  215loPI    C1 3425   7.454  12.949  10.067 -0.1012 -0.2240 -0.2852
  215loPI    C2 3426   7.654  12.694  10.301 -0.1008 -0.2127 -0.2732
  215loPI    C3 3427   7.262  12.749  10.355 -0.0011  0.2004  0.0863
  215loPI   PO4 3428   7.622  12.927   9.830  0.4857  0.2540 -0.0224
  215loPI   GL1 3429   7.960  12.762   9.609  0.1035  0.0680  0.2925
  215loPI   GL2 3430   8.041  12.370   9.526  0.2200 -0.2382 -0.2609
  215loPI   C1A 3431   8.109  13.062   9.204 -0.0126  0.2435  0.2100
  215loPI   C2A 3432   7.945  13.282   8.825 -0.0952 -0.1233  0.0315
  215loPI   C3A 3433   7.898  13.525   8.495 -0.0546  0.0469 -0.3913
  215loPI   C4A 3434   7.836  13.597   8.096 -0.1115 -0.3124  0.3712
  215loPI   C5A 3435   7.662  13.638   7.638  0.0705 -0.1710 -0.0032
  215loPI   C6A 3436   7.510  13.155   7.485  0.3117  0.2955 -0.0598
  215loPI   C1B 3437   8.150  12.389   9.043 -0.0938 -0.0347 -0.0729
  215loPI   C2B 3438   8.011  12.174   8.736  0.1196 -0.0394  0.0272
  215loPI   C3B 3439   7.884  11.782   8.443  0.0571  0.3768  0.0025
  215loPI   C4B 3440   7.804  11.562   8.075  0.1647  0.0977  0.0699
  216loPI    C1 3441   5.087   8.647  10.480  0.1553  0.1574  0.0368
  216loPI    C2 3442   4.892   8.383  10.708 -0.0238  0.0352 -0.2524
  216loPI    C3 3443   5.125   8.660  10.878 -0.1441 -0.0600  0.0758
  216loPI   PO4 3444   5.049   8.500  10.205 -0.0904 -0.5085  0.0440
  216loPI   GL1 3445   4.868   8.638   9.812  0.2233 -0.0112  0.1193
  216loPI   GL2 3446   4.676   8.300   9.848  0.2048 -0.0957 -0.3991
  216loPI   C1A 3447   5.051   8.583   9.284  0.2773  0.0607  0.0723
  216loPI   C2A 3448   5.299   8.530   8.910 -0.0806 -0.1202 -0.1178
  216loPI   C3A 3449   5.520   8.632   8.524 -0.3161 -0.1403 -0.1062
  216loPI   C4A 3450   5.795   8.860   8.341 -0.0751  0.0768  0.0133
  216loPI   C5A 3451   5.875   9.191   8.458 -0.2246  0.1405  0.1059
  216loPI   C6A 3452   5.950   9.676   8.378  0.0280  0.0312 -0.1147
  216loPI   C1B 3453   4.754   8.103   9.411  0.4316  0.0610  0.1091
  216loPI   C2B 3454   4.822   8.362   8.898 -0.0834 -0.0795  0.0962
  216loPI   C3B 3455   4.858   8.153   8.574  0.3112 -0.1385  0.0485
  216loPI   C4B 3456   4.911   8.025   8.085 -0.0271 -0.1352 -0.1557
  217loPI    C1 3457  10.039  11.196  10.156 -0.0805  0.0805  0.1025
  217loPI    C2 3458  10.392  11.193  10.345 -0.0114 -0.0349 -0.0265
  217loPI    C3 3459  10.057  11.105  10.545  0.0314  0.0833  0.0984
  217loPI   PO4 3460  10.132  11.228   9.915  0.2137  0.0679 -0.3384
  217loPI   GL1 3461  10.444  11.160   9.623 -0.0496 -0.2870 -0.1040
  217loPI   GL2 3462  10.306  10.901   9.503 -0.0276  0.2320 -0.3086
  217loPI   C1A 3463  10.693  11.311   9.301  0.0377  0.2624 -0.0213
  217loPI   C2A 3464  10.806  11.217   8.906 -0.2198 -0.3318  0.1850
  217loPI   C3A 3465  10.908  10.917   8.519  0.1009 -0.0659 -0.2124
  217loPI   C4A 3466  11.014  10.876   8.118  0.0154 -0.2184 -0.1095
  217loPI   C5A 3467  10.997  10.676   7.786 -0.2474 -0.0269  0.3242
  217loPI   C6A 3468  10.661  10.511   7.512 -0.0763 -0.1628 -0.0362
  217loPI   C1B 3469  10.115  11.087   9.142  0.1978  0.1058  0.1251
  217loPI   C2B 3470  10.333  11.285   8.784  0.4225  0.4940  0.2335
  217loPI   C3B 3471  10.548  11.256   8.348 -0.0598  0.0219  0.3067
  217loPI   C4B 3472  10.378  11.360   7.959  0.0686 -0.0445 -0.0312
  218loPI    C1 3473   1.908   2.252  10.218 -0.1509  0.2938 -0.2681
  218loPI    C2 3474   1.543   2.361  10.338 -0.2196 -0.0239 -0.1777
  218loPI    C3 3475   1.754   2.099  10.554 -0.0132  0.0163 -0.3278
  218loPI   PO4 3476   1.869   2.250   9.996  0.1265  0.2999 -0.1552
  218loPI   GL1 3477   2.190   2.273   9.736  0.0295 -0.1625 -0.0191
  218loPI   GL2 3478   2.326   2.059   9.829 -0.1716 -0.1087  0.0937
  218loPI   C1A 3479   2.117   2.229   9.354 -0.1587  0.0423  0.3420
  218loPI   C2A 3480   2.291   2.319   8.881 -0.0792  0.0867  0.4983
  218loPI   C3A 3481   2.493   2.640   8.742  0.1953  0.0121  0.1063
  218loPI   C4A 3482   2.367   2.848   8.320  0.3411 -0.2852  0.0268
  218loPI   C5A 3483   2.093   3.059   7.924 -0.1527 -0.2050 -0.4442
  218loPI   C6A 3484   1.886   3.216   7.654 -0.1792 -0.0514  0.2061
  218loPI   C1B 3485   2.567   2.094   9.408 -0.2653  0.1619 -0.2047
  218loPI   C2B 3486   2.666   2.061   8.930  0.0567  0.0263  0.0671
  218loPI   C3B 3487   2.833   2.299   8.639  0.1334 -0.1451  0.0746
  218loPI   C4B 3488   3.139   2.524   8.357  0.0803 -0.0082  0.2433
  219loPI    C1 3489   8.097   9.301   9.934  0.0974 -0.1613  0.0240
  219loPI    C2 3490   7.846   9.407  10.226 -0.0602  0.0608 -0.1877
  219loPI    C3 3491   8.213   9.275  10.316 -0.1902 -0.1042  0.1170
  219loPI   PO4 3492   7.915   9.306   9.759 -0.3073  0.1368  0.0998
  219loPI   GL1 3493   7.774   9.351   9.328  0.3037 -0.2560  0.1322
  219loPI   GL2 3494   7.808   9.028   9.376 -0.2132 -0.1527 -0.0334
  219loPI   C1A 3495   7.772   9.409   8.912  0.0359 -0.4392  0.1559
  219loPI   C2A 3496   7.746   9.427   8.553 -0.3351 -0.0372  0.1412
  219loPI   C3A 3497   7.913   9.501   8.102 -0.0665  0.0835 -0.0805
  219loPI   C4A 3498   7.827   9.685   7.646 -0.0405  0.3759 -0.4597
  219loPI   C5A 3499   7.999   9.898   7.323  0.0423 -0.3019 -0.1632
  219loPI   C6A 3500   8.296  10.189   7.272 -0.1746  0.0265  0.0791
  219loPI   C1B 3501   7.799   8.905   8.987 -0.5031 -0.1242  0.1215
  219loPI   C2B 3502   8.033   8.950   8.596  0.0074  0.2366 -0.2029
  219loPI   C3B 3503   7.754   9.007   8.245  0.1537  0.1818  0.1678
  219loPI   C4B 3504   7.689   8.841   7.870  0.0656 -0.0339  0.3015
  220loPI    C1 3505   1.121   7.573   9.762 -0.0274 -0.0825 -0.1062
  220loPI    C2 3506   0.809   7.328   9.709 -0.0856 -0.0122 -0.0889
  220loPI    C3 3507   0.825   7.564  10.032 -0.0507  0.0382 -0.1272
  220loPI   PO4 3508   1.150   7.694   9.563  0.0478 -0.3137 -0.0935
  220loPI   GL1 3509   1.412   7.755   9.239 -0.1119  0.1502  0.2058
  220loPI   GL2 3510   1.404   7.812   8.890 -0.1436  0.0201  0.0920
  220loPI   C1A 3511   1.541   7.373   8.955 -0.0486  0.0776  0.1164
  220loPI   C2A 3512   1.431   7.212   8.603 -0.3666  0.0637 -0.1702
  220loPI   C3A 3513   1.383   7.018   8.132  0.2970 -0.0930  0.0625
  220loPI   C4A 3514   1.343   6.968   7.714  0.2648  0.1956  0.2650
  220loPI   C5A 3515   1.143   6.617   7.524 -0.0580 -0.1303 -0.1070
  220loPI   C6A 3516   0.978   6.320   7.448 -0.0649 -0.1460 -0.1896
  220loPI   C1B 3517   1.531   7.726   8.581  0.1605  0.0129  0.3809
  220loPI   C2B 3518   1.787   7.860   8.170 -0.0329  0.3407  0.0163
  220loPI   C3B 3519   2.162   7.775   8.013  0.0111  0.1403  0.0528
  220loPI   C4B 3520   2.459   7.968   7.843  0.2946 -0.1239  0.0129
  221loPI    C1 3521   5.048   0.258  10.337 -0.1518  0.1446  0.0550
  221loPI    C2 3522   5.061   0.632  10.478  0.0191  0.0572  0.2774
  221loPI    C3 3523   4.773   0.382  10.600 -0.0845  0.1094  0.1424
  221loPI   PO4 3524   5.098   0.296  10.035  0.1836 -0.0145 -0.1398
  221loPI   GL1 3525   4.889   0.065   9.659  0.0533 -0.2696  0.0852
  221loPI   GL2 3526   4.801   0.376   9.568  0.3378 -0.0533 -0.3052
  221loPI   C1A 3527   5.337   0.081   9.480  0.1031  0.1472  0.2985
  221loPI   C2A 3528   5.428  -0.054   9.070  0.1609  0.2448  0.2505
  221loPI   C3A 3529   5.257  -0.105   8.666 -0.1775  0.0399 -0.1151
  221loPI   C4A 3530   5.395  -0.081   8.232 -0.2410  0.1428  0.3240
  221loPI   C5A 3531   5.263  -0.352   7.825 -0.1292  0.1990 -0.0661
  221loPI   C6A 3532   5.022  -0.821   7.685 -0.2150  0.1791 -0.2218
  221loPI   C1B 3533   5.048   0.475   9.283  0.2156 -0.0942  0.0722
  221loPI   C2B 3534   5.108   0.257   8.897  0.2238  0.0187 -0.2131
  221loPI   C3B 3535   5.137   0.385   8.416  0.1073  0.1784 -0.2278
  221loPI   C4B 3536   5.154   0.456   8.045 -0.2246 -0.2073 -0.0913
  222loPI    C1 3537   7.334   9.326  10.170 -0.2480 -0.0368 -0.1321
  222loPI    C2 3538   7.031   9.460  10.393  0.0883  0.1657  0.2141
  222loPI    C3 3539   7.402   9.452  10.543  0.2574 -0.0847 -0.2004
  222loPI   PO4 3540   7.326   9.551   9.921 -0.1071  0.1236 -0.1511
  222loPI   GL1 3541   7.476   9.684   9.565  0.0104 -0.0808 -0.1075
  222loPI   GL2 3542   7.280   9.452   9.341 -0.2523 -0.1372 -0.1129
  222loPI   C1A 3543   7.440   9.906   9.193 -0.1626 -0.1490  0.2379
  222loPI   C2A 3544   7.469  10.013   8.750 -0.0221  0.3236 -0.0557
  222loPI   C3A 3545   7.206  10.331   8.419 -0.0152 -0.1616  0.1338
  222loPI   C4A 3546   7.008  10.233   7.974 -0.1708  0.1449  0.1817
  222loPI   C5A 3547   7.311  10.280   7.547  0.1999 -0.1888  0.1027
  222loPI   C6A 3548   7.728  10.352   7.498  0.0706  0.0535  0.0994
  222loPI   C1B 3549   7.229   9.537   8.859 -0.2568 -0.1626 -0.1818
  222loPI   C2B 3550   7.293   9.579   8.521  0.2472 -0.0002 -0.0512
  222loPI   C3B 3551   7.197   9.453   8.191 -0.0469  0.1699  0.3623
  222loPI   C4B 3552   7.472   9.441   7.928  0.0287  0.4449  0.0515
  223loPI    C1 3553   5.353  11.078   9.837 -0.2240  0.2981 -0.2538
  223loPI    C2 3554   5.677  11.263   9.979 -0.2858 -0.0604  0.3923
  223loPI    C3 3555   5.717  10.935   9.755 -0.2006  0.0987  0.1710
  223loPI   PO4 3556   5.118  11.243   9.760  0.0731 -0.1214  0.0448
  223loPI   GL1 3557   5.288  11.412   9.455 -0.1191  0.1671 -0.8623
  223loPI   GL2 3558   5.611  11.577   9.548 -0.0876  0.0123  0.1631
  223loPI   C1A 3559   4.967  11.456   8.992 -0.0723 -0.0187 -0.0337
  223loPI   C2A 3560   4.935  11.545   8.579  0.1125  0.1775  0.0096
  223loPI   C3A 3561   4.853  11.615   8.202 -0.1346  0.2797 -0.0368
  223loPI   C4A 3562   4.939  11.863   7.859  0.0871  0.3697 -0.0407
  223loPI   C5A 3563   5.208  12.218   7.648 -0.2544  0.1261 -0.3153
  223loPI   C6A 3564   5.674  12.402   7.691  0.0710  0.1765 -0.0406
  223loPI   C1B 3565   5.760  11.265   9.243  0.2117 -0.2081  0.0053
  223loPI   C2B 3566   5.898  11.305   8.839  0.3811 -0.3472 -0.1539
  223loPI   C3B 3567   5.959  11.209   8.527 -0.2373  0.1121 -0.2545
  223loPI   C4B 3568   6.110  11.008   8.210  0.1009 -0.0271 -0.2233
  224loPI    C1 3569  18.791   1.698  10.176  0.1940  0.2366  0.0691
  224loPI    C2 3570  19.014   1.377  10.263  0.1329  0.1615 -0.0493
  224loPI    C3 3571  19.070   1.719  10.462  0.0212  0.0043  0.2584
  224loPI   PO4 3572  18.894   1.696   9.845  0.1378  0.2588 -0.1257
  224loPI   GL1 3573  18.865   1.572   9.471 -0.0394  0.1139 -0.0251
  224loPI   GL2 3574  18.681   1.749   9.407  0.0960  0.1912  0.0622
  224loPI   C1A 3575  19.042   1.658   9.107  0.3847 -0.3793  0.1159
  224loPI   C2A 3576  19.127   1.541   8.749  0.0392 -0.2525 -0.2912
  224loPI   C3A 3577  19.118   1.583   8.429 -0.3632  0.3698  0.0630
  224loPI   C4A 3578  19.266   1.637   8.000  0.3462 -0.2986 -0.2066
  224loPI   C5A 3579  19.223   1.810   7.546 -0.1909 -0.0770 -0.0214
  224loPI   C6A 3580  19.185   2.173   7.318  0.0068  0.1730  0.0415
  224loPI   C1B 3581  18.665   1.784   8.870  0.0831  0.1405 -0.1788
  224loPI   C2B 3582  18.520   1.753   8.452 -0.0099  0.2326 -0.0067
  224loPI   C3B 3583  18.423   1.745   8.000  0.4638 -0.3185  0.2737
  224loPI   C4B 3584  18.359   1.529   7.530 -0.0044 -0.2998  0.2809
  225loPI    C1 3585   0.112  12.176  10.535  0.0418 -0.1279  0.0465
  225loPI    C2 3586   0.394  12.449  10.456 -0.0975 -0.0216 -0.0885
  225loPI    C3 3587   0.268  12.395  10.831  0.0805 -0.0491 -0.0316
  225loPI   PO4 3588   0.017  12.187  10.280 -0.0197 -0.0520 -0.0715
  225loPI   GL1 3589   0.279  11.962   9.903 -0.1199 -0.4322  0.0850
  225loPI   GL2 3590   0.205  11.702   9.899  0.1740  0.0682 -0.2060
  225loPI   C1A 3591   0.579  11.922   9.549 -0.1329  0.0221 -0.3697
  225loPI   C2A 3592   0.703  11.856   9.097 -0.0974 -0.2077 -0.0026
  225loPI   C3A 3593   0.672  11.787   8.623  0.6931  0.2035 -0.0330
  225loPI   C4A 3594   0.697  11.797   8.164 -0.0713  0.0993 -0.1641
  225loPI   C5A 3595   0.632  12.050   7.895 -0.1213  0.1379  0.1149
  225loPI   C6A 3596   0.569  12.157   7.526 -0.1884 -0.1243 -0.0435
  225loPI   C1B 3597   0.118  11.874   9.449  0.0207 -0.0877 -0.1393
  225loPI   C2B 3598   0.089  11.809   9.047 -0.1223  0.1246 -0.0122
  225loPI   C3B 3599  -0.076  11.815   8.618 -0.0082  0.0781 -0.0093
  225loPI   C4B 3600  -0.175  12.052   8.148  0.0746  0.2569 -0.0122
  226loPI    C1 3601   8.129   8.130   9.633  0.1941 -0.1392  0.0111
  226loPI    C2 3602   8.035   8.288   9.988 -0.0895  0.1407 -0.1820
  226loPI    C3 3603   8.299   8.472   9.751  0.2015 -0.1162 -0.0658
  226loPI   PO4 3604   8.128   7.922   9.569 -0.0298 -0.1183  0.1877
  226loPI   GL1 3605   8.291   7.739   9.241  0.3649 -0.4276  0.0680
  226loPI   GL2 3606   8.350   8.088   9.126 -0.0341  0.0727  0.0305
  226loPI   C1A 3607   8.502   7.643   8.813  0.2712  0.0283  0.0214
  226loPI   C2A 3608   8.659   7.619   8.420 -0.0851  0.0323 -0.0536
  226loPI   C3A 3609   8.508   7.680   8.070 -0.1992 -0.1444  0.2269
  226loPI   C4A 3610   8.375   7.728   7.676  0.1034 -0.1341  0.0092
  226loPI   C5A 3611   8.537   7.960   7.331 -0.1209  0.3146 -0.1853
  226loPI   C6A 3612   8.601   8.199   6.935  0.5008  0.2561  0.0402
  226loPI   C1B 3613   8.441   8.173   8.577  0.2382  0.0860  0.0212
  226loPI   C2B 3614   8.461   8.214   8.049  0.1380 -0.5071  0.1712
  226loPI   C3B 3615   8.431   8.370   7.694  0.1217  0.2359  0.0504
  226loPI   C4B 3616   8.521   8.532   7.279 -0.2243  0.3404 -0.0658
  227loPI    C1 3617  13.820   2.006   9.962  0.3209  0.1315 -0.1997
  227loPI    C2 3618  14.001   1.794  10.249  0.1373  0.0478 -0.1444
  227loPI    C3 3619  13.769   2.106  10.346 -0.0035 -0.0404 -0.1944
  227loPI   PO4 3620  13.700   1.846   9.845 -0.0126  0.3224 -0.3924
  227loPI   GL1 3621  13.784   1.871   9.459 -0.2633 -0.1496 -0.0177
  227loPI   GL2 3622  13.642   1.510   9.471  0.0443 -0.0443 -0.0121
  227loPI   C1A 3623  13.933   1.697   9.011 -0.1724 -0.0756  0.1094
  227loPI   C2A 3624  13.952   1.904   8.553 -0.0270 -0.1161 -0.2138
  227loPI   C3A 3625  13.892   1.936   8.081 -0.1169 -0.0055  0.1406
  227loPI   C4A 3626  13.614   1.938   7.782  0.1668 -0.1593 -0.1657
  227loPI   C5A 3627  13.255   1.623   7.741  0.0374  0.0929 -0.2205
  227loPI   C6A 3628  12.850   1.802   7.674 -0.3046  0.0082  0.0694
  227loPI   C1B 3629  13.549   1.329   9.079 -0.0343  0.1944 -0.0798
  227loPI   C2B 3630  13.683   1.420   8.681 -0.0643 -0.2370  0.5577
  227loPI   C3B 3631  13.892   1.239   8.378  0.0064 -0.0536  0.3199
  227loPI   C4B 3632  13.955   0.924   8.022  0.2699  0.2801 -0.0119
  228loPI    C1 3633   2.362  16.198  10.152 -0.1014 -0.0474 -0.0536
  228loPI    C2 3634   2.080  16.215  10.435  0.0262 -0.0063  0.0722
  228loPI    C3 3635   2.439  16.060  10.519  0.0113 -0.1452 -0.1135
  228loPI   PO4 3636   2.293  16.167   9.969 -0.1327 -0.0225  0.1207
  228loPI   GL1 3637   2.154  16.371   9.711 -0.0654 -0.3074 -0.0669
  228loPI   GL2 3638   2.418  16.579   9.744 -0.0748 -0.0669 -0.0138
  228loPI   C1A 3639   1.960  16.315   9.229 -0.1355  0.0471  0.3112
  228loPI   C2A 3640   2.073  16.271   8.764  0.0646 -0.2792  0.1740
  228loPI   C3A 3641   2.110  16.276   8.316  0.0100 -0.1277  0.1414
  228loPI   C4A 3642   1.878  16.322   7.898  0.1900  0.2201  0.3396
  228loPI   C5A 3643   1.649  16.029   7.634 -0.3074  0.1462  0.2064
  228loPI   C6A 3644   1.965  15.684   7.375 -0.0414 -0.2809  0.2900
  228loPI   C1B 3645   2.375  16.583   9.301 -0.1197  0.0451 -0.0272
  228loPI   C2B 3646   2.152  16.710   8.923 -0.3126  0.0700 -0.0868
  228loPI   C3B 3647   2.011  16.783   8.487 -0.0715  0.2778 -0.2687
  228loPI   C4B 3648   2.142  16.868   8.060  0.1101  0.1793 -0.3195
  229loPI    C1 3649   2.993   6.596  10.324 -0.1037 -0.0704 -0.0697
  229loPI    C2 3650   2.669   6.571  10.090 -0.1335 -0.2458 -0.0109
  229loPI    C3 3651   2.677   6.833  10.392 -0.1797 -0.1693 -0.0755
  229loPI   PO4 3652   3.170   6.556  10.126  0.0003  0.4454 -0.2938
  229loPI   GL1 3653   3.050   6.469   9.767 -0.0745  0.0659  0.0830
  229loPI   GL2 3654   3.262   6.679   9.573 -0.0040  0.0535 -0.0521
  229loPI   C1A 3655   2.866   6.374   9.365 -0.5529 -0.2034  0.0406
  229loPI   C2A 3656   2.616   6.208   9.038  0.2244 -0.0098 -0.0656
  229loPI   C3A 3657   2.566   6.239   8.499 -0.1020  0.0462 -0.0874
  229loPI   C4A 3658   2.653   6.141   8.030  0.1597  0.2260 -0.0136
  229loPI   C5A 3659   2.785   6.037   7.672  0.2049 -0.0376 -0.0274
  229loPI   C6A 3660   2.594   5.846   7.235  0.1604  0.0959 -0.1549
  229loPI   C1B 3661   3.191   6.694   9.113 -0.2099 -0.3610  0.3837
  229loPI   C2B 3662   3.108   6.480   8.826 -0.1681  0.1892 -0.0062
  229loPI   C3B 3663   2.988   6.553   8.401 -0.0211 -0.1904  0.2050
  229loPI   C4B 3664   3.007   6.434   7.935 -0.0834 -0.1802 -0.1017
  230loPI    C1 3665  16.056  10.928  10.326 -0.1667 -0.0933  0.0204
  230loPI    C2 3666  16.440  10.940  10.438 -0.1347 -0.0654 -0.0903
  230loPI    C3 3667  16.238  10.595  10.454 -0.1078 -0.0784 -0.0240
  230loPI   PO4 3668  16.124  11.058  10.008  0.1191  0.2501  0.0787
  230loPI   GL1 3669  15.963  11.294   9.648  0.0829  0.2449  0.0667
  230loPI   GL2 3670  15.658  11.148   9.598  0.2403 -0.0825  0.0781
  230loPI   C1A 3671  16.047  11.271   9.103 -0.1595  0.1846  0.0031
  230loPI   C2A 3672  16.014  11.137   8.751  0.2084 -0.0563 -0.1345
  230loPI   C3A 3673  16.193  10.998   8.369  0.1314 -0.3904  0.1399
  230loPI   C4A 3674  16.268  10.707   8.094  0.2819 -0.1063  0.0349
  230loPI   C5A 3675  16.375  10.334   7.919  0.0913  0.1848 -0.1416
  230loPI   C6A 3676  16.162   9.940   7.806 -0.1863 -0.0380  0.1822
  230loPI   C1B 3677  15.498  10.826   9.210 -0.1504  0.1364  0.0822
  230loPI   C2B 3678  15.563  10.875   8.826 -0.2215  0.1129 -0.0177
  230loPI   C3B 3679  15.641  10.879   8.359  0.1972  0.1102 -0.3040
  230loPI   C4B 3680  15.628  10.839   7.950  0.1914  0.1898  0.0600
  231loPI    C1 3681   5.818  18.572  10.303 -0.2622  0.0212 -0.0381
  231loPI    C2 3682   6.075  18.346  10.510  0.0234  0.2507 -0.1354
  231loPI    C3 3683   5.683  18.319  10.582  0.0765 -0.0626  0.0552
  231loPI   PO4 3684   6.048  18.815  10.174  0.0642  0.0297  0.2126
  231loPI   GL1 3685   6.416  18.789   9.887  0.2264  0.0405  0.0377
  231loPI   GL2 3686   6.694  18.779   9.982  0.1390 -0.0165  0.3252
  231loPI   C1A 3687   6.418  18.801   9.370  0.2451  0.0840  0.1117
  231loPI   C2A 3688   6.474  18.898   9.001 -0.2674 -0.1843 -0.1301
  231loPI   C3A 3689   6.395  18.815   8.593  0.2354 -0.0850 -0.2092
  231loPI   C4A 3690   6.349  18.826   8.136  0.0403  0.0851 -0.1018
  231loPI   C5A 3691   6.027  18.586   7.897  0.1840 -0.2884  0.1513
  231loPI   C6A 3692   5.716  18.389   8.008 -0.4900 -0.0092  0.2338
  231loPI   C1B 3693   6.928  18.829   9.634  0.0730 -0.2979 -0.0880
  231loPI   C2B 3694   7.025  18.851   9.181  0.0619 -0.0369  0.2237
  231loPI   C3B 3695   6.932  18.848   8.790 -0.2243  0.0638 -0.1664
  231loPI   C4B 3696   6.893  18.839   8.290  0.0011 -0.0190 -0.0666
  232loPI    C1 3697  15.650  16.763   9.991  0.3165 -0.2478  0.0026
  232loPI    C2 3698  15.413  16.721  10.311  0.2200 -0.0035 -0.0346
  232loPI    C3 3699  15.435  17.073  10.123  0.3996 -0.1013 -0.2011
  232loPI   PO4 3700  15.594  16.577   9.831  0.0603 -0.1407 -0.4259
  232loPI   GL1 3701  15.334  16.581   9.507 -0.1690 -0.4112  0.4322
  232loPI   GL2 3702  15.397  16.234   9.454  0.0460  0.0425  0.0104
  232loPI   C1A 3703  15.045  16.768   9.196  0.2611 -0.1878 -0.0197
  232loPI   C2A 3704  15.057  16.655   8.815 -0.1348 -0.1839 -0.2383
  232loPI   C3A 3705  15.275  16.690   8.381  0.0911 -0.0158 -0.0894
  232loPI   C4A 3706  15.533  16.938   8.021  0.2330 -0.0868 -0.1641
  232loPI   C5A 3707  15.581  17.054   7.538 -0.0026 -0.1337 -0.2279
  232loPI   C6A 3708  15.468  16.963   7.112 -0.2116 -0.0074 -0.1806
  232loPI   C1B 3709  15.137  15.901   9.307 -0.2262  0.2078  0.1148
  232loPI   C2B 3710  15.423  15.854   8.980  0.1941 -0.0462  0.1534
  232loPI   C3B 3711  15.555  15.585   8.749 -0.3435  0.2888 -0.1302
  232loPI   C4B 3712  15.854  15.517   8.279  0.0991  0.0414 -0.0011
  233loPI    C1 3713  18.184   7.966  10.153  0.0532  0.0302  0.0463
  233loPI    C2 3714  18.443   7.691  10.284 -0.0850 -0.1081  0.0328
  233loPI    C3 3715  18.111   7.768  10.493 -0.0908 -0.0153 -0.0103
  233loPI   PO4 3716  18.138   7.951   9.914  0.1556 -0.1360 -0.2821
  233loPI   GL1 3717  18.376   7.833   9.594  0.2865  0.0442 -0.0178
  233loPI   GL2 3718  18.587   8.061   9.367  0.3575 -0.1169 -0.1091
  233loPI   C1A 3719  18.379   7.597   9.244 -0.0519 -0.0900 -0.0706
  233loPI   C2A 3720  18.041   7.537   8.843 -0.0570  0.0279 -0.0376
  233loPI   C3A 3721  17.724   7.453   8.604  0.0815  0.0483 -0.0089
  233loPI   C4A 3722  17.487   7.208   8.425  0.0650 -0.1378  0.0558
  233loPI   C5A 3723  17.531   7.010   7.979  0.0693  0.1932  0.4618
  233loPI   C6A 3724  17.635   7.196   7.538  0.2570 -0.0763  0.1165
  233loPI   C1B 3725  18.715   8.031   8.978 -0.1585 -0.0745  0.1857
  233loPI   C2B 3726  18.334   7.912   8.753  0.0341  0.0818  0.1415
  233loPI   C3B 3727  18.065   7.914   8.458 -0.0243  0.1565 -0.0687
  233loPI   C4B 3728  18.091   8.148   8.047  0.1034  0.3261  0.1107
  234loPI    C1 3729   1.607  14.456  10.109  0.1106  0.2468  0.0096
  234loPI    C2 3730   1.300  14.488  10.363 -0.1316 -0.0380 -0.2406
  234loPI    C3 3731   1.587  14.217  10.429 -0.0687  0.0509 -0.1458
  234loPI   PO4 3732   1.462  14.420   9.797 -0.0687 -0.1135 -0.1458
  234loPI   GL1 3733   1.753  14.588   9.438  0.0327  0.0575 -0.1554
  234loPI   GL2 3734   1.769  14.202   9.483 -0.0037  0.1944  0.0226
  234loPI   C1A 3735   1.999  14.515   9.021  0.2842  0.1768 -0.0721
  234loPI   C2A 3736   2.071  14.247   8.720 -0.1195  0.3714 -0.0220
  234loPI   C3A 3737   2.022  14.352   8.222  0.6184 -0.0383  0.3595
  234loPI   C4A 3738   1.870  14.659   7.895 -0.0270  0.0556 -0.2477
  234loPI   C5A 3739   1.976  15.067   7.772  0.2887  0.1823 -0.1217
  234loPI   C6A 3740   2.287  15.382   7.672  0.1259  0.2597  0.0464
  234loPI   C1B 3741   1.439  14.369   9.153 -0.1052 -0.1039  0.0771
  234loPI   C2B 3742   1.283  14.607   8.792 -0.0764 -0.0074 -0.2405
  234loPI   C3B 3743   1.297  14.422   8.349  0.1224 -0.4204 -0.0678
  234loPI   C4B 3744   1.525  14.395   8.085  0.2045 -0.0173 -0.3949
  235loPI    C1 3745  16.900   3.210  10.110  0.1991 -0.1657 -0.1248
  235loPI    C2 3746  16.558   3.066  10.257 -0.0011  0.2380 -0.1809
  235loPI    C3 3747  16.758   3.348  10.457  0.2406  0.0871 -0.2059
  235loPI   PO4 3748  16.950   2.911   9.979 -0.0652  0.0364  0.3509
  235loPI   GL1 3749  16.846   2.637   9.695 -0.2400 -0.0640 -0.1579
  235loPI   GL2 3750  17.144   2.626   9.564  0.1591  0.4191 -0.0053
  235loPI   C1A 3751  16.786   2.490   9.182  0.0767 -0.0479 -0.1119
  235loPI   C2A 3752  16.475   2.588   8.788 -0.2187  0.2763 -0.1412
  235loPI   C3A 3753  16.364   2.823   8.435 -0.0590 -0.0339  0.2195
  235loPI   C4A 3754  16.306   2.963   8.082  0.0297  0.2242  0.1162
  235loPI   C5A 3755  16.130   2.883   7.742 -0.1901  0.3469  0.1537
  235loPI   C6A 3756  15.817   3.087   7.578 -0.0156 -0.1668 -0.0097
  235loPI   C1B 3757  17.276   2.411   9.112  0.0992 -0.2475 -0.0240
  235loPI   C2B 3758  17.270   2.366   8.622 -0.3158  0.1697 -0.1398
  235loPI   C3B 3759  17.160   2.152   8.182 -0.4200 -0.0438 -0.1464
  235loPI   C4B 3760  17.078   1.986   7.696  0.0118  0.1729  0.0240
  236loPI    C1 3761   1.726   8.304   9.800  0.0582  0.0196  0.1213
  236loPI    C2 3762   1.340   8.400   9.843  0.0946  0.0028  0.5275
  236loPI    C3 3763   1.450   8.016   9.822  0.0946  0.0064  0.4578
  236loPI   PO4 3764   1.852   8.478   9.630  0.0910 -0.0621 -0.1489
  236loPI   GL1 3765   1.731   8.782   9.318 -0.0767  0.3127 -0.2448
  236loPI   GL2 3766   1.455   8.490   9.321  0.1411  0.2455 -0.1709
  236loPI   C1A 3767   1.450   8.814   8.908  0.0593 -0.1074 -0.1518
  236loPI   C2A 3768   1.261   9.185   8.667 -0.0636 -0.0582  0.1929
  236loPI   C3A 3769   1.264   9.561   8.385  0.1867 -0.2261 -0.0452
  236loPI   C4A 3770   1.136   9.718   7.989  0.2568 -0.1175 -0.2881
  236loPI   C5A 3771   1.048  10.036   7.677  0.0060 -0.0440  0.0005
  236loPI   C6A 3772   1.239  10.446   7.789 -0.4513 -0.0679 -0.0601
  236loPI   C1B 3773   1.732   8.248   9.012 -0.1357 -0.0768  0.0541
  236loPI   C2B 3774   1.681   8.198   8.615  0.1816 -0.3746  0.0474
  236loPI   C3B 3775   1.612   8.311   8.222  0.1994 -0.1947  0.1908
  236loPI   C4B 3776   1.803   8.253   7.856 -0.3319 -0.2073  0.0265
  237loPI    C1 3777  17.231   8.699  10.250  0.0736  0.2862 -0.0993
  237loPI    C2 3778  17.546   8.498  10.393 -0.2891 -0.2991 -0.0868
  237loPI    C3 3779  17.282   8.663  10.645  0.1162  0.4018 -0.0939
  237loPI   PO4 3780  17.187   8.579  10.019  0.2343  0.1194 -0.4518
  237loPI   GL1 3781  17.253   8.567   9.639 -0.3404 -0.2515  0.1155
  237loPI   GL2 3782  17.453   8.706   9.513  0.2054  0.1392 -0.2570
  237loPI   C1A 3783  17.378   8.270   9.283  0.0971 -0.1981 -0.0549
  237loPI   C2A 3784  17.438   8.361   8.853  0.0934 -0.0137  0.1885
  237loPI   C3A 3785  17.343   8.528   8.457 -0.0295 -0.1469 -0.0396
  237loPI   C4A 3786  17.232   8.570   7.966  0.0513 -0.2417  0.0328
  237loPI   C5A 3787  17.440   8.548   7.622  0.0013 -0.0000  0.3466
  237loPI   C6A 3788  17.670   8.246   7.657 -0.1645 -0.0195  0.1722
  237loPI   C1B 3789  17.347   8.955   9.264 -0.2396  0.0437 -0.0260
  237loPI   C2B 3790  17.315   8.943   8.821 -0.3851  0.1047 -0.1445
  237loPI   C3B 3791  17.062   9.107   8.518 -0.1161  0.2430 -0.1398
  237loPI   C4B 3792  17.091   9.156   8.069 -0.0992  0.0817  0.1792
  238loPI    C1 3793  13.230  10.079  10.635 -0.2265 -0.0239 -0.1935
  238loPI    C2 3794  13.507   9.857  10.818 -0.1782  0.0572 -0.1674
  238loPI    C3 3795  13.122   9.826  10.925 -0.1236  0.2621  0.1016
  238loPI   PO4 3796  13.294  10.140  10.385 -0.1084  0.0103 -0.1534
  238loPI   GL1 3797  13.103  10.227   9.999  0.2878 -0.2108 -0.0351
  238loPI   GL2 3798  13.291  10.504   9.753  0.0715  0.1281 -0.0242
  238loPI   C1A 3799  13.218   9.951   9.705 -0.1947 -0.3282 -0.1737
  238loPI   C2A 3800  13.098   9.957   9.212 -0.2668  0.1028 -0.1323
  238loPI   C3A 3801  12.949  10.034   8.737 -0.1546  0.0604  0.1290
  238loPI   C4A 3802  13.014   9.985   8.332 -0.1658 -0.1016 -0.2960
  238loPI   C5A 3803  12.948   9.599   8.087  0.0914 -0.2004 -0.0953
  238loPI   C6A 3804  12.802   9.397   7.771  0.0408  0.1912  0.0220
  238loPI   C1B 3805  13.462  10.283   9.389 -0.2978  0.0289 -0.0773
  238loPI   C2B 3806  13.486  10.145   8.977 -0.3460 -0.1873  0.4436
  238loPI   C3B 3807  13.451  10.121   8.571  0.0319 -0.0555 -0.0508
  238loPI   C4B 3808  13.461   9.823   8.209 -0.1550  0.1536  0.0223
  239loPI    C1 3809  13.387   5.357  10.459 -0.1892  0.3971 -0.1952
  239loPI    C2 3810  13.184   5.359  10.804  0.0170  0.0376 -0.0668
  239loPI    C3 3811  13.346   5.697  10.665 -0.0268  0.1758  0.2127
  239loPI   PO4 3812  13.192   5.197  10.324 -0.0419  0.0887 -0.0515
  239loPI   GL1 3813  13.220   4.924   9.892  0.1013  0.1466 -0.3976
  239loPI   GL2 3814  13.540   4.995   9.901  0.0367 -0.1633 -0.0603
  239loPI   C1A 3815  13.185   5.020   9.525  0.0489  0.2016  0.0430
  239loPI   C2A 3816  13.123   5.084   9.096 -0.1488 -0.2370 -0.0165
  239loPI   C3A 3817  13.003   4.964   8.576  0.2216 -0.0059  0.0493
  239loPI   C4A 3818  13.095   4.845   8.201 -0.4674 -0.1212  0.1410
  239loPI   C5A 3819  13.515   4.694   8.001  0.1287  0.3313  0.1071
  239loPI   C6A 3820  13.677   4.526   7.587 -0.2075 -0.4118 -0.1307
  239loPI   C1B 3821  13.716   5.109   9.556  0.0553 -0.0023 -0.0477
  239loPI   C2B 3822  13.594   5.198   9.242  0.0935  0.2007 -0.0788
  239loPI   C3B 3823  13.567   5.156   8.851 -0.0520  0.0357  0.0103
  239loPI   C4B 3824  13.488   5.127   8.450  0.1219  0.0686 -0.2631
  240loPI    C1 3825   1.549   9.986  10.019  0.1212  0.0181  0.0114
  240loPI    C2 3826   1.203  10.021  10.217 -0.0300  0.0133 -0.2484
  240loPI    C3 3827   1.504  10.272  10.295  0.1229 -0.3494  0.4035
  240loPI   PO4 3828   1.503  10.106   9.767 -0.1097  0.1940  0.0999
  240loPI   GL1 3829   1.310   9.956   9.342  0.1806 -0.3563  0.1112
  240loPI   GL2 3830   1.152  10.277   9.361  0.0400  0.0759  0.4351
  240loPI   C1A 3831   1.304   9.608   9.061  0.2387 -0.3123 -0.1708
  240loPI   C2A 3832   1.776   9.594   8.832  0.0584 -0.1173  0.1046
  240loPI   C3A 3833   1.725   9.360   8.457  0.0438  0.2529 -0.1212
  240loPI   C4A 3834   1.975   9.173   8.107  0.0029 -0.2400  0.1085
  240loPI   C5A 3835   2.023   9.171   7.795 -0.1867  0.0517 -0.0108
  240loPI   C6A 3836   2.201   9.605   7.552  0.1688  0.3624 -0.1032
  240loPI   C1B 3837   1.344  10.367   8.991  0.0512  0.1521 -0.2801
  240loPI   C2B 3838   1.314  10.132   8.627 -0.1926  0.2714 -0.0232
  240loPI   C3B 3839   1.672   9.933   8.302  0.0633 -0.1118  0.1480
  240loPI   C4B 3840   1.513  10.028   7.830 -0.1531 -0.2674 -0.0005
  241loPI    C1 3841  17.424  16.182  10.392  0.1984 -0.2216  0.1817
  241loPI    C2 3842  17.212  16.013  10.686 -0.0711 -0.0200  0.1073
  241loPI    C3 3843  17.426  16.343  10.758 -0.0867 -0.0066  0.0921
  241loPI   PO4 3844  17.282  16.240  10.177  0.1372 -0.0366  0.3258
  241loPI   GL1 3845  17.216  16.520   9.803  0.2168  0.2252  0.0250
  241loPI   GL2 3846  16.979  16.463   9.596 -0.1430  0.1852  0.3661
  241loPI   C1A 3847  17.307  16.688   9.353  0.0225  0.0198 -0.0413
  241loPI   C2A 3848  17.624  16.750   9.082  0.1216  0.1396 -0.2063
  241loPI   C3A 3849  17.937  16.826   8.860 -0.0480  0.0486 -0.0114
  241loPI   C4A 3850  17.991  16.674   8.472  0.3111  0.0341  0.4320
  241loPI   C5A 3851  17.911  16.538   8.042 -0.2679  0.1138 -0.4189
  241loPI   C6A 3852  18.053  16.744   7.684 -0.1901 -0.0687  0.1727
  241loPI   C1B 3853  16.808  16.447   9.233 -0.0099 -0.0440  0.1215
  241loPI   C2B 3854  16.760  16.336   8.885 -0.1688 -0.1642 -0.2287
  241loPI   C3B 3855  16.815  16.502   8.411 -0.1912  0.0873  0.0908
  241loPI   C4B 3856  16.720  16.628   7.992  0.1055 -0.3446  0.1444
  242loPI    C1 3857  12.265  16.639  10.269  0.0147  0.0283 -0.0734
  242loPI    C2 3858  12.073  16.303  10.370 -0.2504  0.1368 -0.2076
  242loPI    C3 3859  12.014  16.638  10.581  0.1156  0.0698  0.0086
  242loPI   PO4 3860  12.181  16.642   9.926  0.3259  0.2345 -0.2220
  242loPI   GL1 3861  12.078  16.444   9.505 -0.4285 -0.0008 -0.0278
  242loPI   GL2 3862  12.072  16.138   9.419  0.0203  0.1664  0.0035
  242loPI   C1A 3863  12.082  16.510   9.126  0.1366 -0.0509  0.0017
  242loPI   C2A 3864  12.010  16.678   8.679  0.2301  0.0574 -0.1501
  242loPI   C3A 3865  11.788  16.562   8.405  0.2157 -0.0963 -0.1066
  242loPI   C4A 3866  11.565  16.140   8.136  0.0919 -0.1637 -0.1671
  242loPI   C5A 3867  11.510  16.027   7.694  0.0872  0.0560 -0.1065
  242loPI   C6A 3868  11.323  15.734   7.484  0.1162 -0.3627  0.0091
  242loPI   C1B 3869  12.106  16.067   8.923  0.0981  0.2812  0.1755
  242loPI   C2B 3870  12.136  16.075   8.420  0.1405 -0.3066 -0.2917
  242loPI   C3B 3871  12.082  16.212   8.091  0.2451 -0.1660  0.0529
  242loPI   C4B 3872  12.221  16.088   7.679  0.0511 -0.3508  0.0713
  243loPI    C1 3873  17.278   6.963   9.895 -0.1278  0.0974 -0.1181
  243loPI    C2 3874  17.388   6.788  10.238  0.0208  0.0491 -0.1895
  243loPI    C3 3875  17.016   6.930  10.196 -0.0094  0.0213 -0.0225
  243loPI   PO4 3876  17.440   6.785   9.740  0.0766 -0.1518  0.2324
  243loPI   GL1 3877  17.377   6.546   9.413  0.0345 -0.2070 -0.3405
  243loPI   GL2 3878  17.157   6.794   9.300  0.3734  0.0278  0.0775
  243loPI   C1A 3879  17.256   6.480   8.979  0.3974 -0.1643 -0.0417
  243loPI   C2A 3880  17.203   6.503   8.538 -0.1407  0.2234 -0.2465
  243loPI   C3A 3881  17.314   6.434   8.051  0.3146 -0.1135 -0.1709
  243loPI   C4A 3882  17.458   6.541   7.673  0.1981 -0.5187 -0.0362
  243loPI   C5A 3883  17.136   6.734   7.448 -0.0234 -0.0608 -0.2013
  243loPI   C6A 3884  16.785   6.651   7.339  0.0640  0.1939  0.3263
  243loPI   C1B 3885  17.216   6.946   8.824  0.0808  0.1403  0.3185
  243loPI   C2B 3886  17.077   6.955   8.386 -0.0497  0.0527 -0.0431
  243loPI   C3B 3887  17.023   6.854   7.991  0.4880 -0.0630 -0.0015
  243loPI   C4B 3888  16.949   7.198   7.575  0.1782 -0.0379 -0.0401
  244loPI    C1 3889   6.749  17.619  10.835 -0.2873 -0.3540 -0.1527
  244loPI    C2 3890   6.951  17.312  10.994  0.0190 -0.0986 -0.0388
  244loPI    C3 3891   6.615  17.441  11.167 -0.0950 -0.3488 -0.0706
  244loPI   PO4 3892   6.982  17.643  10.617 -0.0544  0.4077 -0.1387
  244loPI   GL1 3893   7.023  17.910  10.235  0.0512 -0.1586  0.0974
  244loPI   GL2 3894   7.055  17.622  10.166  0.4174  0.1666  0.3276
  244loPI   C1A 3895   6.910  18.003   9.847  0.1364  0.0306 -0.1391
  244loPI   C2A 3896   6.951  18.028   9.425 -0.0206 -0.5520 -0.0578
  244loPI   C3A 3897   6.944  17.956   8.933  0.0362 -0.0420 -0.1703
  244loPI   C4A 3898   7.002  17.871   8.546 -0.3477 -0.2395  0.1272
  244loPI   C5A 3899   6.995  17.968   8.160  0.0618 -0.1358  0.0664
  244loPI   C6A 3900   7.068  17.965   7.745 -0.0840 -0.1246 -0.2350
  244loPI   C1B 3901   7.236  17.582   9.728  0.4401 -0.1780  0.2269
  244loPI   C2B 3902   7.349  17.524   9.352 -0.0839 -0.0911  0.2134
  244loPI   C3B 3903   7.315  17.473   8.939  0.2655 -0.0388 -0.1249
  244loPI   C4B 3904   7.313  17.456   8.492  0.1203  0.1332 -0.2942
  245loPI    C1 3905  14.421   3.802  10.481 -0.0806  0.0302  0.0434
  245loPI    C2 3906  14.451   4.118  10.724  0.2403  0.1701 -0.1717
  245loPI    C3 3907  14.192   3.826  10.808  0.1237  0.3653  0.1675
  245loPI   PO4 3908  14.428   3.923  10.211  0.1396  0.0072  0.1975
  245loPI   GL1 3909  14.604   4.153   9.779 -0.0495  0.0224  0.2190
  245loPI   GL2 3910  14.314   4.348   9.606  0.2608  0.3141 -0.3707
  245loPI   C1A 3911  14.781   4.342   9.402 -0.1944 -0.3969  0.1697
  245loPI   C2A 3912  14.774   4.416   8.968 -0.3903  0.0315 -0.2071
  245loPI   C3A 3913  14.724   4.310   8.511 -0.0797 -0.2728 -0.2155
  245loPI   C4A 3914  14.781   3.974   8.282  0.1464  0.1287 -0.1537
  245loPI   C5A 3915  14.537   3.909   7.788  0.1975  0.0817 -0.2135
  245loPI   C6A 3916  14.817   3.875   7.461 -0.1937 -0.0950  0.1982
  245loPI   C1B 3917  14.342   4.337   9.127  0.0513  0.0258  0.1822
  245loPI   C2B 3918  14.274   4.274   8.714 -0.4268  0.0550  0.0922
  245loPI   C3B 3919  14.266   4.297   8.250 -0.1440 -0.0215 -0.0210
  245loPI   C4B 3920  14.495   4.419   7.960 -0.1145 -0.0686 -0.0508
  246loPI    C1 3921  14.058   8.749  10.160  0.0261  0.0136 -0.1485
  246loPI    C2 3922  14.239   8.800  10.514  0.1453  0.1107 -0.2224
  246loPI    C3 3923  13.886   8.611  10.494  0.1587  0.0669 -0.0573
  246loPI   PO4 3924  14.197   8.988  10.009  0.1461  0.1491  0.0871
  246loPI   GL1 3925  14.161   9.277   9.638 -0.1109 -0.1389  0.0494
  246loPI   GL2 3926  14.257   8.951   9.514  0.0332 -0.1028  0.5574
  246loPI   C1A 3927  14.234   9.485   9.167 -0.0970 -0.1344 -0.0260
  246loPI   C2A 3928  14.348   9.174   8.815  0.1799  0.1460  0.1146
  246loPI   C3A 3929  14.553   9.343   8.511 -0.0899  0.3042 -0.1373
  246loPI   C4A 3930  14.698   9.652   8.188 -0.1615  0.0250 -0.5128
  246loPI   C5A 3931  14.960   9.981   8.076  0.1198  0.3096 -0.1248
  246loPI   C6A 3932  15.420   9.962   8.189  0.1589 -0.4652 -0.0564
  246loPI   C1B 3933  14.160   8.741   9.141 -0.1660 -0.1212 -0.0387
  246loPI   C2B 3934  14.014   8.568   8.834  0.4370  0.0594 -0.0155
  246loPI   C3B 3935  13.778   8.675   8.390  0.0623  0.1270 -0.5200
  246loPI   C4B 3936  13.571   8.802   7.964  0.3948  0.1958 -0.2029
  247loPI    C1 3937   2.618   8.247  10.209  0.0360  0.1126  0.3277
  247loPI    C2 3938   2.994   8.189  10.331  0.1320 -0.0752 -0.0432
  247loPI    C3 3939   2.697   8.206  10.599  0.4041  0.0961  0.2541
  247loPI   PO4 3940   2.633   8.118  10.035  0.1926 -0.0198  0.0592
  247loPI   GL1 3941   2.856   8.381   9.696 -0.1349 -0.0868 -0.0456
  247loPI   GL2 3942   3.042   8.104   9.637 -0.0257  0.0586 -0.0746
  247loPI   C1A 3943   2.840   8.291   9.206  0.3362  0.1371  0.2435
  247loPI   C2A 3944   3.001   8.118   8.815 -0.0051  0.0427  0.1462
  247loPI   C3A 3945   2.943   8.256   8.393  0.2517  0.1180 -0.1238
  247loPI   C4A 3946   3.196   8.415   8.020 -0.0769 -0.1381 -0.0229
  247loPI   C5A 3947   3.478   8.383   7.838  0.0260  0.0039  0.2144
  247loPI   C6A 3948   3.822   8.274   7.630  0.2473 -0.3510 -0.0337
  247loPI   C1B 3949   3.362   8.064   9.219 -0.0305 -0.2623 -0.0638
  247loPI   C2B 3950   3.587   7.964   8.828 -0.0866 -0.1793 -0.2653
  247loPI   C3B 3951   3.327   7.887   8.415 -0.0162  0.0316  0.0916
  247loPI   C4B 3952   3.027   7.934   8.021  0.0100 -0.3846  0.2202
  248loPI    C1 3953  17.949  14.783  10.164 -0.1342 -0.2402 -0.0398
  248loPI    C2 3954  17.672  14.827   9.879  0.1263 -0.0628 -0.2707
  248loPI    C3 3955  17.772  15.138  10.110 -0.2256 -0.2550  0.1536
  248loPI   PO4 3956  18.146  14.673  10.032 -0.2776 -0.0056  0.1183
  248loPI   GL1 3957  18.284  14.510   9.689  0.0309  0.1346  0.3910
  248loPI   GL2 3958  18.612  14.521   9.607  0.0916 -0.0418 -0.0256
  248loPI   C1A 3959  18.047  14.516   9.381 -0.0868  0.0239  0.0679
  248loPI   C2A 3960  17.843  14.491   8.996  0.0758  0.2301 -0.0041
  248loPI   C3A 3961  18.021  14.431   8.496 -0.4880 -0.2204 -0.0310
  248loPI   C4A 3962  17.936  14.425   8.154  0.1572  0.1470  0.1151
  248loPI   C5A 3963  17.867  14.050   7.847 -0.1777  0.1099 -0.0116
  248loPI   C6A 3964  17.997  13.934   7.396  0.0172 -0.0943  0.0534
  248loPI   C1B 3965  18.501  14.309   9.241 -0.2537  0.1914 -0.2254
  248loPI   C2B 3966  18.376  14.605   8.945 -0.0734  0.0738 -0.1313
  248loPI   C3B 3967  18.587  14.835   8.638  0.3593 -0.0521 -0.1581
  248loPI   C4B 3968  18.875  14.908   8.354 -0.2334 -0.2153  0.3054
  249loPI    C1 3969   3.982   9.842   9.973 -0.3015  0.0419 -0.0565
  249loPI    C2 3970   4.140  10.014  10.297  0.0751 -0.1772 -0.1188
  249loPI    C3 3971   3.754   9.911  10.294  0.0681 -0.1765  0.2618
  249loPI   PO4 3972   4.207   9.652   9.963  0.0361 -0.0942  0.3927
  249loPI   GL1 3973   4.314   9.728   9.551  0.0355 -0.1778 -0.1338
  249loPI   GL2 3974   4.487   9.458   9.546 -0.2098  0.2420  0.2767
  249loPI   C1A 3975   4.148   9.663   9.215  0.5251 -0.2667  0.0567
  249loPI   C2A 3976   4.310   9.562   8.832 -0.2823 -0.1361  0.0558
  249loPI   C3A 3977   4.214   9.706   8.471  0.3156  0.2429  0.1362
  249loPI   C4A 3978   4.339   9.569   8.184 -0.0174 -0.1537  0.3026
  249loPI   C5A 3979   4.497   9.485   7.747  0.1839  0.0385  0.0295
  249loPI   C6A 3980   4.731   9.391   7.413 -0.0655  0.2943 -0.1880
  249loPI   C1B 3981   4.682   9.356   9.105 -0.2290 -0.2561  0.3709
  249loPI   C2B 3982   4.902   9.318   8.754  0.2435  0.1829  0.0694
  249loPI   C3B 3983   5.025   9.524   8.344 -0.0329  0.0662  0.0800
  249loPI   C4B 3984   4.935   9.456   7.911 -0.2800 -0.0677  0.0012
  250loPI    C1 3985   4.954   3.258  10.132 -0.0229 -0.1820 -0.2003
  250loPI    C2 3986   4.822   2.882  10.167 -0.2339 -0.0968 -0.0591
  250loPI    C3 3987   4.987   3.066  10.481  0.0143 -0.1233 -0.1716
  250loPI   PO4 3988   4.866   3.316   9.841  0.1715  0.0881 -0.3729
  250loPI   GL1 3989   4.716   3.134   9.417  0.0108  0.0749 -0.0110
  250loPI   GL2 3990   4.354   2.983   9.517  0.0387  0.0354 -0.1063
  250loPI   C1A 3991   4.750   2.832   9.041  0.0728 -0.3124 -0.0633
  250loPI   C2A 3992   4.786   2.753   8.596 -0.0576  0.3497  0.1018
  250loPI   C3A 3993   4.894   2.731   8.137 -0.0116 -0.1298  0.0058
  250loPI   C4A 3994   5.029   2.654   7.724  0.0759 -0.1068 -0.0323
  250loPI   C5A 3995   5.205   2.812   7.364 -0.3385 -0.0878 -0.1120
  250loPI   C6A 3996   5.031   2.846   6.915  0.0272 -0.1433  0.1245
  250loPI   C1B 3997   4.238   2.868   9.176  0.2237 -0.0657  0.0102
  250loPI   C2B 3998   4.294   2.728   8.787  0.1204  0.0070  0.4167
  250loPI   C3B 3999   4.188   2.680   8.321  0.1571  0.0533 -0.0974
  250loPI   C4B 4000   4.044   2.442   7.980 -0.0176  0.4398  0.1667
  251loPI    C1 4001  10.860  16.490  10.389  0.0494  0.2233 -0.0284
  251loPI    C2 4002  11.013  16.239  10.661 -0.3377  0.0173  0.0053
  251loPI    C3 4003  11.193  16.589  10.589  0.0221 -0.1230  0.1969
  251loPI   PO4 4004  10.825  16.379  10.204 -0.2449 -0.0638  0.3396
  251loPI   GL1 4005  10.819  16.522   9.774  0.1862 -0.0363  0.0820
  251loPI   GL2 4006  10.906  16.774   9.614  0.1720 -0.0668  0.0336
  251loPI   C1A 4007  10.700  16.389   9.347 -0.3652 -0.0340  0.0296
  251loPI   C2A 4008  10.668  16.120   8.988  0.0336 -0.0222 -0.2416
  251loPI   C3A 4009  10.644  15.980   8.559  0.1686 -0.1154  0.0640
  251loPI   C4A 4010  10.679  15.908   8.120  0.0654 -0.0121  0.0424
  251loPI   C5A 4011  10.640  15.763   7.662 -0.0578  0.2343 -0.2943
  251loPI   C6A 4012  10.864  15.466   7.559 -0.1543  0.3458 -0.0030
  251loPI   C1B 4013  11.176  16.606   9.299  0.0756  0.3327  0.3075
  251loPI   C2B 4014  11.016  16.437   8.872  0.4135 -0.0569  0.0406
  251loPI   C3B 4015  11.054  16.329   8.392  0.2224  0.0429  0.0069
  251loPI   C4B 4016  11.056  16.195   7.957 -0.3717  0.1580  0.0535
  252loPI    C1 4017   4.300  12.813  10.051  0.2615  0.3561  0.1660
  252loPI    C2 4018   4.638  12.780  10.263  0.1038  0.2557  0.4064
  252loPI    C3 4019   4.283  12.752  10.446 -0.0365  0.4122  0.1644
  252loPI   PO4 4020   4.388  12.908   9.799 -0.2065  0.0405  0.1431
  252loPI   GL1 4021   4.776  12.787   9.561 -0.0142 -0.0789 -0.1510
  252loPI   GL2 4022   4.753  12.637   9.336  0.0475  0.0788  0.2187
  252loPI   C1A 4023   4.939  13.119   9.386 -0.2866 -0.1159 -0.0126
  252loPI   C2A 4024   5.034  13.350   8.976  0.0146  0.2940 -0.2957
  252loPI   C3A 4025   5.042  13.488   8.569  0.2232  0.2464 -0.3192
  252loPI   C4A 4026   4.682  13.516   8.237 -0.4788 -0.1586  0.0010
  252loPI   C5A 4027   4.321  13.368   8.173 -0.2881  0.1029 -0.0302
  252loPI   C6A 4028   3.922  13.311   8.023 -0.2266 -0.2180 -0.0524
  252loPI   C1B 4029   4.637  12.870   9.037 -0.1854  0.0575 -0.0356
  252loPI   C2B 4030   4.178  12.918   8.864  0.0189  0.0548  0.3069
  252loPI   C3B 4031   4.098  12.988   8.516 -0.2269 -0.0273 -0.2317
  252loPI   C4B 4032   3.676  12.870   8.330 -0.0142 -0.4110 -0.0059
  253loPI    C1 4033  13.018   0.036  10.265  0.0307  0.2187  0.0930
  253loPI    C2 4034  12.969  -0.187  10.594  0.0542  0.0743 -0.0004
  253loPI    C3 4035  13.212   0.131  10.602  0.2043 -0.0408  0.0685
  253loPI   PO4 4036  12.655   0.049  10.187 -0.3529 -0.1914  0.0679
  253loPI   GL1 4037  12.395   0.131   9.834  0.0772  0.0458  0.0441
  253loPI   GL2 4038  12.398   0.392   9.823  0.1235  0.0473 -0.1956
  253loPI   C1A 4039  12.402  -0.034   9.413 -0.1272 -0.0660  0.0505
  253loPI   C2A 4040  12.281   0.063   8.998  0.2444  0.3289 -0.0095
  253loPI   C3A 4041  12.246   0.030   8.632 -0.3111  0.0758 -0.0160
  253loPI   C4A 4042  12.271   0.120   8.266 -0.0930  0.1947 -0.0275
  253loPI   C5A 4043  12.148   0.190   7.812 -0.0064  0.0711  0.1150
  253loPI   C6A 4044  11.909  -0.006   7.477  0.0907  0.0561 -0.0397
  253loPI   C1B 4045  12.154   0.401   9.373 -0.1136  0.0542 -0.1505
  253loPI   C2B 4046  12.069   0.505   8.984 -0.0439  0.0290  0.0480
  253loPI   C3B 4047  12.057   0.517   8.566  0.1473  0.0885  0.3491
  253loPI   C4B 4048  11.950   0.564   8.173  0.1764 -0.0786 -0.1566
  254loPI    C1 4049   0.796   9.929   9.858 -0.1410  0.1089 -0.0594
  254loPI    C2 4050   1.153   9.771   9.768 -0.0927  0.1451  0.0675
  254loPI    C3 4051   0.927   9.607  10.055 -0.2809 -0.0164 -0.1685
  254loPI   PO4 4052   0.633   9.947   9.620 -0.0471 -0.2983  0.0324
  254loPI   GL1 4053   0.648   9.690   9.202 -0.1002 -0.2031  0.0729
  254loPI   GL2 4054   0.866   9.872   9.214 -0.0161 -0.3871  0.0400
  254loPI   C1A 4055   0.418   9.861   8.923 -0.1605  0.1888  0.0960
  254loPI   C2A 4056   0.249   9.921   8.502  0.1382  0.1673  0.0188
  254loPI   C3A 4057   0.115   9.736   8.086 -0.2560 -0.0795  0.0069
  254loPI   C4A 4058   0.004   9.519   7.729  0.0940 -0.1110  0.0684
  254loPI   C5A 4059  -0.168   9.771   7.421  0.0371 -0.0526  0.1531
  254loPI   C6A 4060  -0.455  10.080   7.127  0.4004  0.1669 -0.0978
  254loPI   C1B 4061   0.901  10.121   8.939  0.0201  0.0140  0.1494
  254loPI   C2B 4062   0.922  10.401   8.585 -0.4278 -0.0317  0.0437
  254loPI   C3B 4063   1.048  10.678   8.240 -0.2477  0.1063  0.0976
  254loPI   C4B 4064   0.930  10.967   7.881 -0.0852 -0.5015  0.0158
  255loPI    C1 4065   6.626   7.190   9.915  0.0470  0.1288 -0.0517
  255loPI    C2 4066   6.883   6.932  10.079 -0.1012 -0.0295 -0.0646
  255loPI    C3 4067   6.528   6.997  10.251  0.0164  0.3252  0.0538
  255loPI   PO4 4068   6.659   7.078   9.606 -0.1765 -0.2450 -0.0416
  255loPI   GL1 4069   6.908   7.259   9.261  0.1299  0.0710  0.3084
  255loPI   GL2 4070   6.782   7.036   9.079 -0.1209  0.2020  0.0775
  255loPI   C1A 4071   7.184   7.011   8.843  0.1872  0.1603 -0.0116
  255loPI   C2A 4072   7.232   6.983   8.451  0.1635  0.5165  0.0568
  255loPI   C3A 4073   7.065   6.812   8.097  0.0838 -0.3138 -0.2666
  255loPI   C4A 4074   7.042   6.645   7.605 -0.3253  0.0248 -0.1243
  255loPI   C5A 4075   7.440   6.462   7.312 -0.0044 -0.1371  0.1138
  255loPI   C6A 4076   7.884   6.515   7.329 -0.0985  0.0013  0.3600
  255loPI   C1B 4077   6.666   7.190   8.688  0.2003 -0.1431  0.1106
  255loPI   C2B 4078   6.696   7.077   8.283  0.0864 -0.0936  0.1373
  255loPI   C3B 4079   6.717   7.189   7.944 -0.0741  0.0593 -0.0481
  255loPI   C4B 4080   6.478   7.161   7.542  0.1974 -0.0508 -0.1361
  256loPI    C1 4081  15.028   9.501  10.410  0.1622  0.3781 -0.0428
  256loPI    C2 4082  14.684   9.507  10.615  0.1395 -0.2132 -0.0484
  256loPI    C3 4083  14.985   9.746  10.723 -0.1625  0.0852  0.1498
  256loPI   PO4 4084  14.980   9.508  10.158 -0.2444 -0.2756  0.1147
  256loPI   GL1 4085  14.974   9.707   9.841  0.1456 -0.3206 -0.0814
  256loPI   GL2 4086  15.339   9.673   9.788  0.2730 -0.1615  0.1860
  256loPI   C1A 4087  15.107   9.761   9.408 -0.0138 -0.0687  0.1452
  256loPI   C2A 4088  15.240   9.721   9.068  0.0466  0.0227  0.1036
  256loPI   C3A 4089  15.404   9.900   8.754 -0.1062  0.1108  0.3514
  256loPI   C4A 4090  15.683  10.026   8.602  0.0319 -0.1387  0.0198
  256loPI   C5A 4091  15.867   9.853   8.339  0.0722 -0.0406  0.1273
  256loPI   C6A 4092  16.175   9.472   8.230 -0.0950 -0.0023 -0.0495
  256loPI   C1B 4093  15.562   9.517   9.510  0.3543  0.1180 -0.0238
  256loPI   C2B 4094  15.712   9.594   9.031  0.2733 -0.2364 -0.1378
  256loPI   C3B 4095  15.511   9.434   8.551  0.1844  0.0539 -0.2283
  256loPI   C4B 4096  15.650   9.433   8.186 -0.0255 -0.1149 -0.0499
  257loPI    C1 4097  12.627   8.422  10.204 -0.0630  0.1528  0.1875
  257loPI    C2 4098  12.859   8.271  10.493 -0.0817  0.0261  0.1371
  257loPI    C3 4099  12.540   8.494  10.588 -0.1654 -0.1270  0.2192
  257loPI   PO4 4100  12.558   8.189  10.067 -0.0972  0.0828  0.1771
  257loPI   GL1 4101  12.457   8.026   9.725 -0.1230 -0.1371 -0.0370
  257loPI   GL2 4102  12.598   7.750   9.654  0.1274  0.2176  0.1232
  257loPI   C1A 4103  12.192   7.888   9.385  0.1055 -0.0835  0.0805
  257loPI   C2A 4104  11.976   8.217   9.182  0.2760 -0.3228 -0.1233
  257loPI   C3A 4105  11.936   8.266   8.722  0.0660 -0.3252  0.0738
  257loPI   C4A 4106  12.074   8.399   8.250 -0.0095  0.1885 -0.0261
  257loPI   C5A 4107  12.145   8.563   7.915 -0.1473 -0.0112  0.3621
  257loPI   C6A 4108  12.196   8.750   7.503 -0.0513  0.2817 -0.3734
  257loPI   C1B 4109  12.849   7.535   9.372 -0.1915 -0.2901 -0.1413
  257loPI   C2B 4110  13.076   7.552   9.005  0.1373  0.2776  0.0264
  257loPI   C3B 4111  13.195   7.876   8.767 -0.0323  0.1549  0.3932
  257loPI   C4B 4112  13.329   7.912   8.394 -0.0737  0.4518  0.0337
  258loPI    C1 4113   0.345  15.814  10.436 -0.2780 -0.0272  0.1853
  258loPI    C2 4114   0.291  15.435  10.552 -0.0399 -0.0242  0.3127
  258loPI    C3 4115   0.128  15.733  10.762  0.1954 -0.0313  0.5098
  258loPI   PO4 4116   0.370  15.724  10.063 -0.2988 -0.0204 -0.0141
  258loPI   GL1 4117   0.609  15.581   9.690  0.0622 -0.0295  0.1932
  258loPI   GL2 4118   0.265  15.556   9.578 -0.2534 -0.0084 -0.0716
  258loPI   C1A 4119   0.625  15.698   9.224 -0.2064 -0.0532 -0.6651
  258loPI   C2A 4120   0.841  15.751   8.856 -0.0838 -0.2769  0.0911
  258loPI   C3A 4121   0.865  15.477   8.517 -0.2510 -0.3127 -0.0177
  258loPI   C4A 4122   0.673  15.400   8.138 -0.1106 -0.0125 -0.0234
  258loPI   C5A 4123   0.310  15.274   8.055  0.2355  0.1392  0.3060
  258loPI   C6A 4124   0.080  14.941   7.892  0.1214  0.2207 -0.0804
  258loPI   C1B 4125   0.133  15.844   9.272  0.3971 -0.1858  0.0638
  258loPI   C2B 4126  -0.047  16.196   9.078  0.1406  0.1103  0.0476
  258loPI   C3B 4127  -0.265  16.393   8.681  0.2380 -0.2905  0.1262
  258loPI   C4B 4128  -0.094  16.233   8.221 -0.3204 -0.1151  0.1752
  259loPI    C1 4129   8.106  12.443  10.381  0.1636  0.0501  0.0573
  259loPI    C2 4130   7.821  12.180  10.480  0.1095  0.1554  0.1857
  259loPI    C3 4131   8.174  12.173  10.668  0.1554  0.0912  0.0981
  259loPI   PO4 4132   8.115  12.409  10.137  0.1449  0.0843 -0.3349
  259loPI   GL1 4133   8.324  12.632   9.879 -0.2206  0.0153  0.1552
  259loPI   GL2 4134   8.511  12.476   9.750  0.0476  0.0259 -0.0796
  259loPI   C1A 4135   8.510  12.963   9.515  0.2505  0.0672 -0.2548
  259loPI   C2A 4136   8.600  13.320   9.193  0.1364 -0.3125  0.0498
  259loPI   C3A 4137   8.436  13.486   8.729  0.1450  0.1697 -0.0375
  259loPI   C4A 4138   8.369  13.524   8.326 -0.1713  0.0641  0.1190
  259loPI   C5A 4139   8.534  13.600   7.868  0.0884  0.3351  0.3311
  259loPI   C6A 4140   8.686  13.507   7.610  0.2956  0.1823  0.1183
  259loPI   C1B 4141   8.650  12.418   9.365  0.1668 -0.1836  0.0082
  259loPI   C2B 4142   8.485  12.709   8.989  0.1718  0.1331  0.0489
  259loPI   C3B 4143   8.262  12.895   8.695  0.0344 -0.2880  0.1795
  259loPI   C4B 4144   8.047  13.086   8.324 -0.1426 -0.2336  0.0347
  260loPI    C1 4145  11.646   8.521  10.291  0.0298  0.1579 -0.0160
  260loPI    C2 4146  11.273   8.409  10.383  0.2148 -0.3405  0.1605
  260loPI    C3 4147  11.520   8.539  10.670  0.2815 -0.3303  0.0988
  260loPI   PO4 4148  11.714   8.331  10.021 -0.1845  0.0888 -0.1154
  260loPI   GL1 4149  11.479   8.314   9.616 -0.0674  0.2745  0.1087
  260loPI   GL2 4150  11.654   8.062   9.586 -0.0690 -0.1447  0.0476
  260loPI   C1A 4151  11.570   8.583   9.252 -0.0648  0.0295  0.0269
  260loPI   C2A 4152  11.635   8.689   8.829  0.0346 -0.2699 -0.0446
  260loPI   C3A 4153  11.593   8.567   8.374 -0.1810 -0.3770 -0.0745
  260loPI   C4A 4154  11.565   8.764   7.975  0.1190  0.1892  0.1787
  260loPI   C5A 4155  11.878   9.013   7.797 -0.0878  0.0781  0.0786
  260loPI   C6A 4156  12.009   9.321   7.951 -0.2006  0.0910  0.1106
  260loPI   C1B 4157  11.460   8.078   9.167 -0.2582  0.2609  0.0718
  260loPI   C2B 4158  11.375   7.979   8.714 -0.0402 -0.2080 -0.0672
  260loPI   C3B 4159  11.681   8.053   8.317 -0.1046  0.4010  0.0409
  260loPI   C4B 4160  11.889   7.965   8.004  0.1041 -0.0270  0.2607
  261loPI    C1 4161  18.754   9.769   9.842 -0.0419  0.1235  0.2662
  261loPI    C2 4162  18.654   9.382   9.870 -0.1211  0.0863 -0.3715
  261loPI    C3 4163  18.771   9.583  10.196 -0.2524 -0.4223  0.0022
  261loPI   PO4 4164  18.522   9.945   9.744 -0.0405  0.0559  0.0801
  261loPI   GL1 4165  18.420  10.219   9.402 -0.2624 -0.3470 -0.0181
  261loPI   GL2 4166  18.640  10.112   9.242 -0.3558  0.0642 -0.1957
  261loPI   C1A 4167  18.257  10.441   9.063 -0.0336  0.0672  0.1317
  261loPI   C2A 4168  18.267  10.534   8.671  0.1376 -0.1969  0.1914
  261loPI   C3A 4169  18.324  10.678   8.299  0.0642 -0.2491  0.0367
  261loPI   C4A 4170  18.119  10.851   7.888  0.1618 -0.1550 -0.3679
  261loPI   C5A 4171  17.852  10.947   7.422 -0.0020 -0.2350  0.0539
  261loPI   C6A 4172  17.541  11.280   7.457 -0.1397 -0.0533 -0.3879
  261loPI   C1B 4173  18.675  10.122   8.790 -0.0893 -0.1837 -0.2700
  261loPI   C2B 4174  18.608   9.929   8.427  0.1859 -0.1404  0.0093
  261loPI   C3B 4175  18.319   9.686   8.006  0.1910 -0.1201 -0.2552
  261loPI   C4B 4176  18.268   9.425   7.546 -0.1564 -0.0297 -0.3125
  262loPI    C1 4177  13.285   1.333  10.344 -0.0474 -0.0574 -0.0448
  262loPI    C2 4178  13.530   1.648  10.367 -0.0797 -0.0298 -0.0761
  262loPI    C3 4179  13.527   1.375  10.659  0.2318 -0.2095 -0.2346
  262loPI   PO4 4180  13.183   1.362  10.108 -0.1856  0.0571  0.0322
  262loPI   GL1 4181  13.268   1.654   9.849  0.3077 -0.0236 -0.1997
  262loPI   GL2 4182  13.298   2.015   9.576 -0.2759 -0.2784 -0.1940
  262loPI   C1A 4183  13.093   1.591   9.394 -0.0776  0.1452  0.2729
  262loPI   C2A 4184  13.056   1.493   8.950 -0.1625  0.0951 -0.0213
  262loPI   C3A 4185  13.138   1.402   8.552 -0.0530 -0.2179  0.0972
  262loPI   C4A 4186  13.080   1.321   8.107  0.2492 -0.2693 -0.0119
  262loPI   C5A 4187  12.913   1.307   7.675  0.0125 -0.0245 -0.0748
  262loPI   C6A 4188  12.957   1.448   7.327 -0.2393 -0.1528 -0.4748
  262loPI   C1B 4189  13.299   1.972   9.106 -0.0348 -0.1348  0.0834
  262loPI   C2B 4190  13.439   1.823   8.842  0.1277  0.0700 -0.1766
  262loPI   C3B 4191  13.454   1.831   8.519  0.1739 -0.1174  0.0743
  262loPI   C4B 4192  13.510   1.559   8.198 -0.0057  0.1409 -0.1650
  263loPI    C1 4193   7.856  11.907   9.996  0.0087 -0.1744  0.1437
  263loPI    C2 4194   7.989  11.538  10.075  0.0366 -0.2015 -0.0254
  263loPI    C3 4195   8.124  11.849  10.287 -0.0521 -0.2981  0.1763
  263loPI   PO4 4196   7.804  11.967   9.659 -0.0698 -0.0748 -0.2894
  263loPI   GL1 4197   7.813  11.901   9.256  0.0304 -0.0264 -0.1451
  263loPI   GL2 4198   8.177  11.884   9.114  0.1322  0.0423  0.2893
  263loPI   C1A 4199   7.587  11.948   8.865 -0.0562 -0.1075 -0.1083
  263loPI   C2A 4200   7.555  12.225   8.453 -0.2365  0.0919 -0.2268
  263loPI   C3A 4201   7.359  12.475   8.253  0.3763  0.3040 -0.2962
  263loPI   C4A 4202   7.304  12.779   7.912  0.4514 -0.1112 -0.0625
  263loPI   C5A 4203   7.265  12.678   7.483 -0.1402 -0.1034  0.2219
  263loPI   C6A 4204   7.356  12.749   7.093 -0.1417  0.1784  0.0621
  263loPI   C1B 4205   8.354  11.802   8.733 -0.0881 -0.2863 -0.2278
  263loPI   C2B 4206   8.359  11.986   8.342  0.0046  0.2538  0.2817
  263loPI   C3B 4207   8.151  12.186   8.047  0.1846  0.2815 -0.4142
  263loPI   C4B 4208   7.768  12.016   7.962 -0.1179  0.1790 -0.0465
  264loPI    C1 4209   8.397   9.703   9.905  0.0648 -0.0306 -0.0318
  264loPI    C2 4210   8.574   9.622  10.254 -0.0623 -0.0923  0.0189
  264loPI    C3 4211   8.261   9.870  10.241  0.0834  0.0893 -0.0832
  264loPI   PO4 4212   8.649   9.762   9.729 -0.0719 -0.0523  0.1538
  264loPI   GL1 4213   8.789   9.931   9.310  0.0840  0.1128 -0.1491
  264loPI   GL2 4214   8.496   9.899   9.255 -0.3899  0.0243 -0.1743
  264loPI   C1A 4215   8.959   9.991   8.931 -0.0234  0.0962 -0.2912
  264loPI   C2A 4216   8.986   9.995   8.451 -0.1660  0.1501 -0.2490
  264loPI   C3A 4217   8.635  10.097   8.204 -0.0658 -0.1043  0.1312
  264loPI   C4A 4218   8.477  10.208   7.804  0.0951 -0.1433 -0.1933
  264loPI   C5A 4219   8.426   9.773   7.529 -0.1133 -0.0330 -0.0869
  264loPI   C6A 4220   8.202   9.471   7.307  0.4536  0.0275 -0.1356
  264loPI   C1B 4221   8.480  10.184   8.949  0.2534  0.0047  0.1290
  264loPI   C2B 4222   8.402  10.339   8.566  0.1440 -0.0170  0.0292
  264loPI   C3B 4223   8.239  10.462   8.232 -0.0793 -0.0943 -0.1057
  264loPI   C4B 4224   8.038  10.437   7.838 -0.0032 -0.0638 -0.0089
  265loPI    C1 4225  14.071  10.242  10.556  0.3197 -0.3244 -0.0496
  265loPI    C2 4226  13.993   9.980  10.849  0.2136 -0.1580  0.0730
  265loPI    C3 4227  14.164  10.331  10.935  0.1004 -0.0706 -0.0526
  265loPI   PO4 4228  13.850  10.089  10.350  0.3229  0.1280 -0.3228
  265loPI   GL1 4229  13.825   9.861   9.990 -0.4325 -0.2222  0.0219
  265loPI   GL2 4230  13.640  10.088   9.853 -0.1512 -0.0122 -0.1136
  265loPI   C1A 4231  13.729   9.652   9.698  0.1718  0.4166  0.1041
  265loPI   C2A 4232  13.694   9.744   9.346 -0.1296 -0.1648 -0.1096
  265loPI   C3A 4233  13.890   9.829   8.965  0.1236 -0.1871 -0.0767
  265loPI   C4A 4234  14.166   9.663   8.723 -0.1680 -0.3257  0.2409
  265loPI   C5A 4235  14.172   9.622   8.283  0.0108  0.1233  0.0267
  265loPI   C6A 4236  14.153   9.246   7.955 -0.0565 -0.2034 -0.0941
  265loPI   C1B 4237  14.000  10.087   9.458 -0.0938 -0.1509  0.1288
  265loPI   C2B 4238  14.408   9.964   9.114  0.1787 -0.0732  0.0485
  265loPI   C3B 4239  14.514  10.020   8.638  0.4439 -0.3351 -0.3370
  265loPI   C4B 4240  14.324  10.100   8.128 -0.2929 -0.1172  0.0810
  266loPI    C1 4241   3.894   2.072   9.884 -0.0611  0.0556  0.1253
  266loPI    C2 4242   4.240   2.244   9.778 -0.1742  0.0714 -0.2344
  266loPI    C3 4243   4.045   2.370  10.104  0.1681  0.0458 -0.0149
  266loPI   PO4 4244   3.972   1.783   9.916 -0.2776  0.1889  0.0694
  266loPI   GL1 4245   4.205   1.783   9.563 -0.0206  0.3251 -0.1974
  266loPI   GL2 4246   4.468   1.514   9.674 -0.1910  0.2802  0.0375
  266loPI   C1A 4247   4.295   1.824   9.215  0.1364 -0.1476  0.2168
  266loPI   C2A 4248   4.375   1.773   8.656  0.4561  0.1023 -0.2239
  266loPI   C3A 4249   4.391   1.789   8.207  0.1474  0.1641  0.0418
  266loPI   C4A 4250   4.160   2.008   7.737  0.0641 -0.2092  0.0239
  266loPI   C5A 4251   3.792   2.207   7.533  0.2280  0.2295  0.0237
  266loPI   C6A 4252   3.433   2.065   7.446 -0.2030 -0.1675  0.4845
  266loPI   C1B 4253   4.548   1.354   9.154 -0.0344 -0.0820 -0.1322
  266loPI   C2B 4254   4.621   1.308   8.750 -0.0471 -0.0289 -0.0221
  266loPI   C3B 4255   4.585   1.350   8.272  0.0734  0.1250  0.0400
  266loPI   C4B 4256   4.600   1.454   7.825 -0.0550 -0.1780  0.2326
  267loPI    C1 4257   6.514  17.244  10.489  0.0735 -0.3187  0.1966
  267loPI    C2 4258   6.558  16.956  10.214 -0.0782 -0.2239  0.0712
  267loPI    C3 4259   6.254  16.940  10.474 -0.1865 -0.0901 -0.0456
  267loPI   PO4 4260   6.596  17.432  10.353  0.3364  0.0361  0.2524
  267loPI   GL1 4261   6.600  17.661   9.952  0.0142 -0.3343  0.1806
  267loPI   GL2 4262   6.403  17.868   9.869 -0.1787 -0.1822  0.1221
  267loPI   C1A 4263   6.741  17.516   9.562  0.2543  0.0521  0.2104
  267loPI   C2A 4264   6.892  17.502   9.194 -0.0981 -0.0300  0.0242
  267loPI   C3A 4265   6.775  17.475   8.783 -0.3358 -0.5629  0.3341
  267loPI   C4A 4266   6.724  17.448   8.361 -0.0147 -0.1127 -0.1046
  267loPI   C5A 4267   6.829  17.548   8.008  0.2699  0.2061  0.2797
  267loPI   C6A 4268   6.870  17.424   7.643 -0.0667  0.1739  0.1533
  267loPI   C1B 4269   6.412  17.925   9.461 -0.1572 -0.0752 -0.4254
  267loPI   C2B 4270   6.464  17.882   9.074  0.0353 -0.2678  0.1452
  267loPI   C3B 4271   6.516  17.905   8.553  0.0385 -0.0807  0.1380
  267loPI   C4B 4272   6.484  17.936   8.100 -0.0027  0.0431  0.1196
  268loPI    C1 4273   4.309   5.366  10.259  0.0899  0.2137  0.1089
  268loPI    C2 4274   4.560   5.576  10.488  0.1387  0.0709  0.1872
  268loPI    C3 4275   4.529   5.180  10.536  0.0947  0.0505 -0.0030
  268loPI   PO4 4276   4.309   5.396   9.958  0.0408 -0.0630 -0.2122
  268loPI   GL1 4277   4.529   5.464   9.556 -0.2486 -0.0366  0.3073
  268loPI   GL2 4278   4.186   5.401   9.456 -0.2249 -0.1852  0.1213
  268loPI   C1A 4279   4.750   5.296   9.222 -0.1694 -0.0590  0.1107
  268loPI   C2A 4280   5.092   5.297   8.987 -0.2424  0.4300  0.1283
  268loPI   C3A 4281   5.223   5.389   8.674 -0.1863  0.1985  0.2243
  268loPI   C4A 4282   5.136   5.130   8.410  0.2403 -0.2389 -0.1063
  268loPI   C5A 4283   4.746   4.819   8.372 -0.2278 -0.0640  0.0805
  268loPI   C6A 4284   4.702   4.488   8.098  0.0033 -0.1694  0.3194
  268loPI   C1B 4285   4.271   5.299   9.044 -0.0569 -0.0199  0.1174
  268loPI   C2B 4286   4.639   5.328   8.716 -0.4199 -0.1781 -0.1593
  268loPI   C3B 4287   4.625   5.286   8.244 -0.0064  0.1927  0.0709
  268loPI   C4B 4288   4.506   5.197   7.855 -0.0895 -0.1444  0.1027
  269loPI    C1 4289  12.387   9.098  10.689 -0.1284 -0.0378 -0.0271
  269loPI    C2 4290  12.242   9.142  11.059  0.2685  0.2163  0.1048
  269loPI    C3 4291  12.467   8.824  10.970  0.2703  0.2146  0.1150
  269loPI   PO4 4292  12.240   9.161  10.541 -0.2440 -0.2371  0.3238
  269loPI   GL1 4293  12.234   9.338  10.070  0.0847  0.1136  0.0473
  269loPI   GL2 4294  12.181   9.029   9.920 -0.0502  0.0190 -0.0796
  269loPI   C1A 4295  12.368   9.444   9.693  0.0153 -0.3250  0.2718
  269loPI   C2A 4296  12.292   9.697   9.286 -0.0771 -0.2530 -0.3132
  269loPI   C3A 4297  12.196   9.902   8.891  0.1977  0.0385 -0.2314
  269loPI   C4A 4298  12.111  10.132   8.513 -0.0533 -0.0599 -0.0594
  269loPI   C5A 4299  11.990  10.051   8.110 -0.5458 -0.0606 -0.0795
  269loPI   C6A 4300  11.837   9.860   7.785 -0.1294  0.1247  0.2047
  269loPI   C1B 4301  12.014   8.867   9.472 -0.2260 -0.0224 -0.2564
  269loPI   C2B 4302  12.198   8.798   9.101  0.0381 -0.0525 -0.1891
  269loPI   C3B 4303  12.131   8.761   8.697  0.1945 -0.1631 -0.1354
  269loPI   C4B 4304  11.993   8.839   8.273  0.0762  0.1770 -0.0328
  270loPI    C1 4305   9.751   5.163  10.265 -0.1750 -0.1151  0.4931
  270loPI    C2 4306   9.544   5.495  10.347  0.0663  0.0523  0.4335
  270loPI    C3 4307   9.926   5.465  10.460  0.2295  0.0456 -0.0927
  270loPI   PO4 4308   9.740   5.139  10.012 -0.0478  0.1088 -0.0324
  270loPI   GL1 4309  10.007   5.034   9.697  0.2605 -0.1006  0.3793
  270loPI   GL2 4310  10.388   5.073   9.633  0.0840 -0.2643 -0.0618
  270loPI   C1A 4311   9.924   5.100   9.199  0.1206 -0.2424 -0.3304
  270loPI   C2A 4312   9.879   5.074   8.753  0.3605 -0.1504 -0.0580
  270loPI   C3A 4313   9.885   5.149   8.383  0.0255 -0.0365  0.2478
  270loPI   C4A 4314  10.185   5.399   8.098 -0.0361 -0.0446 -0.2198
  270loPI   C5A 4315  10.516   5.705   8.082  0.0418  0.3609  0.0241
  270loPI   C6A 4316  10.448   6.072   7.907  0.0818  0.0209  0.1173
  270loPI   C1B 4317  10.421   5.082   9.244 -0.3003 -0.2457 -0.1054
  270loPI   C2B 4318  10.541   5.296   8.899 -0.4027 -0.1946 -0.3494
  270loPI   C3B 4319  10.324   5.496   8.564  0.2380 -0.1450  0.0261
  270loPI   C4B 4320  10.268   5.916   8.508 -0.6882  0.0141 -0.0179
  271loPI    C1 4321  10.913   5.492  10.151  0.0115 -0.0060  0.1542
  271loPI    C2 4322  11.204   5.523   9.879 -0.1333  0.2157  0.0214
  271loPI    C3 4323  11.272   5.331  10.223  0.1490  0.2098 -0.0349
  271loPI   PO4 4324  10.697   5.487   9.999 -0.2447 -0.0703  0.1962
  271loPI   GL1 4325  10.757   5.523   9.586  0.0517  0.0755 -0.2493
  271loPI   GL2 4326  10.792   5.291   9.449 -0.3894  0.1559 -0.3831
  271loPI   C1A 4327  10.583   5.733   9.135  0.1655  0.1434  0.0267
  271loPI   C2A 4328  10.763   5.861   8.684  0.1382 -0.1362 -0.3076
  271loPI   C3A 4329  10.868   5.957   8.232  0.0918  0.1648 -0.3413
  271loPI   C4A 4330  11.011   5.632   7.963  0.1059 -0.1995  0.3369
  271loPI   C5A 4331  10.682   5.758   7.597 -0.0699 -0.1990 -0.0253
  271loPI   C6A 4332  10.479   6.029   7.212 -0.1606  0.0166 -0.1625
  271loPI   C1B 4333  10.990   5.075   9.129 -0.1171  0.1466 -0.0635
  271loPI   C2B 4334  10.932   4.958   8.678 -0.1613  0.5022  0.1102
  271loPI   C3B 4335  10.719   4.626   8.452 -0.0224  0.0887  0.0437
  271loPI   C4B 4336  10.449   4.517   8.152 -0.3049 -0.1826  0.0678
  272loPI    C1 4337   8.289  17.965  10.991 -0.1786  0.0302 -0.0787
  272loPI    C2 4338   8.674  17.918  10.892 -0.2279 -0.1663 -0.1812
  272loPI    C3 4339   8.576  18.036  11.261 -0.0701 -0.1301 -0.1501
  272loPI   PO4 4340   8.171  18.085  10.679 -0.0215  0.0240  0.1472
  272loPI   GL1 4341   7.963  17.861  10.287  0.2691  0.1841 -0.0846
  272loPI   GL2 4342   8.067  18.119  10.172 -0.3070  0.0719 -0.4031
  272loPI   C1A 4343   7.898  17.678   9.859  0.3376  0.1781 -0.0203
  272loPI   C2A 4344   7.881  17.464   9.499 -0.3180 -0.0294 -0.0689
  272loPI   C3A 4345   7.798  17.424   9.068  0.1135 -0.2266 -0.0921
  272loPI   C4A 4346   7.771  17.470   8.603 -0.0810  0.2176  0.2343
  272loPI   C5A 4347   7.793  17.329   8.111  0.1713  0.2249 -0.0718
  272loPI   C6A 4348   7.984  17.362   7.713 -0.1856 -0.3764 -0.0106
  272loPI   C1B 4349   8.104  18.106   9.735  0.1669 -0.0525  0.0766
  272loPI   C2B 4350   8.082  17.942   9.336  0.0169  0.0843 -0.1453
  272loPI   C3B 4351   8.074  18.016   8.890  0.0094  0.3555  0.2571
  272loPI   C4B 4352   8.031  17.885   8.441  0.0724  0.1983  0.2223
  273loPI    C1 4353  14.979  18.038  10.335 -0.1705  0.2434 -0.0971
  273loPI    C2 4354  14.621  18.009  10.510 -0.0965  0.3261  0.0700
  273loPI    C3 4355  14.935  17.817  10.666 -0.1073  0.0937 -0.1874
  273loPI   PO4 4356  14.928  17.984  10.094 -0.1874 -0.0574 -0.0605
  273loPI   GL1 4357  14.982  18.009   9.693 -0.1782 -0.0248 -0.1056
  273loPI   GL2 4358  15.146  17.779   9.597 -0.1674 -0.0231  0.0601
  273loPI   C1A 4359  14.861  18.153   9.320  0.2192  0.1958 -0.3069
  273loPI   C2A 4360  14.929  18.094   8.830  0.1913  0.2056  0.0227
  273loPI   C3A 4361  14.975  18.038   8.392 -0.1130  0.1663 -0.1627
  273loPI   C4A 4362  15.027  18.129   7.982 -0.3382 -0.0230 -0.1337
  273loPI   C5A 4363  14.973  18.291   7.609 -0.4562 -0.1529  0.0528
  273loPI   C6A 4364  15.117  18.367   7.304  0.2163 -0.2263  0.1679
  273loPI   C1B 4365  15.298  17.730   9.225 -0.2435  0.1966 -0.0653
  273loPI   C2B 4366  15.252  17.713   8.755 -0.4157 -0.1504  0.0254
  273loPI   C3B 4367  15.083  17.570   8.285  0.1150 -0.0812  0.2292
  273loPI   C4B 4368  14.921  17.683   7.950  0.0232 -0.0710 -0.0920
  274loPI    C1 4369   3.892   0.646  10.105 -0.0385  0.0021  0.0335
  274loPI    C2 4370   3.762   0.942   9.869  0.0920 -0.1309 -0.2093
  274loPI    C3 4371   3.501   0.726  10.081  0.0006  0.1948  0.0181
  274loPI   PO4 4372   4.188   0.709  10.004  0.3511  0.0025  0.1847
  274loPI   GL1 4373   4.288   0.888   9.691  0.0962 -0.0468  0.1629
  274loPI   GL2 4374   4.546   0.785   9.651  0.0303 -0.0731  0.4505
  274loPI   C1A 4375   4.131   0.822   9.312 -0.1091  0.0215  0.0280
  274loPI   C2A 4376   4.189   0.851   8.816 -0.1803  0.2046  0.0897
  274loPI   C3A 4377   4.144   0.894   8.394  0.0779 -0.3132  0.1150
  274loPI   C4A 4378   4.139   0.886   7.936  0.2987  0.1271 -0.1343
  274loPI   C5A 4379   3.987   1.088   7.504 -0.0777  0.0193 -0.0681
  274loPI   C6A 4380   3.991   1.428   7.154 -0.1758  0.1538 -0.2252
  274loPI   C1B 4381   4.667   0.934   9.402  0.0595 -0.0346  0.0258
  274loPI   C2B 4382   4.792   0.899   9.056  0.0387 -0.1937 -0.5880
  274loPI   C3B 4383   4.855   0.910   8.502  0.2236  0.0776  0.0488
  274loPI   C4B 4384   4.645   0.887   8.142 -0.2450 -0.0306 -0.0602
  275loPI    C1 4385   5.142   9.286  10.402 -0.1566 -0.0014 -0.2222
  275loPI    C2 4386   4.751   9.358  10.448 -0.0852  0.1364  0.2121
  275loPI    C3 4387   4.926   9.065  10.657  0.0475  0.0829  0.0283
  275loPI   PO4 4388   5.150   9.148  10.139  0.1651  0.0172  0.2039
  275loPI   GL1 4389   5.017   9.050   9.684  0.0752 -0.0561 -0.2230
  275loPI   GL2 4390   4.759   8.977   9.479 -0.2147 -0.2725  0.0120
  275loPI   C1A 4391   5.203   9.031   9.225  0.1613  0.4367 -0.0939
  275loPI   C2A 4392   5.342   9.046   8.827  0.1102 -0.5343  0.0581
  275loPI   C3A 4393   5.273   9.061   8.331  0.3079  0.0746  0.4239
  275loPI   C4A 4394   5.382   9.187   7.984 -0.2077  0.2524  0.0012
  275loPI   C5A 4395   5.229   9.199   7.580  0.0022  0.0402 -0.0608
  275loPI   C6A 4396   4.976   8.968   7.330 -0.0383 -0.1031 -0.1816
  275loPI   C1B 4397   4.777   8.906   8.972 -0.0951 -0.1002  0.3718
  275loPI   C2B 4398   4.963   8.724   8.564 -0.3582  0.0978 -0.2486
  275loPI   C3B 4399   4.857   8.632   8.116 -0.1531  0.3131  0.1243
  275loPI   C4B 4400   5.039   8.623   7.699 -0.1851  0.0934 -0.1256
  276loPI    C1 4401   9.098  13.058  10.105  0.0866  0.4089  0.1170
  276loPI    C2 4402   8.715  12.942  10.089  0.1680  0.1726 -0.2331
  276loPI    C3 4403   8.820  13.307   9.961  0.0745  0.2021 -0.2264
  276loPI   PO4 4404   9.312  13.025  10.001  0.1453 -0.0758 -0.0712
  276loPI   GL1 4405   9.518  13.040   9.599 -0.2552 -0.1789 -0.0638
  276loPI   GL2 4406   9.824  13.068   9.608 -0.2081 -0.0850 -0.1541
  276loPI   C1A 4407   9.431  12.918   9.150  0.0687  0.0571  0.5634
  276loPI   C2A 4408   9.287  12.918   8.760  0.2449  0.2080 -0.6126
  276loPI   C3A 4409   9.236  12.836   8.287 -0.2843 -0.2522  0.0369
  276loPI   C4A 4410   8.948  12.750   7.984 -0.0933 -0.1324  0.2037
  276loPI   C5A 4411   8.697  12.876   7.682 -0.0842  0.2268  0.0652
  276loPI   C6A 4412   8.258  12.888   7.461 -0.2930  0.2577 -0.3141
  276loPI   C1B 4413   9.975  12.978   9.170  0.3074  0.2815 -0.3207
  276loPI   C2B 4414   9.818  12.907   8.786 -0.0908 -0.1128  0.2434
  276loPI   C3B 4415   9.708  12.778   8.345 -0.4336 -0.0007  0.2570
  276loPI   C4B 4416   9.577  12.668   7.965 -0.1327  0.0843  0.0283
  277loPI    C1 4417  12.258  15.975  10.055  0.0197 -0.0308 -0.0722
  277loPI    C2 4418  12.524  16.012  10.352 -0.0736 -0.1315  0.0250
  277loPI    C3 4419  12.478  15.660  10.166 -0.1163 -0.1062 -0.0126
  277loPI   PO4 4420  12.331  16.127   9.851  0.1580 -0.0759  0.2545
  277loPI   GL1 4421  12.539  16.292   9.649 -0.4461 -0.1996 -0.1066
  277loPI   GL2 4422  12.852  16.369   9.622  0.5229  0.0614 -0.0014
  277loPI   C1A 4423  12.561  16.293   9.235  0.3520  0.1436 -0.1953
  277loPI   C2A 4424  12.449  16.387   8.748 -0.1799 -0.0586  0.2167
  277loPI   C3A 4425  12.360  16.599   8.360  0.0274 -0.1859  0.0341
  277loPI   C4A 4426  12.280  16.710   7.963  0.0142  0.0581  0.0465
  277loPI   C5A 4427  12.488  16.563   7.500 -0.0705 -0.2625  0.0766
  277loPI   C6A 4428  12.637  16.867   7.328  0.0384  0.1052 -0.4069
  277loPI   C1B 4429  12.926  16.634   9.294 -0.0619  0.0110  0.3205
  277loPI   C2B 4430  12.918  16.560   8.885 -0.2472  0.2179  0.0143
  277loPI   C3B 4431  12.965  16.772   8.425  0.2398  0.1269 -0.0215
  277loPI   C4B 4432  13.048  16.843   7.943  0.0359  0.0866 -0.0721
  278loPI    C1 4433  14.508   6.224  10.536  0.1457  0.1224  0.2799
  278loPI    C2 4434  14.142   6.245  10.695  0.0210 -0.1753  0.0419
  278loPI    C3 4435  14.334   6.580  10.591 -0.1627 -0.0146  0.2104
  278loPI   PO4 4436  14.473   6.002  10.402 -0.0818  0.1400  0.1217
  278loPI   GL1 4437  14.427   6.052   9.906 -0.2064 -0.0716  0.1789
  278loPI   GL2 4438  14.664   5.850  10.000  0.1413 -0.1855  0.0583
  278loPI   C1A 4439  14.137   6.012   9.499 -0.0267 -0.0452 -0.2416
  278loPI   C2A 4440  14.204   6.019   8.990 -0.1502 -0.2282 -0.0427
  278loPI   C3A 4441  13.982   6.072   8.772 -0.1392  0.0285  0.1986
  278loPI   C4A 4442  13.887   6.148   8.336  0.0691  0.0291  0.2627
  278loPI   C5A 4443  13.887   6.199   7.948  0.2243 -0.0324  0.0407
  278loPI   C6A 4444  14.081   6.260   7.583 -0.3103 -0.0148  0.2743
  278loPI   C1B 4445  14.801   5.898   9.657 -0.2310 -0.2312 -0.1068
  278loPI   C2B 4446  14.958   5.800   9.308 -0.3503 -0.0133 -0.0634
  278loPI   C3B 4447  14.915   5.663   8.863  0.0747  0.3248  0.0384
  278loPI   C4B 4448  14.791   5.736   8.482 -0.0337 -0.1113  0.1484
  279loPI    C1 4449  13.371  12.348  10.514 -0.1430 -0.0829  0.0060
  279loPI    C2 4450  13.265  12.463  10.883  0.2481  0.1553  0.0498
  279loPI    C3 4451  13.597  12.610  10.715  0.1158 -0.0106 -0.3701
  279loPI   PO4 4452  13.087  12.389  10.348  0.0732 -0.3184 -0.0752
  279loPI   GL1 4453  13.240  12.609   9.899  0.0974  0.0059 -0.3484
  279loPI   GL2 4454  13.044  12.365   9.827 -0.3482  0.1873 -0.2812
  279loPI   C1A 4455  12.840  12.776   9.634 -0.3389  0.0725 -0.3034
  279loPI   C2A 4456  12.774  12.947   9.225  0.0013 -0.2432  0.1891
  279loPI   C3A 4457  12.748  12.977   8.737  0.2544  0.2036  0.0301
  279loPI   C4A 4458  12.719  13.055   8.295 -0.0228  0.3981 -0.0700
  279loPI   C5A 4459  12.644  13.213   7.951  0.1214  0.2377 -0.1860
  279loPI   C6A 4460  12.832  13.292   7.531 -0.1226 -0.0879 -0.2201
  279loPI   C1B 4461  13.082  12.444   9.406 -0.0475 -0.0940  0.0079
  279loPI   C2B 4462  12.977  12.543   8.995  0.2116 -0.3871  0.1444
  279loPI   C3B 4463  12.968  12.466   8.554 -0.0183 -0.3261  0.0186
  279loPI   C4B 4464  12.687  12.565   8.306 -0.2390  0.2739  0.1008
  280loPI    C1 4465  10.722   4.075  10.497  0.2402  0.1273 -0.0914
  280loPI    C2 4466  10.896   4.027  10.854 -0.0208  0.2528  0.0559
  280loPI    C3 4467  10.512   3.927  10.804  0.0650  0.0572 -0.2432
  280loPI   PO4 4468  10.783   4.334  10.423 -0.1045 -0.0894  0.0906
  280loPI   GL1 4469  10.935   4.294   9.923  0.1637 -0.0743 -0.0930
  280loPI   GL2 4470  11.127   4.504   9.780 -0.2137 -0.0498  0.0104
  280loPI   C1A 4471  10.830   4.228   9.480  0.2786 -0.0621  0.0772
  280loPI   C2A 4472  10.942   4.057   9.168  0.4260  0.1084 -0.0082
  280loPI   C3A 4473  11.068   3.779   8.800 -0.2051  0.1646 -0.1722
  280loPI   C4A 4474  11.303   3.585   8.673  0.3564  0.0300 -0.1305
  280loPI   C5A 4475  11.261   3.435   8.269 -0.0862  0.0542 -0.1534
  280loPI   C6A 4476  10.912   3.412   7.886 -0.0824  0.0455  0.3371
  280loPI   C1B 4477  11.128   4.594   9.386 -0.4930  0.0636 -0.0505
  280loPI   C2B 4478  11.223   4.644   8.915  0.2975 -0.0951  0.2752
  280loPI   C3B 4479  11.170   4.542   8.596  0.2008  0.1597 -0.0637
  280loPI   C4B 4480  11.183   4.552   8.149 -0.1617 -0.1916  0.0034
  281loPI    C1 4481   6.076   9.521  10.082  0.3242  0.2883  0.1098
  281loPI    C2 4482   6.438   9.535  10.252  0.2633 -0.3127  0.3164
  281loPI    C3 4483   6.119   9.433  10.470  0.0141 -0.0884  0.0657
  281loPI   PO4 4484   6.007   9.327   9.866 -0.2627  0.0201 -0.0356
  281loPI   GL1 4485   5.918   9.292   9.475 -0.2819  0.0606  0.1835
  281loPI   GL2 4486   6.185   9.548   9.338  0.1481  0.0896  0.1257
  281loPI   C1A 4487   5.712   9.184   9.147 -0.0527 -0.2573 -0.0888
  281loPI   C2A 4488   5.842   8.854   8.869 -0.0684 -0.2829 -0.0400
  281loPI   C3A 4489   6.046   8.560   8.641 -0.1967 -0.1577  0.2065
  281loPI   C4A 4490   6.095   8.385   8.187 -0.2556  0.2170 -0.0441
  281loPI   C5A 4491   6.047   8.412   7.730 -0.2267  0.2459 -0.0730
  281loPI   C6A 4492   5.878   8.357   7.314  0.0226 -0.1817  0.0182
  281loPI   C1B 4493   6.280   9.201   9.076 -0.1323 -0.0781  0.0887
  281loPI   C2B 4494   6.316   9.208   8.653 -0.2693 -0.1091 -0.1312
  281loPI   C3B 4495   6.262   9.325   8.168 -0.1536 -0.5369 -0.0568
  281loPI   C4B 4496   5.833   9.347   7.963 -0.1999 -0.0004 -0.2976
  282loPI    C1 4497   2.130   4.170  10.472  0.0828  0.0676 -0.2481
  282loPI    C2 4498   1.906   4.482  10.584 -0.1645 -0.1716 -0.0621
  282loPI    C3 4499   1.749   4.115  10.579  0.1611 -0.3137 -0.1516
  282loPI   PO4 4500   2.280   4.312  10.217  0.0337  0.0451  0.0195
  282loPI   GL1 4501   2.251   4.349   9.732 -0.3937  0.1804 -0.0068
  282loPI   GL2 4502   2.114   3.980   9.740  0.3995  0.3019  0.1093
  282loPI   C1A 4503   2.495   4.172   9.351  0.0501  0.3199 -0.0590
  282loPI   C2A 4504   2.500   4.385   8.878 -0.2454  0.2188 -0.1573
  282loPI   C3A 4505   2.407   4.355   8.423  0.0694 -0.1863 -0.1309
  282loPI   C4A 4506   2.399   4.205   8.033  0.2702 -0.3455 -0.0526
  282loPI   C5A 4507   2.219   4.118   7.648 -0.2762  0.0727  0.2203
  282loPI   C6A 4508   2.505   4.119   7.296  0.0746 -0.0532 -0.0130
  282loPI   C1B 4509   2.057   3.905   9.257  0.1017 -0.0239 -0.1700
  282loPI   C2B 4510   1.855   3.660   8.968  0.3003 -0.1778 -0.0198
  282loPI   C3B 4511   1.965   3.500   8.656 -0.1161  0.0550 -0.0563
  282loPI   C4B 4512   1.945   3.147   8.457 -0.0745 -0.1285  0.1887
  283loPI    C1 4513  15.521   0.482  10.123  0.0106  0.0981 -0.1254
  283loPI    C2 4514  15.674   0.600  10.473 -0.0169  0.1460 -0.1294
  283loPI    C3 4515  15.436   0.280  10.457  0.0360  0.1057 -0.1141
  283loPI   PO4 4516  15.376   0.702   9.958 -0.0527  0.0840 -0.2881
  283loPI   GL1 4517  15.072   0.638   9.759  0.0858 -0.1609  0.0869
  283loPI   GL2 4518  15.196   0.396   9.620 -0.1512  0.0385 -0.1239
  283loPI   C1A 4519  15.033   0.946   9.328 -0.0300 -0.1668 -0.1160
  283loPI   C2A 4520  15.234   0.958   8.942  0.2359 -0.1644  0.0902
  283loPI   C3A 4521  15.410   0.882   8.497 -0.1704 -0.1091 -0.0997
  283loPI   C4A 4522  15.306   0.908   8.031 -0.0726  0.1226 -0.1648
  283loPI   C5A 4523  15.317   0.730   7.727 -0.1549 -0.0839  0.1120
  283loPI   C6A 4524  15.484   0.590   7.408  0.0629 -0.0508  0.1642
  283loPI   C1B 4525  15.310   0.521   9.260 -0.1843 -0.0871  0.1806
  283loPI   C2B 4526  15.398   0.512   8.794 -0.0059  0.0702  0.1977
  283loPI   C3B 4527  15.201   0.474   8.371 -0.1400 -0.3091 -0.0787
  283loPI   C4B 4528  15.255   0.290   7.982  0.1535 -0.0044 -0.0226
  284loPI    C1 4529  14.360   9.528  10.097  0.1202 -0.0600  0.0751
  284loPI    C2 4530  14.192   9.682  10.426  0.2166 -0.0168  0.1044
  284loPI    C3 4531  14.303   9.298  10.419 -0.1546 -0.1259 -0.0180
  284loPI   PO4 4532  14.415   9.659   9.830 -0.0423  0.0919 -0.3208
  284loPI   GL1 4533  14.646   9.595   9.434  0.0745 -0.2210 -0.0086
  284loPI   GL2 4534  14.629   9.328   9.544 -0.1565 -0.1422 -0.2186
  284loPI   C1A 4535  14.678   9.554   8.986 -0.0119  0.0287  0.1443
  284loPI   C2A 4536  14.978   9.503   8.656 -0.3208 -0.2328  0.2327
  284loPI   C3A 4537  15.094   9.347   8.268 -0.0082  0.1089  0.1870
  284loPI   C4A 4538  15.238   9.554   7.937 -0.3649  0.1932 -0.1679
  284loPI   C5A 4539  15.423   9.913   7.671 -0.1102  0.2525  0.0234
  284loPI   C6A 4540  15.424   9.839   7.328  0.0095  0.2438  0.0303
  284loPI   C1B 4541  15.097   9.285   9.354 -0.3179 -0.1546  0.0242
  284loPI   C2B 4542  15.430   9.185   9.032 -0.0731  0.2320  0.2557
  284loPI   C3B 4543  15.376   8.987   8.701 -0.3842 -0.0225 -0.2400
  284loPI   C4B 4544  15.439   9.000   8.217  0.0912 -0.0098 -0.0314
  285loPI    C1 4545  15.884  13.766   9.876 -0.1393  0.1238  0.0588
  285loPI    C2 4546  15.775  13.961  10.207 -0.1931  0.2068 -0.0074
  285loPI    C3 4547  15.768  13.561  10.199  0.0412  0.1971  0.1716
  285loPI   PO4 4548  15.730  13.912   9.687 -0.0818 -0.0857 -0.1178
  285loPI   GL1 4549  15.711  14.076   9.258  0.1025 -0.1165  0.1948
  285loPI   GL2 4550  15.917  14.213   9.221  0.2095 -0.0149 -0.0114
  285loPI   C1A 4551  15.538  13.950   8.860  0.0566 -0.1455  0.1345
  285loPI   C2A 4552  15.366  14.039   8.504  0.0628 -0.1530  0.0843
  285loPI   C3A 4553  15.320  14.045   8.109  0.3764  0.1031  0.0708
  285loPI   C4A 4554  15.189  13.866   7.663 -0.2544  0.0879  0.2793
  285loPI   C5A 4555  14.705  13.850   7.539  0.3259  0.3739 -0.0216
  285loPI   C6A 4556  14.551  13.553   7.461 -0.1559 -0.4821 -0.1789
  285loPI   C1B 4557  15.951  14.353   8.844  0.2142 -0.0105  0.1930
  285loPI   C2B 4558  15.981  14.582   8.571 -0.0853  0.1090 -0.0454
  285loPI   C3B 4559  16.075  14.629   8.082 -0.4580  0.0192  0.0203
  285loPI   C4B 4560  16.001  14.628   7.633  0.0293 -0.0771 -0.1458
  286loPI    C1 4561  14.224  10.792  10.448 -0.0239 -0.0443 -0.0136
  286loPI    C2 4562  14.101  11.172  10.478 -0.1527 -0.0965  0.1262
  286loPI    C3 4563  14.164  10.955  10.808  0.1292 -0.1310  0.0518
  286loPI   PO4 4564  14.072  10.629  10.230 -0.0115 -0.1240 -0.1994
  286loPI   GL1 4565  13.964  10.451   9.862  0.2081 -0.2009  0.0110
  286loPI   GL2 4566  14.268  10.716   9.779 -0.1443  0.2499 -0.0121
  286loPI   C1A 4567  13.923  10.559   9.450 -0.0454 -0.0477  0.0429
  286loPI   C2A 4568  14.001  10.363   9.080 -0.3837  0.1759  0.3387
  286loPI   C3A 4569  14.039  10.210   8.651  0.2724  0.1120 -0.2178
  286loPI   C4A 4570  13.811  10.138   8.283 -0.5532 -0.0105 -0.1531
  286loPI   C5A 4571  13.880   9.943   7.887  0.1226 -0.0796 -0.0052
  286loPI   C6A 4572  14.260   9.725   7.802 -0.0328 -0.0336  0.1515
  286loPI   C1B 4573  14.340  11.033   9.371 -0.1219 -0.1540  0.0814
  286loPI   C2B 4574  14.656  11.109   9.193  0.0022  0.3607  0.1627
  286loPI   C3B 4575  14.800  11.340   8.887 -0.0318  0.0249  0.2172
  286loPI   C4B 4576  14.761  11.568   8.411  0.1282 -0.0482 -0.2333
  287loPI    C1 4577  13.389   4.663  10.494  0.0935  0.1329 -0.2102
  287loPI    C2 4578  13.086   4.812  10.708 -0.0263 -0.0373 -0.2588
  287loPI    C3 4579  13.458   4.948  10.766 -0.0982  0.1110 -0.1373
  287loPI   PO4 4580  13.291   4.518  10.224 -0.2403 -0.3409  0.0957
  287loPI   GL1 4581  13.407   4.297   9.888  0.1309  0.0270  0.1746
  287loPI   GL2 4582  13.345   4.035   9.738 -0.0422 -0.2594 -0.0798
  287loPI   C1A 4583  13.462   4.567   9.582  0.1848 -0.1632 -0.0215
  287loPI   C2A 4584  13.418   4.653   9.196 -0.1968  0.3403  0.0441
  287loPI   C3A 4585  13.337   4.751   8.828 -0.0319 -0.0856 -0.2204
  287loPI   C4A 4586  13.396   4.548   8.488 -0.1657  0.2591 -0.0389
  287loPI   C5A 4587  13.498   4.223   8.301  0.1000 -0.3628 -0.0301
  287loPI   C6A 4588  13.866   4.237   8.011 -0.2214  0.0190  0.1352
  287loPI   C1B 4589  13.271   3.640   9.509 -0.2981  0.0874  0.1534
  287loPI   C2B 4590  13.127   3.448   9.210  0.3317  0.3485  0.2584
  287loPI   C3B 4591  13.029   3.327   8.798  0.0702 -0.2667 -0.0335
  287loPI   C4B 4592  12.901   2.875   8.777  0.0303 -0.0729 -0.0602
  288loPI    C1 4593   2.559   5.555  10.103  0.2200  0.1245  0.2390
  288loPI    C2 4594   2.551   5.224  10.327  0.0280 -0.1035 -0.0964
  288loPI    C3 4595   2.448   5.576  10.487  0.0008 -0.2429  0.1999
  288loPI   PO4 4596   2.808   5.605  10.000 -0.3251  0.0736  0.2436
  288loPI   GL1 4597   2.899   5.472   9.601  0.3123  0.0192 -0.1624
  288loPI   GL2 4598   2.654   5.269   9.546 -0.1926 -0.1348  0.0401
  288loPI   C1A 4599   2.985   5.426   9.070 -0.2909  0.0501 -0.0153
  288loPI   C2A 4600   2.939   5.351   8.649 -0.1911 -0.0968  0.0970
  288loPI   C3A 4601   2.957   5.074   8.351 -0.2976 -0.3543  0.2549
  288loPI   C4A 4602   3.186   4.724   8.162 -0.1865  0.0236  0.0322
  288loPI   C5A 4603   3.429   4.718   7.807  0.1826  0.0634 -0.2569
  288loPI   C6A 4604   3.559   4.390   7.526  0.1274  0.0152 -0.2558
  288loPI   C1B 4605   2.522   5.534   9.159  0.2446 -0.2720  0.0386
  288loPI   C2B 4606   2.530   5.687   8.685  0.2051 -0.0778 -0.0723
  288loPI   C3B 4607   2.651   5.695   8.320  0.3123 -0.4945  0.1236
  288loPI   C4B 4608   2.975   5.750   8.086  0.2269 -0.3394 -0.0535
  289loPI    C1 4609   2.680  12.004  10.146 -0.1311  0.1194 -0.1431
  289loPI    C2 4610   2.929  12.194  10.394 -0.0669 -0.0648 -0.0649
  289loPI    C3 4611   2.537  12.268  10.410 -0.0573 -0.0384  0.0575
  289loPI   PO4 4612   2.833  11.967   9.829  0.1520  0.1763 -0.1290
  289loPI   GL1 4613   2.852  12.013   9.414 -0.2506 -0.2401  0.2549
  289loPI   GL2 4614   2.459  12.089   9.432  0.0180 -0.1697  0.2926
  289loPI   C1A 4615   3.046  12.128   9.002  0.0498  0.0806 -0.1534
  289loPI   C2A 4616   2.928  12.085   8.615 -0.1403 -0.1694 -0.2798
  289loPI   C3A 4617   2.900  12.130   8.284 -0.1354 -0.0981 -0.2983
  289loPI   C4A 4618   2.549  12.031   7.985  0.0561  0.0546 -0.3447
  289loPI   C5A 4619   2.336  12.010   7.578  0.0986 -0.1141  0.0750
  289loPI   C6A 4620   2.074  11.869   7.284  0.0163  0.1232  0.0952
  289loPI   C1B 4621   2.523  12.172   8.975  0.0726  0.1780 -0.2571
  289loPI   C2B 4622   2.405  12.141   8.588 -0.0528  0.1342 -0.0697
  289loPI   C3B 4623   2.108  12.019   8.293 -0.3535  0.1442  0.0774
  289loPI   C4B 4624   2.029  11.726   8.016  0.3118 -0.1964 -0.1282
  290loPI    C1 4625   7.193   1.875  10.343 -0.0766 -0.1076 -0.0451
  290loPI    C2 4626   6.989   1.788  10.676 -0.1066 -0.0421 -0.0462
  290loPI    C3 4627   6.929   2.137  10.490  0.0257 -0.0116 -0.0321
  290loPI   PO4 4628   7.129   1.714  10.136 -0.0092 -0.1102  0.3045
  290loPI   GL1 4629   6.889   1.642   9.765  0.4787 -0.0594  0.2700
  290loPI   GL2 4630   6.752   1.427   9.861 -0.2718  0.0530  0.4678
  290loPI   C1A 4631   6.942   1.803   9.360 -0.0673  0.0853 -0.2223
  290loPI   C2A 4632   6.923   1.799   8.782  0.0045  0.3182 -0.1646
  290loPI   C3A 4633   6.874   1.778   8.365  0.2830 -0.2681 -0.1531
  290loPI   C4A 4634   6.872   1.784   7.935 -0.2328 -0.2913 -0.1646
  290loPI   C5A 4635   6.970   2.007   7.482  0.1229 -0.1034  0.0025
  290loPI   C6A 4636   7.325   1.987   7.207  0.1074 -0.1321  0.0061
  290loPI   C1B 4637   6.708   1.301   9.442 -0.3018  0.1300 -0.1084
  290loPI   C2B 4638   6.672   1.310   8.984  0.1871  0.2806 -0.1182
  290loPI   C3B 4639   6.670   1.323   8.569  0.1054  0.0249 -0.0794
  290loPI   C4B 4640   6.670   1.368   8.121  0.0188 -0.2568  0.1122
  291loPI    C1 4641   4.306   8.676  10.280 -0.0799  0.1699 -0.0057
  291loPI    C2 4642   4.352   9.031  10.458 -0.0684  0.1960 -0.0606
  291loPI    C3 4643   4.659   8.863  10.265 -0.0674  0.1455 -0.0154
  291loPI   PO4 4644   4.053   8.673  10.169 -0.1867  0.0797 -0.0249
  291loPI   GL1 4645   3.820   8.797   9.693 -0.1913 -0.0665  0.0663
  291loPI   GL2 4646   3.574   8.676   9.565  0.0387 -0.0292  0.3451
  291loPI   C1A 4647   3.787   8.837   9.121 -0.0033 -0.0595 -0.0736
  291loPI   C2A 4648   3.904   8.862   8.634 -0.2101  0.1418  0.1430
  291loPI   C3A 4649   3.724   8.795   8.237 -0.0407 -0.0499 -0.0841
  291loPI   C4A 4650   3.779   8.770   7.812 -0.0538  0.2939 -0.2274
  291loPI   C5A 4651   3.639   8.669   7.391  0.1067 -0.3893  0.0707
  291loPI   C6A 4652   3.461   8.597   6.924  0.0130  0.0719  0.1434
  291loPI   C1B 4653   3.311   8.550   9.207 -0.0487  0.0627 -0.3451
  291loPI   C2B 4654   3.381   8.461   8.715 -0.2548 -0.2195  0.1899
  291loPI   C3B 4655   3.606   8.308   8.394 -0.0572  0.3927  0.0752
  291loPI   C4B 4656   3.916   7.935   8.453  0.0099 -0.2745  0.0721
  292loPI    C1 4657   3.235   5.701  10.215  0.0587 -0.2620 -0.1568
  292loPI    C2 4658   3.110   5.374  10.409 -0.1915 -0.0842 -0.0126
  292loPI    C3 4659   2.952   5.731  10.496  0.2434  0.1131 -0.0037
  292loPI   PO4 4660   3.334   5.667   9.918  0.0101 -0.2688 -0.0044
  292loPI   GL1 4661   3.075   5.966   9.678  0.2075  0.0892  0.0728
  292loPI   GL2 4662   3.388   5.964   9.494 -0.4033 -0.3901  0.3853
  292loPI   C1A 4663   2.934   5.866   9.258 -0.2116  0.0630 -0.0879
  292loPI   C2A 4664   3.016   5.963   8.876 -0.2836 -0.0266 -0.2812
  292loPI   C3A 4665   3.112   5.961   8.556  0.2146  0.0642  0.0599
  292loPI   C4A 4666   3.388   6.280   8.228  0.1549 -0.0010  0.0061
  292loPI   C5A 4667   3.474   6.523   7.901 -0.2152 -0.0191  0.3282
  292loPI   C6A 4668   3.793   6.699   7.597 -0.0104  0.1910  0.2116
  292loPI   C1B 4669   3.327   6.235   9.165 -0.1553 -0.0955 -0.2079
  292loPI   C2B 4670   3.521   6.091   8.777  0.0548  0.0189  0.0943
  292loPI   C3B 4671   3.887   6.129   8.594  0.3227 -0.3248 -0.0573
  292loPI   C4B 4672   4.022   6.319   8.227  0.0266  0.0088  0.0319
  293loPI    C1 4673  13.512  11.182  10.465 -0.2111 -0.0067 -0.0298
  293loPI    C2 4674  13.700  10.849  10.580 -0.1191  0.0593  0.0120
  293loPI    C3 4675  13.615  11.133  10.849 -0.4874 -0.0711  0.0389
  293loPI   PO4 4676  13.660  11.320  10.281  0.5765  0.0048 -0.0729
  293loPI   GL1 4677  13.600  11.374   9.854 -0.0238 -0.0579 -0.0359
  293loPI   GL2 4678  13.466  11.675   9.943 -0.2284  0.0757 -0.0009
  293loPI   C1A 4679  13.829  11.244   9.545 -0.0270  0.1123 -0.3054
  293loPI   C2A 4680  13.889  11.189   9.143  0.0134  0.1126  0.3385
  293loPI   C3A 4681  14.041  10.989   8.903  0.2028 -0.0345  0.0637
  293loPI   C4A 4682  14.099  11.077   8.538  0.0720  0.2629  0.1754
  293loPI   C5A 4683  14.215  10.993   8.085 -0.4644  0.1960 -0.0684
  293loPI   C6A 4684  14.034  10.948   7.681  0.0649  0.2570 -0.1374
  293loPI   C1B 4685  13.297  11.774   9.514  0.0181  0.0064 -0.3984
  293loPI   C2B 4686  13.433  11.920   9.031 -0.2806  0.0709  0.2499
  293loPI   C3B 4687  13.757  12.150   8.940 -0.2052  0.0646  0.1594
  293loPI   C4B 4688  14.071  12.443   9.069  0.1369 -0.3083 -0.2426
  294loPI    C1 4689  10.772   2.113  10.567  0.0476 -0.0537 -0.0033
  294loPI    C2 4690  10.536   2.315  10.315 -0.0647 -0.0083  0.1368
  294loPI    C3 4691  10.522   2.392  10.707  0.1415 -0.0469  0.1531
  294loPI   PO4 4692  11.021   2.096  10.416 -0.2602 -0.1614  0.1058
  294loPI   GL1 4693  10.884   2.070  10.013  0.0809  0.0980  0.1907
  294loPI   GL2 4694  10.898   1.773   9.802 -0.0714 -0.4423  0.0607
  294loPI   C1A 4695  10.876   2.272   9.668 -0.0608 -0.0691  0.3355
  294loPI   C2A 4696  10.879   2.384   9.244  0.1692 -0.1207  0.0939
  294loPI   C3A 4697  10.793   2.375   8.696 -0.0723 -0.2323  0.1014
  294loPI   C4A 4698  10.803   2.379   8.279 -0.5086 -0.0673 -0.1538
  294loPI   C5A 4699  11.084   2.318   7.973  0.0797 -0.0300 -0.4818
  294loPI   C6A 4700  11.382   2.610   7.852 -0.3501  0.2811  0.2184
  294loPI   C1B 4701  10.810   1.337   9.476  0.1870 -0.0743  0.1317
  294loPI   C2B 4702  10.500   1.391   9.215  0.2177 -0.0646  0.2985
  294loPI   C3B 4703  10.414   1.358   8.818 -0.2366  0.0549  0.1272
  294loPI   C4B 4704  10.314   1.435   8.468  0.0675 -0.1485 -0.0522
  295loPI    C1 4705   8.825   5.264   9.766 -0.1089  0.0241  0.1249
  295loPI    C2 4706   8.726   5.091   9.419 -0.1019  0.0230  0.1234
  295loPI    C3 4707   8.775   4.868   9.748  0.2259 -0.0179  0.0504
  295loPI   PO4 4708   8.583   5.551   9.772 -0.1762  0.0043  0.0108
  295loPI   GL1 4709   8.309   5.606   9.464 -0.1291  0.1138 -0.0198
  295loPI   GL2 4710   8.176   5.921   9.401  0.0044  0.2796  0.1751
  295loPI   C1A 4711   8.365   5.418   9.013 -0.2377 -0.0382  0.2290
  295loPI   C2A 4712   8.466   5.336   8.549 -0.0873 -0.1235  0.0419
  295loPI   C3A 4713   8.322   5.625   8.274  0.1143  0.0589 -0.0017
  295loPI   C4A 4714   8.161   5.798   7.900 -0.0332 -0.0504  0.1266
  295loPI   C5A 4715   7.802   6.155   7.736  0.1535 -0.0469  0.2380
  295loPI   C6A 4716   7.330   6.044   7.689  0.1216  0.0497  0.0155
  295loPI   C1B 4717   8.482   5.966   9.075 -0.0048  0.1076  0.0672
  295loPI   C2B 4718   8.809   6.177   8.894 -0.0691 -0.2362 -0.1887
  295loPI   C3B 4719   9.114   6.438   8.908  0.0324  0.0586 -0.0772
  295loPI   C4B 4720   9.133   6.747   8.640 -0.2050  0.1527 -0.3402
  296loPI    C1 4721  10.823  10.980  10.179  0.0123 -0.0413  0.1032
  296loPI    C2 4722  11.045  10.825  10.474 -0.0966 -0.3385  0.0319
  296loPI    C3 4723  10.648  10.771  10.472 -0.1663  0.1279  0.1198
  296loPI   PO4 4724  11.148  11.115  10.090  0.0154 -0.1294  0.1529
  296loPI   GL1 4725  11.086  11.206   9.695 -0.0286  0.0052  0.2389
  296loPI   GL2 4726  10.985  11.540   9.595 -0.1377  0.2950  0.2324
  296loPI   C1A 4727  11.240  11.113   9.214  0.1957 -0.0626 -0.2165
  296loPI   C2A 4728  11.331  11.039   8.796 -0.1553 -0.1107 -0.1576
  296loPI   C3A 4729  11.486  10.953   8.358  0.1141 -0.2490 -0.0178
  296loPI   C4A 4730  11.452  10.837   7.918 -0.1649 -0.2217  0.1244
  296loPI   C5A 4731  11.331  10.939   7.473 -0.2384  0.2664 -0.0366
  296loPI   C6A 4732  11.566  10.900   7.113 -0.0824 -0.2302 -0.0450
  296loPI   C1B 4733  11.222  11.601   9.365  0.0526  0.0267 -0.2238
  296loPI   C2B 4734  11.258  11.533   8.949 -0.0111 -0.5276  0.2295
  296loPI   C3B 4735  11.123  11.414   8.603  0.0035 -0.1130  0.0130
  296loPI   C4B 4736  11.279  11.425   8.245 -0.0377 -0.0941  0.1743
  297loPI    C1 4737   5.213  16.870  10.402 -0.0397  0.2383  0.1696
  297loPI    C2 4738   5.564  16.984  10.556  0.1450 -0.0934  0.0051
  297loPI    C3 4739   5.283  16.827  10.793  0.1139  0.1512  0.1335
  297loPI   PO4 4740   5.304  16.727  10.197  0.3453 -0.0490 -0.2913
  297loPI   GL1 4741   5.498  16.674   9.767 -0.1537 -0.2279  0.3064
  297loPI   GL2 4742   5.708  17.019   9.643 -0.1212 -0.1864  0.1953
  297loPI   C1A 4743   5.480  16.709   9.359  0.0357 -0.4137 -0.1997
  297loPI   C2A 4744   5.580  17.010   9.003 -0.1811  0.1228 -0.0062
  297loPI   C3A 4745   5.459  16.998   8.641 -0.0487  0.1704  0.1627
  297loPI   C4A 4746   5.360  16.896   8.284  0.2307  0.0556 -0.0280
  297loPI   C5A 4747   5.400  16.581   7.895  0.1504  0.1561 -0.1672
  297loPI   C6A 4748   5.575  16.590   7.468 -0.3123  0.1928  0.0296
  297loPI   C1B 4749   6.022  16.961   9.301 -0.2451 -0.0164  0.1110
  297loPI   C2B 4750   6.040  17.002   8.870  0.0587  0.0427  0.1768
  297loPI   C3B 4751   5.953  16.971   8.470  0.1154  0.3215  0.0560
  297loPI   C4B 4752   5.845  16.953   8.028 -0.0830  0.2435  0.1330
  298loPI    C1 4753  13.474   7.875  10.124 -0.0583 -0.0009 -0.1297
  298loPI    C2 4754  13.351   7.554   9.918 -0.2277 -0.0011 -0.0298
  298loPI    C3 4755  13.315   7.562  10.317  0.0329  0.0287 -0.0054
  298loPI   PO4 4756  13.531   8.006   9.785  0.0866 -0.1175  0.1096
  298loPI   GL1 4757  13.671   7.880   9.446 -0.1169  0.1167 -0.1236
  298loPI   GL2 4758  13.387   7.727   9.378  0.0179 -0.0798  0.0477
  298loPI   C1A 4759  13.818   8.036   9.119 -0.0772  0.1978  0.0690
  298loPI   C2A 4760  13.707   8.123   8.751 -0.1267 -0.0136 -0.0998
  298loPI   C3A 4761  13.688   8.182   8.379 -0.1020  0.1068 -0.0335
  298loPI   C4A 4762  13.849   8.363   8.014 -0.0358  0.0912  0.4338
  298loPI   C5A 4763  14.207   8.525   7.701 -0.1339  0.0004 -0.2165
  298loPI   C6A 4764  14.598   8.792   7.643  0.0847  0.0158  0.0017
  298loPI   C1B 4765  13.293   8.164   9.223 -0.0639 -0.0255 -0.0985
  298loPI   C2B 4766  13.028   8.372   9.076  0.1467 -0.1041  0.1699
  298loPI   C3B 4767  12.909   8.485   8.722 -0.0047  0.0919  0.0602
  298loPI   C4B 4768  12.924   8.191   8.384  0.0202 -0.3959  0.0004
  299loPI    C1 4769  18.776  11.416  10.526 -0.0811 -0.0309 -0.0186
  299loPI    C2 4770  18.659  11.798  10.543 -0.0092 -0.0037 -0.1277
  299loPI    C3 4771  18.486  11.525  10.778 -0.1534  0.0721 -0.1450
  299loPI   PO4 4772  18.854  11.400  10.297  0.0668  0.3010  0.1324
  299loPI   GL1 4773  18.780  11.337   9.886 -0.0746  0.2709 -0.4723
  299loPI   GL2 4774  19.011  11.253   9.635 -0.2822 -0.1318 -0.2399
  299loPI   C1A 4775  18.571  11.622   9.582 -0.0724 -0.2133  0.2748
  299loPI   C2A 4776  18.092  11.671   9.300 -0.0093 -0.1086  0.0720
  299loPI   C3A 4777  17.907  11.603   8.832 -0.2782  0.2351 -0.0519
  299loPI   C4A 4778  17.777  11.469   8.417 -0.0901 -0.0405  0.2250
  299loPI   C5A 4779  17.735  11.467   8.122 -0.2550 -0.1884 -0.0910
  299loPI   C6A 4780  17.675  11.097   7.934 -0.0575 -0.0586 -0.2160
  299loPI   C1B 4781  18.904  11.194   9.155 -0.3895 -0.1827  0.0217
  299loPI   C2B 4782  18.711  11.126   8.774 -0.3425  0.0481 -0.1795
  299loPI   C3B 4783  18.691  10.989   8.254 -0.0179 -0.3210  0.2241
  299loPI   C4B 4784  18.656  10.809   7.835 -0.1054 -0.0322  0.2649
  300loPI    C1 4785   9.253  17.186  10.384 -0.2131  0.2094  0.1075
  300loPI    C2 4786   9.443  16.977  10.667 -0.0491 -0.1192 -0.2360
  300loPI    C3 4787   9.046  17.024  10.686  0.0108  0.2648  0.2931
  300loPI   PO4 4788   9.348  17.167  10.176 -0.0725 -0.2832  0.1342
  300loPI   GL1 4789   9.577  17.131   9.811  0.1014 -0.2255  0.1804
  300loPI   GL2 4790   9.400  17.373   9.688 -0.2537 -0.2104 -0.0894
  300loPI   C1A 4791   9.605  17.042   9.320 -0.2948  0.0640  0.1948
  300loPI   C2A 4792   9.657  17.130   8.768 -0.1619 -0.2172  0.1006
  300loPI   C3A 4793   9.801  17.021   8.422 -0.0386 -0.2238  0.2451
  300loPI   C4A 4794   9.855  17.135   8.026  0.1772 -0.1098  0.2450
  300loPI   C5A 4795   9.862  17.430   7.688 -0.3655  0.1669 -0.1078
  300loPI   C6A 4796  10.198  17.635   7.437  0.1724  0.1666 -0.0105
  300loPI   C1B 4797   9.387  17.545   9.223 -0.1251 -0.1214 -0.0605
  300loPI   C2B 4798   9.456  17.583   8.754 -0.0098 -0.0670  0.1140
  300loPI   C3B 4799   9.504  17.488   8.355 -0.1719  0.1007 -0.0339
  300loPI   C4B 4800   9.484  17.493   8.008  0.1088 -0.0549  0.1853
  301loPI    C1 4801   4.249  17.892  10.493  0.0859  0.0921  0.0009
  301loPI    C2 4802   4.436  17.730  10.807  0.0860  0.1252  0.0181
  301loPI    C3 4803   4.111  17.957  10.863 -0.0052  0.0046 -0.0173
  301loPI   PO4 4804   4.337  17.741  10.276 -0.3787 -0.2190 -0.1681
  301loPI   GL1 4805   4.545  17.671   9.980  0.2166 -0.1534 -0.0310
  301loPI   GL2 4806   4.753  17.646   9.822  0.4710  0.0978  0.0846
  301loPI   C1A 4807   4.343  17.734   9.523 -0.0166  0.0160  0.1319
  301loPI   C2A 4808   4.387  17.820   9.077 -0.0896 -0.2905 -0.2470
  301loPI   C3A 4809   4.189  18.070   8.786  0.3572  0.1398  0.1619
  301loPI   C4A 4810   4.052  17.996   8.449 -0.0661  0.1496 -0.2039
  301loPI   C5A 4811   4.058  18.308   8.134 -0.0917 -0.1775  0.4145
  301loPI   C6A 4812   3.702  18.536   7.952  0.0020 -0.0806 -0.3228
  301loPI   C1B 4813   4.921  17.689   9.470 -0.0437 -0.1409 -0.4588
  301loPI   C2B 4814   4.888  17.538   9.103 -0.3466 -0.2529  0.2120
  301loPI   C3B 4815   4.692  17.510   8.716  0.2424 -0.2815 -0.0149
  301loPI   C4B 4816   4.281  17.602   8.562  0.0839  0.0664 -0.0094
  302loPI    C1 4817   9.599   7.165   9.966  0.2168 -0.2737 -0.0916
  302loPI    C2 4818   9.926   7.275  10.169 -0.0378  0.0574  0.1501
  302loPI    C3 4819   9.852   7.433   9.809 -0.0064  0.0928  0.1590
  302loPI   PO4 4820   9.528   6.935   9.988  0.1909  0.1122  0.0897
  302loPI   GL1 4821   9.465   6.770   9.627 -0.0767  0.3455 -0.0606
  302loPI   GL2 4822   9.173   6.956   9.563 -0.2101 -0.1534 -0.2727
  302loPI   C1A 4823   9.509   6.704   9.185 -0.0955  0.1032 -0.1442
  302loPI   C2A 4824   9.548   6.664   8.823 -0.3069 -0.0534 -0.0621
  302loPI   C3A 4825   9.538   6.679   8.397 -0.1153  0.1673 -0.1169
  302loPI   C4A 4826   9.648   6.434   8.067  0.0229 -0.1793 -0.3664
  302loPI   C5A 4827   9.607   6.276   7.641 -0.1669  0.1265  0.0570
  302loPI   C6A 4828   9.447   6.255   7.184  0.1386  0.3041 -0.0074
  302loPI   C1B 4829   8.964   6.839   9.232  0.1246  0.1450 -0.2233
  302loPI   C2B 4830   8.668   6.837   8.845 -0.1824  0.2485  0.0996
  302loPI   C3B 4831   8.468   7.100   8.576  0.0327 -0.0380  0.0083
  302loPI   C4B 4832   8.337   7.172   8.144 -0.0186  0.0572  0.0343
  303loPI    C1 4833   7.997   5.040  10.206 -0.0187 -0.2089 -0.3007
  303loPI    C2 4834   8.048   4.675  10.362  0.0114 -0.0837 -0.0114
  303loPI    C3 4835   7.794   4.932  10.534  0.0995  0.0828 -0.1279
  303loPI   PO4 4836   7.872   4.947   9.916 -0.0350 -0.1295 -0.0111
  303loPI   GL1 4837   7.870   4.727   9.564  0.0731  0.0860  0.0396
  303loPI   GL2 4838   8.107   4.475   9.691  0.3047  0.3068  0.0262
  303loPI   C1A 4839   7.938   4.717   9.189 -0.5852  0.2403 -0.2700
  303loPI   C2A 4840   7.953   4.677   8.709 -0.0652  0.0082  0.0736
  303loPI   C3A 4841   8.109   4.444   8.391 -0.0400  0.0666 -0.0743
  303loPI   C4A 4842   8.271   4.555   8.000  0.3304 -0.0287  0.0271
  303loPI   C5A 4843   8.045   4.818   7.786  0.0750 -0.2001  0.1464
  303loPI   C6A 4844   7.940   5.269   7.880  0.0793 -0.0492  0.1307
  303loPI   C1B 4845   8.148   4.238   9.191  0.0499  0.0268  0.1413
  303loPI   C2B 4846   8.263   4.186   8.823 -0.1366 -0.1937  0.0319
  303loPI   C3B 4847   8.498   4.076   8.542  0.0802 -0.2027 -0.4238
  303loPI   C4B 4848   8.779   3.957   8.320  0.0450 -0.1093 -0.1896
  304loPI    C1 4849  18.811  14.945  10.209 -0.1717  0.1680  0.1324
  304loPI    C2 4850  18.971  14.626  10.391  0.0149  0.1417 -0.0732
  304loPI    C3 4851  19.159  14.979  10.404 -0.1810  0.2412  0.1361
  304loPI   PO4 4852  18.677  14.847  10.028  0.1784 -0.1886 -0.2131
  304loPI   GL1 4853  18.388  14.980   9.626  0.0932 -0.0026  0.0235
  304loPI   GL2 4854  18.061  15.044   9.655 -0.0683  0.2187 -0.3184
  304loPI   C1A 4855  18.547  14.949   9.299  0.0208 -0.2981  0.2497
  304loPI   C2A 4856  18.616  15.085   9.037 -0.0106 -0.5842  0.1505
  304loPI   C3A 4857  18.720  15.311   8.628 -0.0327 -0.1072 -0.1424
  304loPI   C4A 4858  18.888  15.633   8.510  0.1280  0.0219  0.0098
  304loPI   C5A 4859  19.013  15.775   8.176  0.4827  0.1030 -0.0595
  304loPI   C6A 4860  19.363  15.787   7.873  0.1675  0.1493  0.0146
  304loPI   C1B 4861  18.030  14.948   9.167 -0.1531  0.3157  0.0245
  304loPI   C2B 4862  18.102  14.934   8.704  0.1577  0.0855  0.4227
  304loPI   C3B 4863  18.119  14.927   8.262 -0.0670  0.2028  0.2062
  304loPI   C4B 4864  18.024  14.796   7.822 -0.0659 -0.1257  0.0507
  305loPI    C1 4865  17.726  10.649  10.276  0.2978  0.0530  0.2125
  305loPI    C2 4866  17.419  10.850  10.434  0.0258 -0.0939 -0.1163
  305loPI    C3 4867  17.619  10.584  10.655 -0.0061  0.0870  0.1351
  305loPI   PO4 4868  17.692  10.479   9.991 -0.2404  0.1346 -0.1683
  305loPI   GL1 4869  17.554  10.745   9.531 -0.1325  0.1154  0.0847
  305loPI   GL2 4870  17.257  10.596   9.604 -0.1862 -0.0878 -0.1916
  305loPI   C1A 4871  17.621  10.730   8.996  0.0110  0.1646 -0.0714
  305loPI   C2A 4872  17.791  10.468   8.701 -0.6726  0.1331 -0.0829
  305loPI   C3A 4873  17.657  10.428   8.204  0.3832  0.2914  0.0357
  305loPI   C4A 4874  17.497  10.595   7.841  0.1604 -0.2713  0.0888
  305loPI   C5A 4875  17.198  10.914   7.761  0.2173  0.1345 -0.0571
  305loPI   C6A 4876  17.203  11.268   7.916 -0.2622 -0.2602 -0.0660
  305loPI   C1B 4877  17.172  10.713   9.268  0.2138  0.1621  0.2065
  305loPI   C2B 4878  16.920  10.639   8.965 -0.4618  0.2952 -0.0327
  305loPI   C3B 4879  17.057  10.512   8.757  0.4814 -0.0475 -0.0890
  305loPI   C4B 4880  17.363  10.314   8.614 -0.2116 -0.0932 -0.0080
  306loPI    C1 4881   0.998   6.060   9.900  0.0199  0.1779  0.2548
  306loPI    C2 4882   0.835   5.854  10.201  0.0889 -0.1326  0.0836
  306loPI    C3 4883   1.169   6.065  10.262  0.0473 -0.1122  0.2477
  306loPI   PO4 4884   0.844   6.128   9.807 -0.0404  0.0043  0.2044
  306loPI   GL1 4885   0.655   5.987   9.410 -0.1131 -0.1502 -0.0743
  306loPI   GL2 4886   0.294   6.140   9.358 -0.0028 -0.1869  0.0863
  306loPI   C1A 4887   0.600   5.899   9.039  0.0739 -0.1413 -0.0622
  306loPI   C2A 4888   0.559   5.928   8.693  0.0223  0.0546 -0.0847
  306loPI   C3A 4889   0.787   6.085   8.330 -0.0871  0.3254  0.0655
  306loPI   C4A 4890   0.428   6.183   8.003 -0.1836 -0.1452 -0.1982
  306loPI   C5A 4891   0.388   6.303   7.550  0.1480  0.2204 -0.1103
  306loPI   C6A 4892   0.514   6.476   7.207  0.2070  0.0331  0.0343
  306loPI   C1B 4893   0.129   6.250   8.975  0.1145 -0.2297  0.0148
  306loPI   C2B 4894   0.021   6.376   8.541 -0.2760  0.2380 -0.2638
  306loPI   C3B 4895  -0.026   6.510   8.108 -0.1324 -0.0286 -0.2484
  306loPI   C4B 4896  -0.227   6.541   7.573  0.0797 -0.0146  0.0632
  307loPI    C1 4897   8.898  17.670  10.507  0.1020 -0.1664 -0.0591
  307loPI    C2 4898   9.149  17.518  10.778  0.1739 -0.3359 -0.2184
  307loPI    C3 4899   9.263  17.828  10.552 -0.0600  0.1256  0.2751
  307loPI   PO4 4900   8.844  17.435  10.316 -0.1409  0.0548 -0.0036
  307loPI   GL1 4901   8.857  17.382   9.837  0.3117 -0.0550 -0.0506
  307loPI   GL2 4902   8.627  17.140   9.858 -0.0190  0.0354 -0.1180
  307loPI   C1A 4903   8.934  17.541   9.439  0.1534 -0.1732 -0.1038
  307loPI   C2A 4904   8.932  17.521   8.917 -0.0548 -0.1888 -0.1929
  307loPI   C3A 4905   9.000  17.515   8.455  0.1772  0.1163 -0.0159
  307loPI   C4A 4906   8.994  17.621   8.040  0.0263  0.0548  0.1654
  307loPI   C5A 4907   8.968  17.274   7.724 -0.0582  0.0925 -0.0813
  307loPI   C6A 4908   8.914  17.004   7.468 -0.0991 -0.1945  0.1242
  307loPI   C1B 4909   8.523  17.099   9.505 -0.2362 -0.1975  0.1001
  307loPI   C2B 4910   8.690  17.080   9.034  0.2014  0.2968 -0.0612
  307loPI   C3B 4911   8.630  17.141   8.621 -0.1362  0.1268 -0.3532
  307loPI   C4B 4912   8.791  17.119   8.169 -0.0869  0.0329 -0.0945
  308loPI    C1 4913  10.506   0.198  10.664  0.1406  0.1257  0.0343
  308loPI    C2 4914  10.532   0.572  10.803 -0.1498  0.0836  0.2086
  308loPI    C3 4915  10.525   0.264  11.058 -0.2708 -0.0189  0.0827
  308loPI   PO4 4916  10.642   0.163  10.517  0.1729  0.1471  0.0690
  308loPI   GL1 4917  10.714   0.127  10.120 -0.3761 -0.2172  0.0067
  308loPI   GL2 4918  10.460   0.087  10.024  0.2168 -0.0843  0.1528
  308loPI   C1A 4919  10.901   0.076   9.687 -0.1272 -0.0027  0.0765
  308loPI   C2A 4920  10.776  -0.012   9.207  0.0822 -0.1722 -0.1765
  308loPI   C3A 4921  10.658   0.022   8.684 -0.0116 -0.2016  0.0425
  308loPI   C4A 4922  10.819   0.004   8.294 -0.1362  0.2518 -0.1109
  308loPI   C5A 4923  11.030   0.079   7.954 -0.1700  0.0005 -0.0913
  308loPI   C6A 4924  11.318  -0.063   7.625 -0.0652 -0.1204  0.0180
  308loPI   C1B 4925  10.365  -0.012   9.680 -0.0879  0.0453 -0.2010
  308loPI   C2B 4926  10.237  -0.025   9.331  0.1450  0.0121 -0.0597
  308loPI   C3B 4927  10.240   0.047   9.011  0.2096 -0.2054 -0.1164
  308loPI   C4B 4928  10.205   0.019   8.498  0.0347 -0.2216  0.2212
  309loPI    C1 4929  13.824   6.585  10.473  0.0500  0.3264 -0.0413
  309loPI    C2 4930  13.601   6.285  10.614  0.2951  0.1553 -0.0127
  309loPI    C3 4931  13.533   6.659  10.737  0.1615  0.0772  0.1552
  309loPI   PO4 4932  13.874   6.619  10.263 -0.0654  0.2113  0.3311
  309loPI   GL1 4933  13.827   6.599   9.854 -0.0114 -0.0564 -0.0797
  309loPI   GL2 4934  13.896   6.359   9.813  0.2839 -0.0887  0.0557
  309loPI   C1A 4935  14.220   6.643   9.571 -0.0143  0.0077  0.2090
  309loPI   C2A 4936  14.150   6.485   9.183  0.1255  0.2044 -0.1148
  309loPI   C3A 4937  14.284   6.485   8.748 -0.1328  0.0373  0.0676
  309loPI   C4A 4938  14.444   6.161   8.359  0.2781 -0.0781 -0.1025
  309loPI   C5A 4939  14.384   6.223   7.980  0.0272  0.1368 -0.1202
  309loPI   C6A 4940  14.383   6.578   7.838  0.2059 -0.2121  0.0083
  309loPI   C1B 4941  13.718   6.291   9.436 -0.1454 -0.1778 -0.2297
  309loPI   C2B 4942  13.552   6.145   9.066 -0.0307  0.1343 -0.1955
  309loPI   C3B 4943  13.455   6.017   8.656  0.0255  0.0652 -0.2233
  309loPI   C4B 4944  13.234   6.031   8.228  0.1741  0.1832 -0.0136
  310loPI    C1 4945  11.550   4.764  10.081 -0.0397 -0.0611 -0.0370
  310loPI    C2 4946  11.429   4.818  10.458  0.2213  0.0119  0.0385
  310loPI    C3 4947  11.383   4.462  10.283 -0.2371  0.0775  0.0107
  310loPI   PO4 4948  11.410   4.908   9.955 -0.0387 -0.0335  0.2781
  310loPI   GL1 4949  11.338   5.071   9.536 -0.0462  0.2051 -0.0180
  310loPI   GL2 4950  11.529   4.840   9.439 -0.1229 -0.0784 -0.0273
  310loPI   C1A 4951  11.265   5.431   9.331  0.2349 -0.3086 -0.0202
  310loPI   C2A 4952  11.136   5.451   8.806  0.0210  0.0502 -0.0025
  310loPI   C3A 4953  10.804   5.364   8.439 -0.0690 -0.0612  0.0040
  310loPI   C4A 4954  11.058   5.142   8.221 -0.0905 -0.0131 -0.1504
  310loPI   C5A 4955  10.874   4.894   7.862  0.1635 -0.4614  0.3515
  310loPI   C6A 4956  10.808   4.482   7.777  0.2312  0.0571 -0.1266
  310loPI   C1B 4957  11.487   5.082   8.972 -0.0081  0.2219 -0.4770
  310loPI   C2B 4958  11.467   4.976   8.561 -0.0848 -0.0460 -0.1716
  310loPI   C3B 4959  11.447   4.964   8.023  0.2268  0.1212  0.0474
  310loPI   C4B 4960  11.839   5.103   7.718 -0.2423  0.1013  0.2950
  311loPI    C1 4961   3.423  11.374   9.567  0.0683 -0.3153  0.2236
  311loPI    C2 4962   3.750  11.523   9.392 -0.1967 -0.0108 -0.0259
  311loPI    C3 4963   3.736  11.485   9.790  0.0708  0.1481  0.0011
  311loPI   PO4 4964   3.340  11.196   9.384 -0.1732 -0.1411 -0.1166
  311loPI   GL1 4965   3.081  10.979   9.186  0.0461 -0.2424 -0.1451
  311loPI   GL2 4966   2.920  10.826   9.208 -0.0886 -0.1469  0.3532
  311loPI   C1A 4967   3.222  11.074   8.727  0.0133 -0.2230 -0.1038
  311loPI   C2A 4968   3.469  10.774   8.471  0.0067 -0.1146 -0.3694
  311loPI   C3A 4969   3.494  10.553   8.113 -0.1111  0.1393  0.0232
  311loPI   C4A 4970   3.730  10.302   7.907 -0.3419  0.0235 -0.1810
  311loPI   C5A 4971   3.884  10.164   7.526  0.2173 -0.1314 -0.0269
  311loPI   C6A 4972   3.700  10.136   7.133 -0.0101  0.1867 -0.1558
  311loPI   C1B 4973   2.960  10.693   8.690 -0.3106 -0.0327 -0.0855
  311loPI   C2B 4974   2.820  10.818   8.275  0.0823 -0.3014 -0.0372
  311loPI   C3B 4975   2.828  11.012   7.894 -0.0962  0.1409 -0.1204
  311loPI   C4B 4976   2.443  10.955   7.632  0.0554  0.2898  0.0526
  312loPI    C1 4977   7.995   2.453  10.575 -0.3476  0.1022 -0.2091
  312loPI    C2 4978   7.879   2.631  10.914 -0.2304 -0.0102 -0.1087
  312loPI    C3 4979   7.896   2.232  10.894  0.2813  0.0023 -0.0695
  312loPI   PO4 4980   8.020   2.582  10.419 -0.2465  0.0894 -0.1320
  312loPI   GL1 4981   8.156   2.620  10.025  0.1628 -0.0507 -0.3353
  312loPI   GL2 4982   7.912   2.356   9.844 -0.1555 -0.3921  0.1545
  312loPI   C1A 4983   8.288   2.603   9.661 -0.3207  0.0006  0.2524
  312loPI   C2A 4984   8.185   2.387   9.314 -0.1985  0.4020  0.1560
  312loPI   C3A 4985   8.235   2.296   8.931 -0.0920 -0.0338  0.0523
  312loPI   C4A 4986   8.231   2.171   8.578 -0.0017  0.0234  0.2577
  312loPI   C5A 4987   8.175   2.102   8.168 -0.2797  0.0908 -0.1780
  312loPI   C6A 4988   7.981   2.069   7.749  0.3206  0.1415  0.0519
  312loPI   C1B 4989   7.713   2.296   9.404  0.1342  0.0717  0.1799
  312loPI   C2B 4990   7.744   2.158   8.941  0.1164  0.1038 -0.2269
  312loPI   C3B 4991   7.757   2.204   8.517 -0.0031 -0.0887 -0.2312
  312loPI   C4B 4992   7.702   2.239   8.158  0.2004 -0.0887  0.1809
  313loPI    C1 4993   2.302  10.592  10.165  0.0256  0.0535  0.0863
  313loPI    C2 4994   2.639  10.723  10.335 -0.0261 -0.0357  0.2604
  313loPI    C3 4995   2.525  10.343  10.384 -0.1193 -0.0226  0.1493
  313loPI   PO4 4996   2.334  10.594   9.903  0.1033 -0.3139 -0.2315
  313loPI   GL1 4997   2.263  10.903   9.550 -0.1705 -0.0870  0.0625
  313loPI   GL2 4998   2.185  11.236   9.570  0.1036 -0.1618 -0.1142
  313loPI   C1A 4999   2.277  10.784   9.128  0.0034  0.3648  0.2953
  313loPI   C2A 5000   2.406  10.661   8.723  0.0526 -0.1306 -0.1141
  313loPI   C3A 5001   2.335  10.538   8.285 -0.0488 -0.2411  0.1428
  313loPI   C4A 5002   2.223  10.597   7.822 -0.2067  0.1648  0.1457
  313loPI   C5A 5003   2.104  10.521   7.455  0.0137  0.0266 -0.1107
  313loPI   C6A 5004   2.279  10.624   7.063 -0.0966  0.1126  0.2133
  313loPI   C1B 5005   1.983  11.135   9.194  0.0994 -0.0032 -0.2817
  313loPI   C2B 5006   1.900  11.015   8.757  0.1260 -0.1994  0.2209
  313loPI   C3B 5007   1.721  11.170   8.489 -0.0623  0.2265 -0.1199
  313loPI   C4B 5008   1.701  11.496   8.318 -0.0084 -0.0144  0.0912
  314loPI    C1 5009  16.758   3.687   9.987 -0.2051  0.2232  0.0076
  314loPI    C2 5010  16.954   4.016   9.873  0.0616 -0.0503 -0.3529
  314loPI    C3 5011  16.960   3.901  10.256  0.3291  0.1262 -0.3017
  314loPI   PO4 5012  16.663   3.583   9.670 -0.1993 -0.0721  0.0936
  314loPI   GL1 5013  16.798   3.583   9.266 -0.2649 -0.4120 -0.4108
  314loPI   GL2 5014  16.877   3.384   9.105  0.4116 -0.1605 -0.0391
  314loPI   C1A 5015  16.481   3.635   8.881 -0.0192  0.1318 -0.1596
  314loPI   C2A 5016  16.101   3.530   8.635  0.4574 -0.0653  0.0354
  314loPI   C3A 5017  16.105   3.492   8.175  0.1964 -0.4281 -0.1187
  314loPI   C4A 5018  16.176   3.423   7.831 -0.1635  0.2831  0.0487
  314loPI   C5A 5019  16.538   3.109   7.645  0.2233 -0.0790  0.1457
  314loPI   C6A 5020  16.737   3.092   7.245 -0.1396  0.0123  0.2570
  314loPI   C1B 5021  17.076   3.337   8.748 -0.0574 -0.0497  0.2170
  314loPI   C2B 5022  17.270   3.653   8.391  0.1339  0.0030 -0.2959
  314loPI   C3B 5023  17.505   3.881   8.105  0.1234  0.2779  0.0586
  314loPI   C4B 5024  17.943   3.942   8.086 -0.0561 -0.3365  0.1952
  315loPI    C1 5025   0.639   0.610  10.297 -0.2897 -0.0510 -0.2528
  315loPI    C2 5026   0.291   0.452  10.414 -0.0130 -0.3824  0.1544
  315loPI    C3 5027   0.609   0.436  10.655  0.1324  0.4756  0.0536
  315loPI   PO4 5028   0.589   0.545   9.992  0.1336  0.1080  0.0532
  315loPI   GL1 5029   0.494   0.873   9.612 -0.4055  0.1918 -0.2529
  315loPI   GL2 5030   0.726   0.619   9.548  0.2701  0.0400  0.1103
  315loPI   C1A 5031   0.399   1.240   9.311  0.3835  0.4057 -0.0685
  315loPI   C2A 5032   0.682   1.374   8.966  0.0130  0.1856  0.0286
  315loPI   C3A 5033   0.706   1.354   8.476  0.0986 -0.0578 -0.0154
  315loPI   C4A 5034   0.760   1.303   8.042  0.1989 -0.1419 -0.1392
  315loPI   C5A 5035   0.839   1.514   7.707 -0.1817 -0.3270 -0.0304
  315loPI   C6A 5036   1.015   1.974   7.525  0.3136  0.2815  0.1865
  315loPI   C1B 5037   0.884   0.902   9.219  0.1576 -0.2709 -0.1828
  315loPI   C2B 5038   0.754   0.827   8.806  0.0783 -0.3000 -0.0095
  315loPI   C3B 5039   0.802   0.866   8.407  0.1190  0.0742 -0.2092
  315loPI   C4B 5040   1.053   0.892   8.038 -0.0242  0.0854 -0.3285
  316loPI    C1 5041   2.699  15.298  10.076 -0.0657  0.1501 -0.2205
  316loPI    C2 5042   2.522  15.548  10.332  0.0160  0.0212 -0.0354
  316loPI    C3 5043   2.832  15.327  10.452  0.1940  0.1180 -0.3079
  316loPI   PO4 5044   2.491  15.119  10.034 -0.0545  0.1308  0.1642
  316loPI   GL1 5045   2.355  14.893   9.660 -0.0355  0.3999  0.0087
  316loPI   GL2 5046   2.689  14.868   9.675 -0.1062 -0.0770 -0.0204
  316loPI   C1A 5047   2.516  15.289   9.449  0.0838 -0.3804  0.0585
  316loPI   C2A 5048   2.449  15.394   9.046 -0.2056  0.0502  0.0054
  316loPI   C3A 5049   2.531  15.424   8.573 -0.3069  0.0583  0.2048
  316loPI   C4A 5050   2.663  15.657   8.119  0.0789 -0.1502  0.0798
  316loPI   C5A 5051   2.782  15.898   7.798 -0.0671 -0.1220 -0.1497
  316loPI   C6A 5052   2.664  16.150   7.503  0.0745 -0.1143  0.0489
  316loPI   C1B 5053   2.857  14.958   9.263  0.1244 -0.2685  0.0045
  316loPI   C2B 5054   3.102  15.126   8.911 -0.1544  0.0557 -0.1787
  316loPI   C3B 5055   2.986  15.383   8.441 -0.3372  0.1726 -0.2833
  316loPI   C4B 5056   3.189  15.406   7.982  0.2117 -0.0647 -0.2927
  317loPI    C1 5057  15.219  11.989  10.306  0.2221  0.0670  0.0847
  317loPI    C2 5058  15.369  12.153  10.639 -0.0545  0.1476  0.1721
  317loPI    C3 5059  15.124  12.365  10.404  0.1316  0.0879 -0.0805
  317loPI   PO4 5060  15.411  11.858  10.179 -0.0247  0.0466 -0.1145
  317loPI   GL1 5061  15.564  11.881   9.877 -0.0925  0.0184 -0.1112
  317loPI   GL2 5062  15.517  11.664   9.631 -0.2836 -0.0022  0.0745
  317loPI   C1A 5063  15.527  12.192   9.535  0.0243 -0.0872 -0.5610
  317loPI   C2A 5064  15.541  12.050   9.123 -0.1629  0.0274 -0.0061
  317loPI   C3A 5065  15.514  12.112   8.757  0.0291 -0.2556 -0.1514
  317loPI   C4A 5066  15.486  12.227   8.387 -0.0117  0.4152  0.0711
  317loPI   C5A 5067  15.510  12.257   7.905  0.3163 -0.0751 -0.1432
  317loPI   C6A 5068  15.911  12.521   7.646  0.1238 -0.0881 -0.0361
  317loPI   C1B 5069  15.605  11.496   9.244  0.2947 -0.2174  0.0914
  317loPI   C2B 5070  15.618  11.390   8.881  0.1465 -0.0895 -0.0562
  317loPI   C3B 5071  15.738  11.348   8.357 -0.1358  0.2035  0.2065
  317loPI   C4B 5072  15.724  11.316   7.836  0.0842 -0.2752 -0.2884
  318loPI    C1 5073  11.717   3.776  10.467  0.0305 -0.0564 -0.0940
  318loPI    C2 5074  11.480   3.459  10.526  0.0595 -0.0715 -0.0577
  318loPI    C3 5075  11.854   3.457  10.666  0.0413  0.0019 -0.0074
  318loPI   PO4 5076  11.714   3.851  10.204  0.1291 -0.1876 -0.1032
  318loPI   GL1 5077  11.489   4.023   9.889 -0.1803  0.0001  0.1116
  318loPI   GL2 5078  11.566   4.250   9.853  0.2765  0.0341 -0.2074
  318loPI   C1A 5079  11.720   3.800   9.544  0.0355 -0.0268 -0.1122
  318loPI   C2A 5080  12.051   3.911   9.215 -0.3183  0.2732  0.1375
  318loPI   C3A 5081  11.956   4.143   8.937  0.1777 -0.2405  0.0062
  318loPI   C4A 5082  11.921   4.179   8.556 -0.0389 -0.1778 -0.3781
  318loPI   C5A 5083  12.076   4.230   8.214  0.2565  0.1715  0.0072
  318loPI   C6A 5084  12.076   3.927   7.887  0.0497 -0.0754  0.0335
  318loPI   C1B 5085  11.388   4.182   9.415 -0.0605 -0.3113 -0.0640
  318loPI   C2B 5086  11.425   4.131   9.063  0.0940 -0.3315  0.2289
  318loPI   C3B 5087  11.462   4.025   8.644  0.2187  0.0121 -0.0707
  318loPI   C4B 5088  11.577   3.878   8.215  0.1273  0.1547 -0.1891
  319loPI    C1 5089   3.501  12.823  10.137 -0.1002 -0.2138  0.4348
  319loPI    C2 5090   3.838  13.039  10.143 -0.1770 -0.0684 -0.0417
  319loPI    C3 5091   3.524  13.153  10.363 -0.0318 -0.0127  0.1400
  319loPI   PO4 5092   3.360  12.824   9.890 -0.1675  0.0050  0.2566
  319loPI   GL1 5093   3.224  12.981   9.478 -0.0229  0.0703  0.2222
  319loPI   GL2 5094   3.526  12.835   9.389  0.1594 -0.0741  0.2750
  319loPI   C1A 5095   3.165  12.935   8.969 -0.1739 -0.1963 -0.1502
  319loPI   C2A 5096   3.277  13.006   8.609 -0.1202  0.0784  0.1819
  319loPI   C3A 5097   2.953  13.152   8.267  0.1575 -0.2018 -0.2826
  319loPI   C4A 5098   2.836  13.024   7.911 -0.2949  0.1684  0.0361
  319loPI   C5A 5099   3.001  12.692   7.645  0.1354  0.2625  0.2889
  319loPI   C6A 5100   3.047  12.219   7.748  0.4981  0.1213 -0.1452
  319loPI   C1B 5101   3.742  13.093   9.116  0.1718 -0.3442 -0.0443
  319loPI   C2B 5102   3.725  13.188   8.773  0.1712 -0.2209  0.1989
  319loPI   C3B 5103   3.608  13.368   8.390  0.0645  0.0978 -0.1065
  319loPI   C4B 5104   3.482  13.293   7.894  0.0590 -0.3304  0.1663
  320loPI    C1 5105  11.874   9.512  10.465  0.0359  0.0628 -0.1783
  320loPI    C2 5106  11.547   9.559  10.691  0.1877  0.1344  0.0295
  320loPI    C3 5107  11.790   9.246  10.752  0.1141  0.0345 -0.1812
  320loPI   PO4 5108  11.818   9.537  10.214  0.0294 -0.2343  0.1875
  320loPI   GL1 5109  11.736   9.689   9.821 -0.0840 -0.0605  0.1074
  320loPI   GL2 5110  11.801   9.292   9.774  0.2006  0.1274 -0.0989
  320loPI   C1A 5111  11.817   9.798   9.376  0.0287 -0.0950  0.0477
  320loPI   C2A 5112  11.668   9.878   8.915 -0.4766  0.0020 -0.3050
  320loPI   C3A 5113  11.679  10.182   8.599  0.1014  0.2158  0.1941
  320loPI   C4A 5114  11.774  10.566   8.277 -0.2576  0.0330 -0.1244
  320loPI   C5A 5115  12.087  10.653   7.986 -0.2672 -0.0808  0.0435
  320loPI   C6A 5116  12.245  10.470   7.601 -0.1531  0.0681 -0.1753
  320loPI   C1B 5117  11.976   9.332   9.316  0.1046 -0.1213 -0.1470
  320loPI   C2B 5118  12.323   9.308   8.959 -0.0135 -0.2042 -0.2310
  320loPI   C3B 5119  12.300   9.187   8.508 -0.0860 -0.0649  0.0984
  320loPI   C4B 5120  12.448   9.005   7.970 -0.0477  0.1727  0.0710
  321loPI    C1 5121  12.504   4.372  10.430  0.2250  0.2288 -0.1942
  321loPI    C2 5122  12.894   4.422  10.507  0.1941  0.2560 -0.0523
  321loPI    C3 5123  12.627   4.684  10.648  0.1384  0.3288 -0.2872
  321loPI   PO4 5124  12.476   4.403  10.142 -0.1692 -0.1292  0.1270
  321loPI   GL1 5125  12.477   4.786   9.806  0.3284 -0.1817  0.0398
  321loPI   GL2 5126  12.437   4.467   9.606  0.0600 -0.0794  0.1034
  321loPI   C1A 5127  12.554   4.973   9.455 -0.1889  0.1455  0.2941
  321loPI   C2A 5128  12.512   5.056   9.026  0.0365  0.1052 -0.0105
  321loPI   C3A 5129  12.480   5.041   8.612  0.5140  0.2493 -0.1336
  321loPI   C4A 5130  12.567   5.169   8.194 -0.3078 -0.0778  0.1273
  321loPI   C5A 5131  12.781   5.187   7.979 -0.1432  0.1279  0.1545
  321loPI   C6A 5132  12.705   5.535   7.675  0.0658 -0.3100  0.2701
  321loPI   C1B 5133  12.294   4.591   9.209 -0.1689 -0.5044 -0.1540
  321loPI   C2B 5134  12.223   4.609   8.779 -0.0399 -0.0676  0.0937
  321loPI   C3B 5135  12.181   4.694   8.376  0.0820 -0.2898 -0.2859
  321loPI   C4B 5136  12.205   4.851   8.001 -0.1006  0.1659 -0.0266
  322loPI    C1 5137  10.106   6.368  10.261 -0.1232 -0.3636  0.0710
  322loPI    C2 5138   9.779   6.528  10.427  0.0501  0.0900 -0.0089
  322loPI    C3 5139  10.085   6.416  10.658  0.0957  0.2671  0.0180
  322loPI   PO4 5140  10.011   6.246  10.079 -0.1033  0.1387 -0.3336
  322loPI   GL1 5141   9.841   6.300   9.694 -0.0343  0.0654  0.2954
  322loPI   GL2 5142   9.699   6.093   9.763 -0.1558  0.1965 -0.2017
  322loPI   C1A 5143  10.016   6.472   9.186 -0.1397  0.5203  0.1424
  322loPI   C2A 5144  10.066   6.544   8.746  0.2170  0.1800 -0.1128
  322loPI   C3A 5145  10.072   6.551   8.276  0.0126 -0.1374 -0.1940
  322loPI   C4A 5146  10.131   6.610   7.915  0.1127 -0.0752  0.2701
  322loPI   C5A 5147  10.140   6.285   7.568 -0.1262  0.0317 -0.0292
  322loPI   C6A 5148   9.928   6.050   7.313 -0.1062 -0.0917  0.0137
  322loPI   C1B 5149   9.915   5.946   9.386  0.2096  0.1139 -0.0237
  322loPI   C2B 5150  10.319   6.109   9.223  0.4064 -0.3033  0.0026
  322loPI   C3B 5151  10.531   6.293   8.845  0.0998 -0.2562  0.1422
  322loPI   C4B 5152  10.585   6.386   8.314  0.0678  0.2116 -0.0207
  323loPI    C1 5153   2.473  14.005  10.007 -0.0381 -0.0427 -0.0027
  323loPI    C2 5154   2.689  14.090  10.334  0.0129  0.0127 -0.0504
  323loPI    C3 5155   2.394  13.820  10.353 -0.1287  0.1750  0.0951
  323loPI   PO4 5156   2.566  14.053   9.858  0.1411  0.0705  0.0111
  323loPI   GL1 5157   2.771  13.859   9.597  0.3564  0.1620  0.0107
  323loPI   GL2 5158   2.560  13.658   9.415 -0.0932  0.1518 -0.2841
  323loPI   C1A 5159   3.031  13.805   9.164 -0.0620  0.3236 -0.0068
  323loPI   C2A 5160   2.965  13.998   8.791 -0.1638  0.2462  0.3341
  323loPI   C3A 5161   2.987  14.127   8.288 -0.1194 -0.0521  0.0222
  323loPI   C4A 5162   2.828  13.973   7.840  0.2916 -0.0906  0.0087
  323loPI   C5A 5163   2.588  13.680   7.545  0.0996 -0.0693 -0.1992
  323loPI   C6A 5164   2.828  13.658   7.168 -0.1198  0.2712  0.0225
  323loPI   C1B 5165   2.587  13.564   9.007 -0.1887  0.3111  0.1031
  323loPI   C2B 5166   2.528  13.837   8.700  0.0773 -0.2895  0.3450
  323loPI   C3B 5167   2.668  13.789   8.313  0.4290  0.0316  0.0336
  323loPI   C4B 5168   2.534  13.419   8.019  0.0714  0.0478 -0.3273
  324loPI    C1 5169  11.748   1.952  10.893  0.0109  0.5819  0.1650
  324loPI    C2 5170  11.482   1.754  11.117 -0.1670  0.4343 -0.1688
  324loPI    C3 5171  11.857   1.802  11.248 -0.1821  0.0749  0.0192
  324loPI   PO4 5172  11.597   1.933  10.655  0.0879 -0.1811  0.1361
  324loPI   GL1 5173  11.390   1.656  10.322 -0.1531 -0.0489  0.1723
  324loPI   GL2 5174  11.454   1.340  10.223 -0.2144 -0.0707  0.2940
  324loPI   C1A 5175  11.367   1.828   9.855 -0.0424  0.0644  0.0605
  324loPI   C2A 5176  11.231   1.900   9.460  0.0219  0.0421  0.0985
  324loPI   C3A 5177  11.133   1.697   9.207  0.2001 -0.1979  0.2519
  324loPI   C4A 5178  10.926   1.362   8.947 -0.0894  0.4230 -0.0363
  324loPI   C5A 5179  10.859   1.304   8.543 -0.4069 -0.2647 -0.0381
  324loPI   C6A 5180  11.118   1.308   8.109 -0.0680 -0.1815 -0.1384
  324loPI   C1B 5181  11.629   1.388   9.802  0.2187 -0.1287  0.1238
  324loPI   C2B 5182  11.457   1.374   9.403  0.2449  0.0630  0.0935
  324loPI   C3B 5183  11.479   1.358   8.972 -0.2131  0.0493  0.0490
  324loPI   C4B 5184  11.392   1.531   8.579 -0.0810 -0.2723  0.3728
  325loPI    C1 5185   5.398  14.265  10.502 -0.1136  0.0985 -0.1780
  325loPI    C2 5186   5.255  14.610  10.643  0.0709  0.0047  0.2561
  325loPI    C3 5187   5.590  14.456  10.797  0.1232 -0.2484 -0.1009
  325loPI   PO4 5188   5.456  14.328  10.250  0.2403  0.3998 -0.0176
  325loPI   GL1 5189   5.469  14.200   9.904  0.1648  0.1275  0.3996
  325loPI   GL2 5190   5.509  14.524   9.778  0.0263  0.1568  0.1965
  325loPI   C1A 5191   5.377  14.045   9.408 -0.1188  0.2514 -0.1851
  325loPI   C2A 5192   5.632  14.136   8.935  0.0080  0.2276 -0.0750
  325loPI   C3A 5193   5.615  14.316   8.502 -0.3139 -0.0796 -0.0569
  325loPI   C4A 5194   5.640  14.717   8.233  0.1072  0.0648 -0.1117
  325loPI   C5A 5195   5.587  14.858   7.801 -0.1440  0.1135 -0.2255
  325loPI   C6A 5196   5.489  15.061   7.324  0.1561  0.3268 -0.1552
  325loPI   C1B 5197   5.383  14.520   9.410 -0.0173 -0.0367  0.2271
  325loPI   C2B 5198   5.144  14.256   9.031  0.0362 -0.0560 -0.0783
  325loPI   C3B 5199   5.189  14.054   8.625 -0.1491 -0.1293  0.0249
  325loPI   C4B 5200   5.051  13.889   8.286 -0.0681 -0.2104  0.0876
  326loPI    C1 5201  16.389  10.066  10.529  0.0348 -0.2228 -0.2332
  326loPI    C2 5202  16.670  10.318  10.395  0.0470 -0.1687 -0.1070
  326loPI    C3 5203  16.731  10.110  10.731 -0.0750 -0.1365 -0.0645
  326loPI   PO4 5204  16.309   9.898  10.316 -0.1905 -0.1565  0.0626
  326loPI   GL1 5205  16.554   9.821   9.968 -0.1602  0.1587  0.0988
  326loPI   GL2 5206  16.476   9.574   9.881  0.0568  0.0040  0.2622
  326loPI   C1A 5207  16.522   9.968   9.552 -0.2548 -0.2637 -0.0478
  326loPI   C2A 5208  16.494  10.028   9.178  0.0327  0.2021  0.4630
  326loPI   C3A 5209  16.614  10.208   8.890 -0.4548 -0.0000 -0.1121
  326loPI   C4A 5210  16.916  10.125   8.499 -0.3978  0.0940  0.0579
  326loPI   C5A 5211  17.120  10.192   8.138 -0.0935 -0.0972  0.2218
  326loPI   C6A 5212  16.991  10.355   7.880 -0.2849  0.3335 -0.1692
  326loPI   C1B 5213  16.532   9.436   9.461  0.0255  0.1629  0.3277
  326loPI   C2B 5214  16.425   9.018   9.260  0.1152 -0.0637 -0.1053
  326loPI   C3B 5215  16.345   8.859   8.890  0.2088 -0.0112  0.2903
  326loPI   C4B 5216  16.330   8.609   8.415  0.3120 -0.3523  0.0998
  327loPI    C1 5217   9.981  13.681  10.348 -0.1477 -0.0380  0.0805
  327loPI    C2 5218   9.784  13.338  10.411 -0.2440  0.0368  0.1916
  327loPI    C3 5219  10.143  13.397  10.578 -0.2371 -0.0010  0.1903
  327loPI   PO4 5220   9.927  13.735  10.053  0.0736 -0.0296 -0.1106
  327loPI   GL1 5221   9.931  13.598   9.667  0.1389  0.3086 -0.2194
  327loPI   GL2 5222   9.697  13.724   9.587 -0.0410  0.1515  0.0873
  327loPI   C1A 5223  10.186  13.422   9.320 -0.0097  0.2618  0.2469
  327loPI   C2A 5224  10.262  13.298   8.861  0.2593  0.0396  0.0539
  327loPI   C3A 5225  10.175  13.005   8.460 -0.1776 -0.2994 -0.2016
  327loPI   C4A 5226   9.981  13.048   8.009 -0.1267  0.1521 -0.2251
  327loPI   C5A 5227   9.843  12.979   7.661 -0.2605  0.0566 -0.0184
  327loPI   C6A 5228   9.624  12.883   7.476  0.2525  0.3506  0.0123
  327loPI   C1B 5229   9.626  13.440   9.271 -0.0720 -0.0664  0.0798
  327loPI   C2B 5230   9.652  13.386   8.864 -0.1557  0.0265 -0.0230
  327loPI   C3B 5231   9.574  13.232   8.447 -0.2657 -0.0469 -0.0586
  327loPI   C4B 5232   9.489  13.218   8.051  0.2631 -0.1177 -0.0573
  328loPI    C1 5233   3.034  12.668  10.317  0.0652 -0.0230  0.1099
  328loPI    C2 5234   2.852  12.672  10.674 -0.3214  0.2799 -0.0833
  328loPI    C3 5235   3.143  12.935  10.595 -0.3220  0.2954 -0.0347
  328loPI   PO4 5236   2.827  12.625  10.138  0.3422 -0.1825  0.0834
  328loPI   GL1 5237   2.881  12.598   9.759  0.3494  0.0640  0.0578
  328loPI   GL2 5238   3.171  12.408   9.511  0.0888  0.2275  0.0497
  328loPI   C1A 5239   2.737  12.479   9.305 -0.1105 -0.5356  0.1162
  328loPI   C2A 5240   2.825  12.531   8.877 -0.0663 -0.1054  0.2971
  328loPI   C3A 5241   2.767  12.652   8.489 -0.2206 -0.0922  0.0492
  328loPI   C4A 5242   2.600  12.520   8.227 -0.0301 -0.2076 -0.0513
  328loPI   C5A 5243   2.553  12.520   7.737 -0.5056 -0.1231  0.3066
  328loPI   C6A 5244   2.253  12.522   7.492  0.1067 -0.1426 -0.2208
  328loPI   C1B 5245   3.363  12.489   9.060  0.2225 -0.1079  0.2490
  328loPI   C2B 5246   3.260  12.490   8.584  0.1035 -0.0124 -0.0344
  328loPI   C3B 5247   3.198  12.630   8.202 -0.0232 -0.1900  0.0033
  328loPI   C4B 5248   3.391  12.815   7.838  0.1602  0.0812  0.3630
  329loPI    C1 5249   9.707  18.567  10.695 -0.0101  0.1188  0.1956
  329loPI    C2 5250   9.605  18.189  10.774  0.0361  0.0511 -0.0602
  329loPI    C3 5251   9.484  18.483  11.016  0.1384 -0.1431  0.2330
  329loPI   PO4 5252   9.788  18.613  10.331 -0.1431  0.2920 -0.0594
  329loPI   GL1 5253   9.445  18.593   9.973  0.1023  0.0691  0.0346
  329loPI   GL2 5254   9.664  18.453   9.826 -0.1944 -0.1581  0.1081
  329loPI   C1A 5255   9.165  18.849   9.542 -0.0154 -0.1145  0.0729
  329loPI   C2A 5256   9.204  18.944   9.124  0.0828 -0.2316 -0.0251
  329loPI   C3A 5257   9.126  18.852   8.713 -0.1761 -0.3356  0.2428
  329loPI   C4A 5258   8.976  18.824   8.246  0.4400  0.1312 -0.4668
  329loPI   C5A 5259   8.966  18.830   7.845  0.2186 -0.1161 -0.1136
  329loPI   C6A 5260   9.108  18.526   7.586  0.0506 -0.1071  0.1759
  329loPI   C1B 5261   9.409  18.468   9.350  0.1602 -0.2267  0.1473
  329loPI   C2B 5262   9.328  18.440   8.901 -0.2153  0.0473 -0.1979
  329loPI   C3B 5263   9.356  18.430   8.545  0.1536 -0.4246 -0.0329
  329loPI   C4B 5264   9.391  18.600   8.136  0.1148 -0.0440  0.2663
  330loPI    C1 5265  17.673  13.801   9.996 -0.0190 -0.2115 -0.1971
  330loPI    C2 5266  17.710  13.463  10.206  0.0513 -0.1561 -0.1193
  330loPI    C3 5267  17.394  13.701  10.264  0.2083 -0.0035  0.1240
  330loPI   PO4 5268  17.664  13.752   9.793 -0.1375  0.0284  0.1303
  330loPI   GL1 5269  17.635  13.508   9.538 -0.0608  0.1461 -0.0365
  330loPI   GL2 5270  17.383  13.573   9.421  0.0637 -0.0611 -0.1504
  330loPI   C1A 5271  17.802  13.314   9.042  0.1168 -0.1230  0.4931
  330loPI   C2A 5272  17.911  13.231   8.651 -0.1713  0.0113  0.1745
  330loPI   C3A 5273  17.876  13.421   8.287  0.0031  0.0836  0.1498
  330loPI   C4A 5274  17.906  13.581   8.033  0.0399  0.2685  0.1066
  330loPI   C5A 5275  17.727  13.622   7.585  0.0782  0.0438  0.0487
  330loPI   C6A 5276  17.365  13.546   7.502 -0.0932  0.2031  0.0352
  330loPI   C1B 5277  17.001  13.467   9.208 -0.2417 -0.1175  0.0898
  330loPI   C2B 5278  16.858  13.386   8.743 -0.0524  0.1051 -0.0345
  330loPI   C3B 5279  16.541  13.714   8.540 -0.1665 -0.0506  0.1296
  330loPI   C4B 5280  16.188  13.805   8.212 -0.1997 -0.1114 -0.1036
  331loPI    C1 5281  13.987  14.512  10.111  0.1548 -0.0157 -0.0156
  331loPI    C2 5282  13.790  14.369  10.428  0.2285  0.0120  0.0430
  331loPI    C3 5283  13.945  14.117  10.159  0.0645 -0.0084 -0.0336
  331loPI   PO4 5284  13.886  14.762   9.935 -0.1905 -0.3050 -0.1058
  331loPI   GL1 5285  14.114  15.036   9.602  0.1667 -0.3472  0.1294
  331loPI   GL2 5286  14.411  14.887   9.565 -0.1808 -0.1982  0.0330
  331loPI   C1A 5287  14.023  15.237   9.216 -0.2778  0.1457  0.1439
  331loPI   C2A 5288  14.043  15.348   8.725  0.0713  0.0269 -0.1669
  331loPI   C3A 5289  14.050  15.418   8.370 -0.0288  0.0187  0.3605
  331loPI   C4A 5290  13.912  15.474   7.928 -0.4397  0.0387 -0.2310
  331loPI   C5A 5291  13.712  15.502   7.522 -0.0349  0.1590 -0.0921
  331loPI   C6A 5292  13.818  15.317   7.105 -0.0970  0.5167  0.2047
  331loPI   C1B 5293  14.582  14.789   9.161  0.0343  0.0976  0.1936
  331loPI   C2B 5294  14.798  14.853   8.758 -0.3012  0.0403  0.1452
  331loPI   C3B 5295  14.688  14.727   8.274  0.1941 -0.1816  0.0669
  331loPI   C4B 5296  14.702  14.814   7.897  0.0715 -0.0772 -0.5156
  332loPI    C1 5297   1.459   0.950  10.101 -0.2238  0.0520  0.0308
  332loPI    C2 5298   1.584   0.766  10.433 -0.0602  0.0409 -0.0359
  332loPI    C3 5299   1.385   1.112  10.460  0.5202  0.3813  0.0552
  332loPI   PO4 5300   1.452   0.773   9.981  0.3944  0.2225 -0.1289
  332loPI   GL1 5301   1.290   0.780   9.609  0.2407 -0.0615 -0.2409
  332loPI   GL2 5302   1.292   1.163   9.665  0.3263  0.0968  0.0806
  332loPI   C1A 5303   1.367   0.800   9.202  0.1911  0.0274  0.0381
  332loPI   C2A 5304   1.669   0.968   8.898 -0.2381 -0.4141  0.2103
  332loPI   C3A 5305   1.667   1.149   8.461 -0.0684  0.2400 -0.0502
  332loPI   C4A 5306   1.616   1.011   8.147  0.2683  0.1792 -0.3902
  332loPI   C5A 5307   1.818   1.034   7.721  0.1043  0.2835 -0.2823
  332loPI   C6A 5308   2.087   1.233   7.466  0.2654 -0.0993 -0.0508
  332loPI   C1B 5309   1.228   1.258   9.245 -0.1175 -0.2733  0.0067
  332loPI   C2B 5310   1.151   1.140   8.845  0.3277 -0.0280 -0.1513
  332loPI   C3B 5311   1.231   0.794   8.638 -0.2450 -0.0816 -0.0311
  332loPI   C4B 5312   1.386   0.570   8.328 -0.0703 -0.2501  0.4047
  333loPI    C1 5313   1.031   0.308  10.018  0.2199 -0.1492  0.0346
  333loPI    C2 5314   1.369   0.241  10.221  0.3234  0.1766 -0.0234
  333loPI    C3 5315   1.132   0.547  10.322 -0.0542 -0.1593  0.1362
  333loPI   PO4 5316   1.125   0.362   9.785 -0.1960  0.2708 -0.1664
  333loPI   GL1 5317   1.110   0.312   9.402  0.0604  0.0419  0.1547
  333loPI   GL2 5318   1.399   0.148   9.345  0.2364 -0.1317  0.0240
  333loPI   C1A 5319   0.821   0.393   9.113 -0.1171 -0.0375 -0.1417
  333loPI   C2A 5320   0.492   0.363   8.773  0.3152  0.0646  0.0572
  333loPI   C3A 5321   0.364   0.512   8.442  0.3759 -0.0676  0.2468
  333loPI   C4A 5322   0.491   0.636   8.111 -0.0767 -0.0845  0.2541
  333loPI   C5A 5323   0.688   0.648   7.677  0.2613  0.1228 -0.2011
  333loPI   C6A 5324   0.918   1.058   7.570 -0.0854  0.0160  0.0083
  333loPI   C1B 5325   1.298   0.348   8.925  0.0761  0.0212 -0.3600
  333loPI   C2B 5326   0.952   0.369   8.551  0.1574  0.2470 -0.1503
  333loPI   C3B 5327   0.940   0.322   8.109  0.1916  0.2751 -0.3607
  333loPI   C4B 5328   1.069   0.293   7.615  0.1688  0.0052 -0.2694
  334loPI    C1 5329   4.594  16.410  10.383 -0.0157 -0.1782  0.1682
  334loPI    C2 5330   4.520  16.738  10.599 -0.1036 -0.0426 -0.0648
  334loPI    C3 5331   4.826  16.500  10.697 -0.0032  0.1395  0.0717
  334loPI   PO4 5332   4.579  16.403  10.154 -0.0370  0.2380 -0.1811
  334loPI   GL1 5333   4.793  16.527   9.765 -0.0583 -0.0136 -0.1456
  334loPI   GL2 5334   5.104  16.367   9.845 -0.2881 -0.1641 -0.1345
  334loPI   C1A 5335   4.991  16.471   9.324 -0.0044 -0.1108  0.2765
  334loPI   C2A 5336   5.232  16.559   8.897 -0.1061 -0.1847  0.1174
  334loPI   C3A 5337   5.276  16.439   8.508 -0.0691 -0.1757 -0.1288
  334loPI   C4A 5338   5.326  16.167   8.205 -0.1736  0.1530 -0.2804
  334loPI   C5A 5339   5.395  16.123   7.722 -0.2015 -0.0593 -0.0055
  334loPI   C6A 5340   5.403  15.673   7.466 -0.0513 -0.0233 -0.0499
  334loPI   C1B 5341   4.909  16.041   9.616  0.0174  0.1261 -0.0052
  334loPI   C2B 5342   4.878  15.969   9.208  0.0280  0.1182 -0.1898
  334loPI   C3B 5343   4.909  16.103   8.853 -0.1345  0.0234  0.0275
  334loPI   C4B 5344   4.948  16.040   8.449 -0.0480  0.1446 -0.0124
  335loPI    C1 5345   3.873   9.216  10.117 -0.0940 -0.1769  0.0406
  335loPI    C2 5346   3.785   9.086  10.485 -0.1202 -0.1995  0.0264
  335loPI    C3 5347   3.647   9.440  10.359  0.1155 -0.0662  0.1363
  335loPI   PO4 5348   4.079   9.204  10.054 -0.1287 -0.0796  0.0136
  335loPI   GL1 5349   4.379   8.943   9.806  0.0436 -0.1531 -0.1690
  335loPI   GL2 5350   4.334   8.668   9.757  0.4074 -0.1605 -0.1835
  335loPI   C1A 5351   4.240   9.064   9.341 -0.2193 -0.1479  0.1533
  335loPI   C2A 5352   4.227   9.073   8.946  0.2307  0.1933 -0.0273
  335loPI   C3A 5353   4.422   9.074   8.577 -0.0241  0.5969 -0.1793
  335loPI   C4A 5354   4.634   9.177   8.155 -0.1983 -0.2828 -0.2602
  335loPI   C5A 5355   4.729   9.013   7.749  0.0828  0.3444 -0.3150
  335loPI   C6A 5356   4.577   8.615   7.507 -0.3222  0.0693  0.3417
  335loPI   C1B 5357   4.524   8.591   9.313 -0.0171  0.0279 -0.1739
  335loPI   C2B 5358   4.343   8.558   8.967 -0.2302 -0.0626  0.3203
  335loPI   C3B 5359   4.362   8.484   8.465  0.0121  0.4252  0.0638
  335loPI   C4B 5360   4.028   8.441   8.215 -0.2936  0.2889  0.0457
  336loPI    C1 5361   6.397  18.735  10.542  0.2304  0.0712  0.0906
  336loPI    C2 5362   6.410  18.756  10.941 -0.0625 -0.2965  0.1249
  336loPI    C3 5363   6.062  18.800  10.750  0.0558 -0.2490 -0.0832
  336loPI   PO4 5364   6.539  18.479  10.498  0.1101 -0.0490 -0.2322
  336loPI   GL1 5365   6.426  18.306  10.126 -0.1566  0.0750  0.0706
  336loPI   GL2 5366   6.106  18.219  10.060  0.3328 -0.0364 -0.1243
  336loPI   C1A 5367   6.606  18.316   9.640  0.1589  0.0533  0.2985
  336loPI   C2A 5368   6.702  18.366   9.227  0.0407  0.2440  0.0236
  336loPI   C3A 5369   6.603  18.366   8.855 -0.2623 -0.1411 -0.1055
  336loPI   C4A 5370   6.722  18.369   8.489  0.0678  0.1880 -0.1852
  336loPI   C5A 5371   6.661  18.388   8.116 -0.1833  0.0087  0.1087
  336loPI   C6A 5372   6.872  18.503   7.651  0.1503 -0.0115  0.0813
  336loPI   C1B 5373   6.091  18.303   9.671  0.2409 -0.2697  0.0241
  336loPI   C2B 5374   6.143  18.392   9.198 -0.1198 -0.1959  0.0988
  336loPI   C3B 5375   6.107  18.382   8.761 -0.1232 -0.0717 -0.2776
  336loPI   C4B 5376   6.176  18.358   8.318  0.0597 -0.1223  0.0106
  337loPI    C1 5377  14.078  15.942  10.057  0.1165 -0.0766 -0.1718
  337loPI    C2 5378  14.213  16.298   9.935 -0.0504  0.0989  0.1438
  337loPI    C3 5379  14.215  16.206  10.325 -0.0019 -0.2505  0.0643
  337loPI   PO4 5380  13.902  15.874   9.951 -0.1671 -0.1154 -0.5580
  337loPI   GL1 5381  13.769  15.736   9.525  0.0667 -0.2940  0.1167
  337loPI   GL2 5382  13.527  15.773   9.378 -0.2363  0.2343  0.1047
  337loPI   C1A 5383  13.817  16.200   9.222  0.0132 -0.0553 -0.1467
  337loPI   C2A 5384  13.581  16.305   8.989  0.2035  0.0934  0.0524
  337loPI   C3A 5385  13.374  16.442   8.643  0.2053 -0.3207  0.1745
  337loPI   C4A 5386  13.402  16.634   8.289  0.0494 -0.1977  0.1181
  337loPI   C5A 5387  13.550  16.810   7.928 -0.2793  0.2103 -0.4474
  337loPI   C6A 5388  13.656  16.706   7.532 -0.0042 -0.1356 -0.0233
  337loPI   C1B 5389  13.398  15.839   8.996  0.2866 -0.1109  0.2846
  337loPI   C2B 5390  13.466  15.993   8.566  0.0501  0.2841  0.0359
  337loPI   C3B 5391  13.513  16.168   8.226 -0.0438  0.1119  0.0730
  337loPI   C4B 5392  13.235  16.239   7.894 -0.0964 -0.2224 -0.2542
  338loPI    C1 5393   3.621  16.935  10.698 -0.0250 -0.2100  0.0643
  338loPI    C2 5394   3.574  16.684  11.006 -0.1035 -0.3020 -0.0215
  338loPI    C3 5395   3.282  16.940  10.910 -0.0591 -0.2388  0.0106
  338loPI   PO4 5396   3.651  16.762  10.435 -0.1816  0.2036  0.1783
  338loPI   GL1 5397   3.391  16.575  10.202  0.3902  0.1218 -0.1821
  338loPI   GL2 5398   3.162  16.673   9.947  0.2150  0.0210 -0.0021
  338loPI   C1A 5399   3.589  16.602   9.721 -0.3856 -0.3242  0.1027
  338loPI   C2A 5400   3.423  16.611   9.323 -0.0424 -0.0864  0.1276
  338loPI   C3A 5401   3.436  16.472   8.994  0.3059  0.0539  0.0489
  338loPI   C4A 5402   3.602  16.608   8.566  0.5973  0.5034  0.1042
  338loPI   C5A 5403   3.474  16.763   8.181  0.0891  0.0912 -0.2628
  338loPI   C6A 5404   3.359  17.014   7.848  0.1598  0.0138 -0.1113
  338loPI   C1B 5405   3.171  16.940   9.580  0.0886  0.1223  0.2376
  338loPI   C2B 5406   3.087  17.055   9.207 -0.3670 -0.2653  0.1502
  338loPI   C3B 5407   2.923  17.311   8.839  0.2051 -0.0070  0.2638
  338loPI   C4B 5408   2.799  17.477   8.474  0.2362  0.0512 -0.1976
  339loPI    C1 5409  13.126   3.671  10.019 -0.1956  0.0366  0.1719
  339loPI    C2 5410  13.132   3.691  10.418 -0.0177  0.0791  0.1680
  339loPI    C3 5411  13.422   3.865  10.205 -0.1095  0.0525  0.0200
  339loPI   PO4 5412  13.017   3.333  10.017  0.1929 -0.2143  0.0063
  339loPI   GL1 5413  12.832   3.074   9.630 -0.1080  0.0135 -0.1584
  339loPI   GL2 5414  12.713   3.348   9.604 -0.0896 -0.0173 -0.0289
  339loPI   C1A 5415  12.591   3.043   9.163 -0.0432  0.3425  0.2567
  339loPI   C2A 5416  12.526   3.259   8.741 -0.1545  0.1410 -0.1406
  339loPI   C3A 5417  12.276   3.255   8.345 -0.0019 -0.0671  0.1071
  339loPI   C4A 5418  12.424   3.156   8.040 -0.1184  0.0095  0.4143
  339loPI   C5A 5419  12.516   2.697   7.792  0.0683 -0.0341 -0.0138
  339loPI   C6A 5420  12.416   2.503   7.440  0.1894 -0.1649 -0.0653
  339loPI   C1B 5421  12.609   3.542   9.101  0.0542 -0.0398  0.3169
  339loPI   C2B 5422  12.246   3.673   8.793 -0.1329 -0.1745  0.0088
  339loPI   C3B 5423  12.215   3.730   8.360  0.1044  0.2486  0.2194
  339loPI   C4B 5424  12.476   3.630   8.049 -0.2064  0.2867 -0.1084
  340loPI    C1 5425  12.382   1.555  10.312 -0.0680  0.0413  0.0429
  340loPI    C2 5426  12.775   1.477  10.326 -0.0567  0.0228 -0.2955
  340loPI    C3 5427  12.511   1.176  10.323 -0.0964  0.0376  0.3337
  340loPI   PO4 5428  12.341   1.742  10.070 -0.1892 -0.0991  0.3163
  340loPI   GL1 5429  12.408   1.878   9.699 -0.0440 -0.0910  0.1503
  340loPI   GL2 5430  12.750   1.989   9.846 -0.1852  0.2330 -0.3059
  340loPI   C1A 5431  12.358   2.057   9.254 -0.1648 -0.4682  0.0906
  340loPI   C2A 5432  12.407   2.037   8.748  0.4714  0.0130  0.1186
  340loPI   C3A 5433  12.388   2.005   8.294 -0.5358 -0.1275  0.1066
  340loPI   C4A 5434  12.522   1.647   8.041  0.0021 -0.0006 -0.0460
  340loPI   C5A 5435  12.459   1.402   7.687  0.1912 -0.0133 -0.0563
  340loPI   C6A 5436  12.328   1.047   7.357  0.1744 -0.0999  0.2767
  340loPI   C1B 5437  12.847   2.015   9.461 -0.1780  0.2037  0.0036
  340loPI   C2B 5438  12.819   2.012   8.982  0.0253  0.3642 -0.0066
  340loPI   C3B 5439  12.969   1.828   8.571 -0.4281  0.1615  0.0113
  340loPI   C4B 5440  12.950   1.828   8.153 -0.2287 -0.1103  0.0397
  341loPI    C1 5441  15.871  14.892  10.181  0.0071 -0.0665  0.0332
  341loPI    C2 5442  15.938  15.250  10.347  0.1941  0.0062 -0.1939
  341loPI    C3 5443  15.587  15.066  10.403  0.2479  0.0326  0.2691
  341loPI   PO4 5444  15.924  14.907   9.918  0.0658  0.2155  0.0871
  341loPI   GL1 5445  16.164  14.815   9.610 -0.2561 -0.1740  0.2130
  341loPI   GL2 5446  15.979  14.677   9.509 -0.1258  0.0459  0.1867
  341loPI   C1A 5447  16.059  15.181   9.378 -0.3936 -0.2724  0.0622
  341loPI   C2A 5448  15.974  15.467   9.044  0.1641  0.2032 -0.0974
  341loPI   C3A 5449  16.194  15.572   8.728  0.1587  0.1761  0.1190
  341loPI   C4A 5450  16.409  15.517   8.239 -0.0866  0.0051 -0.1046
  341loPI   C5A 5451  16.468  15.304   7.739  0.0548  0.1542 -0.0563
  341loPI   C6A 5452  16.653  15.259   7.302  0.0521 -0.1488 -0.0144
  341loPI   C1B 5453  16.069  14.769   9.115 -0.1802  0.1148 -0.0922
  341loPI   C2B 5454  16.160  15.038   8.827 -0.1882  0.3219 -0.1477
  341loPI   C3B 5455  16.107  15.084   8.508  0.1224  0.0020 -0.1726
  341loPI   C4B 5456  16.152  15.143   8.090 -0.0098  0.1246  0.1161
  342loPI    C1 5457  14.781   6.851  10.687  0.0124 -0.0411 -0.1155
  342loPI    C2 5458  15.061   7.075  10.865 -0.0390 -0.0831  0.0190
  342loPI    C3 5459  14.898   6.765  11.059 -0.4037  0.1286  0.0612
  342loPI   PO4 5460  14.665   6.939  10.434  0.1401  0.1554  0.1868
  342loPI   GL1 5461  14.646   6.919   9.898 -0.0805  0.0497  0.1950
  342loPI   GL2 5462  14.432   7.112   9.703 -0.2618  0.2480 -0.3887
  342loPI   C1A 5463  14.822   6.845   9.505  0.0023 -0.2750  0.1409
  342loPI   C2A 5464  14.870   6.805   9.104 -0.0376 -0.2201 -0.1300
  342loPI   C3A 5465  14.717   6.685   8.681 -0.0892  0.0077 -0.1084
  342loPI   C4A 5466  14.588   6.653   8.291 -0.0041 -0.4275  0.0610
  342loPI   C5A 5467  14.100   6.590   8.294 -0.0375  0.2030  0.1040
  342loPI   C6A 5468  13.774   6.908   8.567  0.1331  0.1730  0.0977
  342loPI   C1B 5469  14.351   7.102   9.340  0.1725 -0.3696 -0.0839
  342loPI   C2B 5470  14.387   6.893   9.034  0.2469 -0.0355 -0.3189
  342loPI   C3B 5471  14.347   7.033   8.529 -0.2068 -0.0997  0.0580
  342loPI   C4B 5472  14.428   7.052   8.071  0.2153  0.3431 -0.1347
  343loPI    C1 5473  17.268   4.844   9.829  0.0103 -0.3863  0.2154
  343loPI    C2 5474  17.533   5.080  10.013  0.1998 -0.1455 -0.3440
  343loPI    C3 5475  17.590   4.684  10.004  0.4224 -0.1168 -0.2704
  343loPI   PO4 5476  17.242   4.950   9.628 -0.0038  0.3520 -0.2218
  343loPI   GL1 5477  17.338   4.732   9.254 -0.1607 -0.0168  0.1092
  343loPI   GL2 5478  17.055   4.542   9.171 -0.0609 -0.3092 -0.0627
  343loPI   C1A 5479  17.650   4.893   9.075 -0.0644  0.0582  0.2615
  343loPI   C2A 5480  17.621   4.918   8.667 -0.1619 -0.0269  0.1096
  343loPI   C3A 5481  17.683   4.842   8.176 -0.1587  0.2091 -0.1211
  343loPI   C4A 5482  17.564   5.037   7.818 -0.0942 -0.1048  0.1026
  343loPI   C5A 5483  17.464   5.301   7.574  0.0230  0.1990 -0.0849
  343loPI   C6A 5484  17.349   5.704   7.382  0.0044  0.1877 -0.0377
  343loPI   C1B 5485  16.965   4.279   8.908 -0.3523  0.0951 -0.2348
  343loPI   C2B 5486  17.306   4.094   8.543  0.1008  0.0835  0.1167
  343loPI   C3B 5487  17.648   3.957   8.582  0.0555 -0.0096  0.1219
  343loPI   C4B 5488  17.952   4.075   8.828  0.0655  0.0813  0.2484
  344loPI    C1 5489  10.533  13.008  10.197  0.2146 -0.1118  0.1614
  344loPI    C2 5490  10.619  12.877  10.565  0.0886  0.0011  0.2317
  344loPI    C3 5491  10.659  13.265  10.476  0.0250 -0.0097  0.1545
  344loPI   PO4 5492  10.630  12.877   9.948  0.0929  0.2006 -0.2071
  344loPI   GL1 5493  10.716  12.820   9.468  0.0540 -0.0452  0.5204
  344loPI   GL2 5494  10.412  12.915   9.279 -0.0019  0.1690 -0.1568
  344loPI   C1A 5495  10.889  12.658   9.120 -0.4350 -0.1126 -0.2719
  344loPI   C2A 5496  11.018  12.649   8.769 -0.0202 -0.0770 -0.5277
  344loPI   C3A 5497  11.199  12.762   8.406 -0.1482 -0.2349 -0.2201
  344loPI   C4A 5498  11.200  13.085   8.043 -0.4311  0.0215 -0.0006
  344loPI   C5A 5499  11.360  13.357   7.818  0.3933 -0.1714  0.1770
  344loPI   C6A 5500  11.751  13.564   7.894 -0.0095 -0.2270  0.0088
  344loPI   C1B 5501  10.448  12.733   8.918 -0.2006  0.0688  0.0751
  344loPI   C2B 5502  10.497  12.590   8.467 -0.0641  0.1737 -0.1386
  344loPI   C3B 5503  10.178  12.502   8.115 -0.2292 -0.1087  0.2366
  344loPI   C4B 5504  10.023  12.531   7.692  0.2803 -0.0340  0.0963
  345loPI    C1 5505  15.391  18.782  10.098  0.3259 -0.1277 -0.0200
  345loPI    C2 5506  15.181  18.478   9.944 -0.1870  0.2045 -0.0017
  345loPI    C3 5507  15.367  18.435  10.296 -0.0762 -0.1496 -0.0987
  345loPI   PO4 5508  15.507  18.890   9.866  0.0321  0.0918 -0.2693
  345loPI   GL1 5509  15.758  18.766   9.512 -0.0425  0.1404 -0.1621
  345loPI   GL2 5510  15.973  18.441   9.401 -0.0183 -0.0871  0.2290
  345loPI   C1A 5511  15.338  18.755   9.103 -0.1603 -0.3214 -0.1600
  345loPI   C2A 5512  15.130  18.936   8.754  0.0445 -0.1150  0.1561
  345loPI   C3A 5513  14.911  18.908   8.343 -0.1750 -0.0559  0.2212
  345loPI   C4A 5514  14.386  18.869   8.303 -0.1426  0.1232 -0.1415
  345loPI   C5A 5515  14.278  18.715   7.935 -0.0021  0.0764 -0.0927
  345loPI   C6A 5516  14.141  18.774   7.613  0.1481 -0.0187  0.1062
  345loPI   C1B 5517  15.764  18.455   9.007  0.0172 -0.3098 -0.0119
  345loPI   C2B 5518  15.764  18.464   8.483  0.1513  0.3407 -0.2617
  345loPI   C3B 5519  15.765  18.301   8.097 -0.0319 -0.1764  0.0503
  345loPI   C4B 5520  15.844  18.109   7.710  0.0661  0.2266  0.1989
  346loPI    C1 5521   8.545  14.029  10.421 -0.2170  0.1356 -0.2410
  346loPI    C2 5522   8.684  14.028  10.046  0.0617  0.1345 -0.1403
  346loPI    C3 5523   8.715  13.699  10.272  0.1183  0.2110 -0.0360
  346loPI   PO4 5524   8.342  14.332  10.319 -0.3790 -0.0689 -0.0345
  346loPI   GL1 5525   8.439  14.742   9.954 -0.0156 -0.0037 -0.0904
  346loPI   GL2 5526   8.735  14.520   9.800  0.0088 -0.3508 -0.1751
  346loPI   C1A 5527   8.248  14.678   9.546 -0.2861  0.2753  0.1965
  346loPI   C2A 5528   8.337  14.728   9.101  0.1589  0.1069 -0.0877
  346loPI   C3A 5529   8.386  14.879   8.754 -0.3681 -0.0051 -0.1987
  346loPI   C4A 5530   8.649  14.856   8.325  0.2654  0.3105 -0.1154
  346loPI   C5A 5531   8.853  14.640   7.955  0.0716 -0.3421  0.0111
  346loPI   C6A 5532   9.196  14.793   7.752  0.1411  0.2433  0.0278
  346loPI   C1B 5533   8.717  14.686   9.451  0.0694 -0.2721  0.2523
  346loPI   C2B 5534   8.813  14.752   9.007  0.0877 -0.2579 -0.3749
  346loPI   C3B 5535   8.989  14.888   8.643  0.0416  0.1236 -0.0841
  346loPI   C4B 5536   9.226  14.637   8.319 -0.0523 -0.0327  0.1356
  347loPI    C1 5537  15.751   7.082  10.231 -0.1004 -0.1900  0.0099
  347loPI    C2 5538  15.607   6.719  10.316 -0.1277 -0.1380  0.1906
  347loPI    C3 5539  16.002   6.781  10.313 -0.1205 -0.1872  0.0827
  347loPI   PO4 5540  15.600   7.292  10.022  0.0556  0.2014 -0.1818
  347loPI   GL1 5541  15.381   7.409   9.629  0.1018  0.0839 -0.1182
  347loPI   GL2 5542  15.351   7.037   9.543  0.1399  0.1530  0.1055
  347loPI   C1A 5543  15.591   7.364   9.290  0.1083  0.1854  0.1491
  347loPI   C2A 5544  15.718   7.390   8.814 -0.3375  0.0727 -0.1791
  347loPI   C3A 5545  15.452   7.283   8.481  0.1848  0.1708  0.1585
  347loPI   C4A 5546  15.225   7.085   8.105 -0.0615 -0.1100 -0.1165
  347loPI   C5A 5547  14.899   7.022   7.844 -0.0221 -0.0920  0.0129
  347loPI   C6A 5548  14.595   7.277   7.651 -0.0981 -0.0705  0.1706
  347loPI   C1B 5549  15.295   7.107   9.017  0.3023  0.0760 -0.2356
  347loPI   C2B 5550  15.000   7.096   8.677  0.2621 -0.0184  0.0452
  347loPI   C3B 5551  14.769   7.202   8.397  0.4233 -0.3327  0.0797
  347loPI   C4B 5552  14.789   7.576   8.050  0.1733  0.0804  0.2529
  348loPI    C1 5553  15.846  18.521   9.991 -0.0096 -0.2555 -0.1321
  348loPI    C2 5554  16.145  18.292   9.855  0.1942 -0.0799  0.0140
  348loPI    C3 5555  16.164  18.690   9.816 -0.1567 -0.0830 -0.2367
  348loPI   PO4 5556  15.669  18.390   9.845  0.3137 -0.0368  0.3057
  348loPI   GL1 5557  15.552  18.200   9.575  0.4755  0.0451  0.0139
  348loPI   GL2 5558  15.306  18.365   9.479  0.1422 -0.0978  0.2440
  348loPI   C1A 5559  15.718  17.971   9.238  0.0742 -0.2990 -0.0970
  348loPI   C2A 5560  15.738  17.924   8.817  0.0904 -0.1386  0.0879
  348loPI   C3A 5561  15.501  18.008   8.409 -0.0017  0.0201 -0.1563
  348loPI   C4A 5562  15.455  17.888   8.035  0.1219  0.3089 -0.1953
  348loPI   C5A 5563  15.325  17.933   7.641 -0.1702  0.2056  0.2728
  348loPI   C6A 5564  15.195  17.878   7.249  0.2287 -0.0738 -0.2756
  348loPI   C1B 5565  15.313  18.208   9.104  0.1230 -0.0911  0.0622
  348loPI   C2B 5566  15.291  18.418   8.699 -0.0288 -0.0661  0.0311
  348loPI   C3B 5567  15.254  18.447   8.312  0.0086 -0.1201  0.2079
  348loPI   C4B 5568  15.188  18.647   7.985  0.2311  0.2365  0.2893
  349loPI    C1 5569  16.487  14.153   9.962  0.1525  0.2676 -0.1414
  349loPI    C2 5570  16.248  14.341   9.703 -0.1763 -0.1366 -0.1422
  349loPI    C3 5571  16.232  14.433  10.092 -0.2314 -0.0631 -0.1615
  349loPI   PO4 5572  16.449  13.899   9.909  0.4755  0.1581 -0.3878
  349loPI   GL1 5573  16.222  13.865   9.522  0.0167 -0.0689 -0.3708
  349loPI   GL2 5574  16.025  13.523   9.439 -0.2221 -0.1973 -0.0797
  349loPI   C1A 5575  16.365  14.166   9.158 -0.1797  0.1283 -0.1527
  349loPI   C2A 5576  16.365  14.155   8.752  0.0823  0.0251 -0.2436
  349loPI   C3A 5577  16.333  14.227   8.404  0.1651 -0.2404 -0.0039
  349loPI   C4A 5578  16.339  14.206   7.861  0.0949 -0.0536 -0.2439
  349loPI   C5A 5579  16.303  14.262   7.417 -0.0483 -0.0520 -0.3990
  349loPI   C6A 5580  15.842  14.308   7.321 -0.0667 -0.0260  0.2076
  349loPI   C1B 5581  16.037  13.791   9.022  0.1493 -0.2461 -0.0537
  349loPI   C2B 5582  15.999  13.937   8.634 -0.1416  0.0671  0.2373
  349loPI   C3B 5583  15.826  14.157   8.246  0.4077  0.1184 -0.2761
  349loPI   C4B 5584  15.828  14.207   7.851  0.1774  0.1735  0.3774
  350loPI    C1 5585  16.352  18.028  10.390  0.1843  0.2526  0.1745
  350loPI    C2 5586  15.985  18.063  10.234  0.1794  0.3825  0.2146
  350loPI    C3 5587  16.042  17.848  10.567  0.1909  0.0985  0.0320
  350loPI   PO4 5588  16.477  17.976  10.173 -0.0698  0.1459 -0.1634
  350loPI   GL1 5589  16.373  17.936   9.623  0.1463  0.0485 -0.3265
  350loPI   GL2 5590  16.602  18.243   9.488  0.0699 -0.1258 -0.1245
  350loPI   C1A 5591  16.328  17.673   9.362  0.0349  0.1024  0.4499
  350loPI   C2A 5592  16.226  17.455   9.010 -0.0003  0.2889  0.0160
  350loPI   C3A 5593  16.159  17.327   8.544  0.1592 -0.0170  0.0898
  350loPI   C4A 5594  15.966  17.248   8.181  0.0920  0.2772 -0.0931
  350loPI   C5A 5595  16.025  17.128   7.686  0.1666 -0.3250  0.0177
  350loPI   C6A 5596  15.942  16.733   7.610  0.4017 -0.2169  0.1042
  350loPI   C1B 5597  16.250  18.106   9.140  0.3255 -0.1388  0.2206
  350loPI   C2B 5598  16.232  18.452   8.877 -0.1679 -0.3989 -0.0955
  350loPI   C3B 5599  16.242  18.494   8.439  0.1258  0.1393 -0.2415
  350loPI   C4B 5600  16.244  18.884   8.272 -0.0971  0.2321  0.1773
  351loPI    C1 5601   1.257   3.085  10.371  0.0430  0.0370 -0.0238
  351loPI    C2 5602   1.540   2.824  10.479  0.0690  0.1082  0.0817
  351loPI    C3 5603   1.210   2.864  10.701 -0.0601 -0.0297 -0.0829
  351loPI   PO4 5604   1.195   3.051  10.097  0.0528  0.2034  0.1959
  351loPI   GL1 5605   1.408   3.116   9.665  0.2404 -0.0343 -0.3725
  351loPI   GL2 5606   1.766   3.251   9.652  0.0668 -0.2248  0.2135
  351loPI   C1A 5607   1.539   2.821   9.297 -0.0896  0.4730  0.0410
  351loPI   C2A 5608   1.776   2.522   9.032 -0.5856 -0.0247 -0.0559
  351loPI   C3A 5609   1.885   2.711   8.684 -0.2948 -0.4081  0.3743
  351loPI   C4A 5610   1.901   2.563   8.192 -0.1230  0.5046 -0.1954
  351loPI   C5A 5611   2.203   2.567   7.859 -0.1399  0.2770 -0.0117
  351loPI   C6A 5612   2.500   2.491   7.610 -0.0048 -0.0332 -0.2780
  351loPI   C1B 5613   1.924   3.290   9.202 -0.0758 -0.1070 -0.1862
  351loPI   C2B 5614   1.696   3.099   8.891 -0.1388 -0.5010  0.1535
  351loPI   C3B 5615   1.499   2.967   8.416 -0.0059  0.1419  0.2875
  351loPI   C4B 5616   1.522   2.804   8.079 -0.0708 -0.2304  0.5485
  352loPI    C1 5617   4.252  14.332   9.606  0.1170  0.1062 -0.0279
  352loPI    C2 5618   4.648  14.376   9.643  0.1361  0.0080 -0.1131
  352loPI    C3 5619   4.480  14.017   9.701 -0.0011  0.1500  0.4261
  352loPI   PO4 5620   4.141  14.558   9.708 -0.0574  0.3050  0.1152
  352loPI   GL1 5621   3.878  14.681   9.417  0.2469  0.1441 -0.0022
  352loPI   GL2 5622   3.980  15.052   9.534 -0.0055 -0.3035 -0.0393
  352loPI   C1A 5623   3.921  14.608   9.030 -0.0295  0.2889 -0.1123
  352loPI   C2A 5624   3.823  14.713   8.581 -0.1452 -0.1893 -0.3431
  352loPI   C3A 5625   3.809  14.820   8.134  0.2060  0.0702  0.3779
  352loPI   C4A 5626   3.681  15.145   7.909 -0.0232 -0.0960  0.2943
  352loPI   C5A 5627   3.438  15.312   7.514  0.1181 -0.2896 -0.0713
  352loPI   C6A 5628   3.298  15.625   7.359  0.3833  0.1702  0.3988
  352loPI   C1B 5629   3.909  15.106   9.047  0.0024 -0.2780  0.5276
  352loPI   C2B 5630   3.973  15.275   8.586  0.3134  0.3188  0.0168
  352loPI   C3B 5631   4.083  15.382   8.167 -0.1132 -0.0178 -0.0695
  352loPI   C4B 5632   4.325  15.080   7.896 -0.3978  0.3919 -0.0590
  353loPI    C1 5633   9.526  15.401  10.254 -0.2515  0.1028 -0.2480
  353loPI    C2 5634   9.293  15.148  10.458  0.1725 -0.1008 -0.0027
  353loPI    C3 5635   9.455  15.034  10.111  0.1223 -0.0551 -0.0413
  353loPI   PO4 5636   9.415  15.691  10.217 -0.2070  0.0083  0.0250
  353loPI   GL1 5637   9.582  15.942   9.992 -0.1578  0.1378 -0.2137
  353loPI   GL2 5638   9.402  16.276   9.890 -0.0460  0.1093  0.0747
  353loPI   C1A 5639   9.659  16.024   9.504  0.3367  0.1077 -0.1029
  353loPI   C2A 5640   9.701  16.159   9.026 -0.1158 -0.0685 -0.0384
  353loPI   C3A 5641   9.649  16.216   8.633  0.0325 -0.1857  0.1072
  353loPI   C4A 5642   9.777  16.173   8.237  0.2124  0.0231 -0.0103
  353loPI   C5A 5643   9.706  16.053   7.890 -0.4827  0.4344 -0.2106
  353loPI   C6A 5644   9.761  15.734   7.615  0.0822 -0.2459  0.1177
  353loPI   C1B 5645   9.325  16.427   9.463 -0.0058 -0.1413  0.1673
  353loPI   C2B 5646   9.364  16.633   9.131  0.1086  0.1638  0.0161
  353loPI   C3B 5647   9.438  16.682   8.644 -0.2611 -0.0357  0.0022
  353loPI   C4B 5648   9.492  16.597   8.197 -0.3694 -0.3004 -0.0861
  354loPI    C1 5649   2.054   7.350  10.201  0.0064 -0.1285  0.1466
  354loPI    C2 5650   1.867   7.140  10.486 -0.1109 -0.1724  0.0381
  354loPI    C3 5651   2.002   7.508  10.565 -0.0539 -0.2230  0.1793
  354loPI   PO4 5652   1.994   7.269   9.942  0.2316  0.0281 -0.0057
  354loPI   GL1 5653   2.173   7.381   9.529 -0.0198 -0.1795 -0.1094
  354loPI   GL2 5654   2.049   6.984   9.397  0.2722 -0.0502 -0.0209
  354loPI   C1A 5655   2.296   7.380   9.151  0.1558 -0.0678  0.1289
  354loPI   C2A 5656   2.525   7.277   8.900 -0.1985  0.0873  0.0044
  354loPI   C3A 5657   2.386   7.369   8.495 -0.0497 -0.4138 -0.0414
  354loPI   C4A 5658   2.338   7.246   8.126 -0.0825 -0.4942 -0.1782
  354loPI   C5A 5659   2.225   7.360   7.718 -0.0790 -0.0021 -0.2221
  354loPI   C6A 5660   2.355   7.659   7.413 -0.0323 -0.1275 -0.3063
  354loPI   C1B 5661   2.031   7.065   8.929  0.0939 -0.0690 -0.0615
  354loPI   C2B 5662   1.950   6.948   8.486  0.1267 -0.3005 -0.2757
  354loPI   C3B 5663   1.980   6.797   8.089  0.4148 -0.0179  0.2269
  354loPI   C4B 5664   2.203   6.886   7.678  0.0180 -0.1314 -0.0326
  355loPI    C1 5665  17.793  16.706  10.595  0.0500  0.2347 -0.0861
  355loPI    C2 5666  17.753  16.664  10.990 -0.0417  0.0149 -0.1172
  355loPI    C3 5667  17.470  16.851  10.779 -0.1524 -0.1552 -0.1220
  355loPI   PO4 5668  17.830  16.468  10.503 -0.1714 -0.1238 -0.0630
  355loPI   GL1 5669  17.869  16.233  10.067 -0.1989 -0.2182  0.0518
  355loPI   GL2 5670  17.719  16.430   9.770  0.3040  0.1174  0.1984
  355loPI   C1A 5671  18.142  16.111   9.645 -0.0861 -0.4220 -0.2636
  355loPI   C2A 5672  17.981  15.835   9.330 -0.3351  0.2297  0.0954
  355loPI   C3A 5673  17.975  15.787   8.929 -0.2228  0.1151  0.0084
  355loPI   C4A 5674  17.997  15.807   8.420  0.1869 -0.0838  0.0990
  355loPI   C5A 5675  18.037  15.908   7.943  0.1846  0.0376 -0.0595
  355loPI   C6A 5676  17.756  15.878   7.721 -0.1790 -0.1146 -0.1419
  355loPI   C1B 5677  18.047  16.535   9.419 -0.0081 -0.0724  0.0269
  355loPI   C2B 5678  18.393  16.602   9.134 -0.4295  0.0993  0.1031
  355loPI   C3B 5679  18.460  16.854   8.770 -0.0905 -0.1277 -0.2696
  355loPI   C4B 5680  18.713  16.883   8.437 -0.0765 -0.2109 -0.3923
  356loPI    C1 5681  16.080   8.105  10.054  0.2480  0.0196 -0.1303
  356loPI    C2 5682  16.109   8.369  10.353  0.0259  0.0875 -0.1670
  356loPI    C3 5683  15.868   8.444  10.042 -0.2341 -0.2701 -0.0573
  356loPI   PO4 5684  16.366   8.041   9.967 -0.0079 -0.1357  0.0391
  356loPI   GL1 5685  16.420   8.145   9.528 -0.1372 -0.1213 -0.3174
  356loPI   GL2 5686  16.092   8.126   9.461  0.0191 -0.2822 -0.0758
  356loPI   C1A 5687  16.604   8.158   9.122 -0.0294 -0.0244  0.0972
  356loPI   C2A 5688  16.496   8.263   8.767 -0.1983  0.2914 -0.0615
  356loPI   C3A 5689  16.542   8.077   8.444  0.0650  0.2728 -0.2623
  356loPI   C4A 5690  16.536   8.276   8.012  0.1837  0.0258 -0.0674
  356loPI   C5A 5691  16.354   8.496   7.831 -0.0343  0.0103  0.2894
  356loPI   C6A 5692  16.142   8.796   7.549  0.2702 -0.0401 -0.2178
  356loPI   C1B 5693  16.194   7.885   9.006 -0.0183 -0.0989 -0.2261
  356loPI   C2B 5694  16.028   7.706   8.565 -0.0038 -0.0637  0.0617
  356loPI   C3B 5695  16.229   7.511   8.134 -0.4650 -0.0848  0.1845
  356loPI   C4B 5696  16.231   7.302   7.736  0.0112 -0.0820  0.0099
  357loPI    C1 5697   7.528  11.479   9.996  0.0152 -0.2660 -0.0317
  357loPI    C2 5698   7.330  11.354  10.321  0.0414 -0.2398 -0.0054
  357loPI    C3 5699   7.553  11.685  10.339 -0.0330 -0.1854 -0.0764
  357loPI   PO4 5700   7.365  11.581   9.782 -0.2006  0.1550 -0.0826
  357loPI   GL1 5701   7.367  11.544   9.411  0.1628  0.0569  0.1417
  357loPI   GL2 5702   7.329  11.873   9.291  0.3443 -0.1241  0.1323
  357loPI   C1A 5703   7.364  11.490   8.943 -0.0090  0.0440  0.2662
  357loPI   C2A 5704   7.310  11.519   8.477  0.1566  0.0975  0.2080
  357loPI   C3A 5705   7.298  11.744   7.973 -0.0401  0.1598  0.1768
  357loPI   C4A 5706   7.333  11.792   7.584  0.2649  0.0916  0.1417
  357loPI   C5A 5707   7.770  12.122   7.497 -0.1480  0.0298  0.0196
  357loPI   C6A 5708   8.110  12.423   7.540 -0.0198  0.1155 -0.2521
  357loPI   C1B 5709   7.019  11.961   9.005  0.0183 -0.2098  0.1043
  357loPI   C2B 5710   7.049  11.963   8.577 -0.2488 -0.0861  0.1415
  357loPI   C3B 5711   6.992  12.117   8.154  0.2728  0.0423 -0.1189
  357loPI   C4B 5712   7.264  12.255   7.801 -0.0057  0.1739  0.3136
  358loPI    C1 5713  15.218   1.555  10.332  0.2182 -0.0231  0.1250
  358loPI    C2 5714  14.852   1.410  10.398  0.1694 -0.0703 -0.2328
  358loPI    C3 5715  15.169   1.233  10.565  0.0724 -0.3315 -0.3195
  358loPI   PO4 5716  15.318   1.610  10.087 -0.1049 -0.0059 -0.0670
  358loPI   GL1 5717  15.268   1.809   9.704 -0.1454 -0.3065  0.1229
  358loPI   GL2 5718  15.152   2.208   9.661  0.0211 -0.2598 -0.0626
  358loPI   C1A 5719  15.396   1.826   9.324  0.0540  0.1567  0.0314
  358loPI   C2A 5720  15.423   1.862   8.928  0.0195 -0.1725 -0.3546
  358loPI   C3A 5721  15.420   1.775   8.510  0.2324 -0.3656 -0.0846
  358loPI   C4A 5722  15.445   1.804   8.042 -0.2676 -0.0730  0.0248
  358loPI   C5A 5723  15.316   2.019   7.727 -0.1590 -0.0936  0.3666
  358loPI   C6A 5724  15.300   2.249   7.442 -0.1863 -0.2179 -0.1302
  358loPI   C1B 5725  15.451   2.428   9.341  0.1715  0.0176 -0.0250
  358loPI   C2B 5726  15.435   2.876   9.268  0.1712 -0.0658  0.1252
  358loPI   C3B 5727  15.119   2.989   8.981 -0.1720  0.2260  0.1389
  358loPI   C4B 5728  14.807   2.981   8.628 -0.0096  0.0049  0.0396
  359loPI    C1 5729   1.934   0.970  10.166 -0.1710  0.1033  0.2304
  359loPI    C2 5730   2.176   1.274  10.265 -0.0235  0.0775 -0.0411
  359loPI    C3 5731   1.906   1.139  10.528  0.3190  0.0450  0.3032
  359loPI   PO4 5732   1.964   0.973   9.966 -0.1256  0.0517  0.2573
  359loPI   GL1 5733   1.901   0.812   9.614 -0.4209 -0.0652 -0.0622
  359loPI   GL2 5734   1.820   0.635   9.499  0.0806  0.0602 -0.0113
  359loPI   C1A 5735   1.691   1.152   9.406 -0.0484  0.0767  0.0458
  359loPI   C2A 5736   1.667   1.501   9.337  0.1299 -0.1999 -0.0422
  359loPI   C3A 5737   1.637   1.495   8.989  0.4136 -0.0549  0.3485
  359loPI   C4A 5738   1.671   1.638   8.541 -0.1846 -0.0471  0.0173
  359loPI   C5A 5739   1.536   1.955   8.339  0.1149  0.0930  0.2014
  359loPI   C6A 5740   1.517   2.443   8.446 -0.1401 -0.5139 -0.0207
  359loPI   C1B 5741   2.062   0.724   9.126 -0.0544 -0.1633  0.3818
  359loPI   C2B 5742   2.103   0.749   8.727  0.1375  0.1794  0.0221
  359loPI   C3B 5743   2.128   0.915   8.406  0.0918  0.3607  0.0512
  359loPI   C4B 5744   2.068   1.296   8.081 -0.0098 -0.2364 -0.0283
  360loPI    C1 5745   7.951   8.770   9.883  0.0976  0.1373 -0.0761
  360loPI    C2 5746   7.698   8.975  10.115  0.0204  0.0189 -0.0553
  360loPI    C3 5747   7.958   8.719  10.279 -0.0939 -0.1305 -0.1048
  360loPI   PO4 5748   7.794   8.687   9.712  0.0944  0.0512  0.0957
  360loPI   GL1 5749   7.956   8.549   9.344  0.4117  0.0656 -0.0274
  360loPI   GL2 5750   8.249   8.600   9.198  0.0647 -0.1582 -0.2573
  360loPI   C1A 5751   7.852   8.413   8.971  0.1242  0.2130 -0.0085
  360loPI   C2A 5752   7.912   8.324   8.496 -0.1115  0.0092 -0.1312
  360loPI   C3A 5753   7.934   8.520   8.115  0.2963  0.1310  0.3047
  360loPI   C4A 5754   7.739   8.335   7.746 -0.1225  0.0187 -0.1426
  360loPI   C5A 5755   7.313   8.215   7.429  0.0103  0.2461  0.0813
  360loPI   C6A 5756   6.904   8.388   7.187 -0.0841 -0.0291 -0.1828
  360loPI   C1B 5757   8.312   8.565   8.783 -0.1669 -0.1761  0.0193
  360loPI   C2B 5758   8.421   8.708   8.354 -0.2307  0.3566 -0.1007
  360loPI   C3B 5759   8.220   8.872   7.946 -0.3347  0.2644 -0.2117
  360loPI   C4B 5760   8.030   9.189   7.768 -0.4346 -0.3203 -0.1347
  361loPI    C1 5761   7.161  12.409   9.981  0.1224  0.1270 -0.1364
  361loPI    C2 5762   7.347  12.072   9.873  0.3004  0.1818 -0.0051
  361loPI    C3 5763   7.380  12.207  10.248  0.1576  0.2988 -0.0336
  361loPI   PO4 5764   7.245  12.577   9.840  0.2369  0.0190  0.0685
  361loPI   GL1 5765   7.128  12.651   9.464 -0.0898 -0.0257 -0.1629
  361loPI   GL2 5766   7.317  12.911   9.400  0.3316 -0.1342 -0.1765
  361loPI   C1A 5767   7.258  12.559   9.109  0.1421 -0.1226 -0.1781
  361loPI   C2A 5768   7.179  12.391   8.802 -0.1786 -0.1470 -0.2297
  361loPI   C3A 5769   6.876  12.525   8.456 -0.0709 -0.3299 -0.3709
  361loPI   C4A 5770   6.525  12.704   8.426  0.0164  0.1065  0.0117
  361loPI   C5A 5771   6.049  12.693   8.475  0.0006  0.1327 -0.1801
  361loPI   C6A 5772   5.645  12.432   8.303 -0.0872 -0.0627 -0.1716
  361loPI   C1B 5773   7.671  12.807   9.101  0.0047 -0.0915 -0.2340
  361loPI   C2B 5774   7.791  12.693   8.685  0.3698 -0.0450 -0.0662
  361loPI   C3B 5775   7.859  12.542   8.282  0.0202  0.1535 -0.4996
  361loPI   C4B 5776   7.716  12.477   7.912  0.0200  0.0884 -0.0192
  362loPI    C1 5777  12.984  15.970  10.141 -0.2729  0.0683 -0.0647
  362loPI    C2 5778  13.001  15.639  10.365  0.0634  0.1587  0.0504
  362loPI    C3 5779  13.030  15.999  10.538 -0.0291  0.2408 -0.1026
  362loPI   PO4 5780  12.806  15.942   9.949  0.4665  0.0200  0.0820
  362loPI   GL1 5781  12.799  15.841   9.398 -0.1632  0.0849 -0.0498
  362loPI   GL2 5782  13.047  15.868   9.462 -0.1553  0.0777 -0.0206
  362loPI   C1A 5783  12.541  15.862   8.976  0.2116  0.0479  0.3626
  362loPI   C2A 5784  12.588  15.819   8.568  0.3001  0.2754  0.0672
  362loPI   C3A 5785  12.515  15.843   8.164  0.2033 -0.1721  0.0679
  362loPI   C4A 5786  12.754  16.004   7.753  0.0579 -0.1703 -0.1351
  362loPI   C5A 5787  12.927  16.339   7.450 -0.1577  0.1399  0.0243
  362loPI   C6A 5788  13.368  16.311   7.420 -0.4007 -0.0200 -0.0348
  362loPI   C1B 5789  13.046  16.152   9.180  0.2325  0.4216  0.1580
  362loPI   C2B 5790  12.939  16.116   8.787  0.0244 -0.0141  0.1696
  362loPI   C3B 5791  12.813  16.213   8.364 -0.2071  0.0663 -0.3556
  362loPI   C4B 5792  12.759  16.442   7.967 -0.1238 -0.1094 -0.0121
  363loPI    C1 5793  15.565   1.074  10.251  0.1480  0.0676 -0.1382
  363loPI    C2 5794  15.717   1.406  10.415 -0.2677  0.0771  0.2472
  363loPI    C3 5795  15.671   1.077  10.637 -0.1862 -0.1324 -0.0409
  363loPI   PO4 5796  15.581   1.148   9.938  0.2358  0.1033  0.3061
  363loPI   GL1 5797  15.484   0.980   9.573 -0.1172 -0.1257 -0.0621
  363loPI   GL2 5798  15.247   1.278   9.590 -0.1001  0.1947  0.0282
  363loPI   C1A 5799  15.707   0.942   9.245 -0.1162  0.0411  0.1838
  363loPI   C2A 5800  15.860   0.961   8.836  0.1606  0.5199  0.1443
  363loPI   C3A 5801  15.885   0.952   8.345 -0.0445  0.2555  0.3925
  363loPI   C4A 5802  15.894   0.796   7.874 -0.0864  0.1671  0.0902
  363loPI   C5A 5803  15.728   0.469   7.806  0.3524  0.3871  0.2265
  363loPI   C6A 5804  15.799   0.103   7.536 -0.1798 -0.0106 -0.1422
  363loPI   C1B 5805  15.033   1.438   9.195  0.1516  0.0968 -0.3151
  363loPI   C2B 5806  15.008   1.359   8.778 -0.2287  0.0806 -0.0115
  363loPI   C3B 5807  15.222   1.406   8.293  0.3266  0.3206  0.0652
  363loPI   C4B 5808  15.262   1.401   7.817 -0.0473  0.2959  0.0583
  364loPI    C1 5809   5.638  15.861  10.483  0.0270  0.0158  0.2041
  364loPI    C2 5810   5.623  15.533  10.711  0.0101  0.0864  0.3053
  364loPI    C3 5811   5.657  15.893  10.881  0.0441  0.1363  0.1938
  364loPI   PO4 5812   5.817  15.766  10.256  0.2947 -0.1218 -0.0755
  364loPI   GL1 5813   5.932  15.845   9.768  0.1371  0.0084 -0.2066
  364loPI   GL2 5814   6.046  16.208   9.882  0.2211 -0.0499  0.1850
  364loPI   C1A 5815   5.937  15.931   9.270  0.0395 -0.0955  0.1046
  364loPI   C2A 5816   6.014  16.031   8.824  0.0466  0.0028 -0.3944
  364loPI   C3A 5817   5.940  16.022   8.344 -0.2024  0.0779  0.2938
  364loPI   C4A 5818   5.794  16.270   7.948  0.0641 -0.1080 -0.0710
  364loPI   C5A 5819   6.081  16.622   7.697 -0.0380  0.1921 -0.0342
  364loPI   C6A 5820   6.505  16.790   7.695 -0.3044 -0.3851 -0.1603
  364loPI   C1B 5821   5.910  16.495   9.555  0.0740  0.0696  0.2201
  364loPI   C2B 5822   5.934  16.466   9.140 -0.0286  0.0849  0.1068
  364loPI   C3B 5823   5.742  16.567   8.764  0.1437 -0.0301  0.1312
  364loPI   C4B 5824   5.740  16.529   8.342  0.0892  0.2124  0.2420
  365loPI    C1 5825  13.774   5.658  10.285 -0.0868  0.2043 -0.0048
  365loPI    C2 5826  14.149   5.689  10.151 -0.0366 -0.2242  0.0239
  365loPI    C3 5827  14.068   5.762  10.536  0.0213 -0.1531  0.0227
  365loPI   PO4 5828  13.668   5.731  10.098 -0.3404 -0.0576  0.3184
  365loPI   GL1 5829  13.662   5.876   9.725 -0.0396 -0.1398 -0.0057
  365loPI   GL2 5830  13.295   5.968   9.730  0.0180  0.1144 -0.2675
  365loPI   C1A 5831  13.467   5.656   9.354 -0.0764  0.1788 -0.2169
  365loPI   C2A 5832  13.382   5.647   9.083 -0.0139  0.1646  0.1942
  365loPI   C3A 5833  13.226   5.553   8.655  0.0641  0.2293 -0.1077
  365loPI   C4A 5834  13.115   5.358   8.244  0.1117  0.3238  0.0382
  365loPI   C5A 5835  13.332   5.245   7.885 -0.1922 -0.1389 -0.0988
  365loPI   C6A 5836  13.574   5.087   7.592 -0.2754 -0.3311 -0.0747
  365loPI   C1B 5837  13.001   6.083   9.433  0.0880  0.0105  0.1381
  365loPI   C2B 5838  12.910   6.027   8.932  0.2987  0.4290 -0.8189
  365loPI   C3B 5839  12.782   6.016   8.506 -0.3260 -0.1279 -0.0161
  365loPI   C4B 5840  12.789   6.125   8.044 -0.1239 -0.5780 -0.1979
  366loPI    C1 5841   7.321   3.530  10.586 -0.0033 -0.0091  0.1987
  366loPI    C2 5842   7.549   3.801  10.771  0.1618 -0.1061  0.1396
  366loPI    C3 5843   7.382   3.504  10.980 -0.0701  0.0739  0.2147
  366loPI   PO4 5844   7.241   3.561  10.395 -0.0483 -0.0918 -0.2023
  366loPI   GL1 5845   7.287   3.647   9.946 -0.0118  0.0558  0.0541
  366loPI   GL2 5846   7.069   3.933   9.796 -0.0799  0.4070 -0.2699
  366loPI   C1A 5847   7.541   3.741   9.612 -0.2717 -0.0070 -0.0503
  366loPI   C2A 5848   7.534   3.667   9.160  0.0252  0.3390  0.1669
  366loPI   C3A 5849   7.492   3.686   8.747  0.0239  0.2509 -0.0536
  366loPI   C4A 5850   7.470   3.637   8.414  0.0366 -0.0345 -0.1995
  366loPI   C5A 5851   7.393   3.659   8.024 -0.1256  0.2981  0.0630
  366loPI   C6A 5852   7.277   3.827   7.675 -0.2615  0.0756 -0.2786
  366loPI   C1B 5853   7.208   4.057   9.467  0.0211 -0.2279  0.1534
  366loPI   C2B 5854   7.245   4.110   9.113  0.0055 -0.1224  0.1619
  366loPI   C3B 5855   7.171   4.093   8.613  0.0755 -0.0663 -0.0824
  366loPI   C4B 5856   7.316   4.109   8.140  0.0495  0.1939 -0.2549
  367loPI    C1 5857   9.209  10.262   9.804  0.3449 -0.1455  0.1675
  367loPI    C2 5858   9.185  10.347  10.194  0.3374 -0.0133  0.1386
  367loPI    C3 5859   9.473  10.511   9.971  0.3352 -0.0803  0.0859
  367loPI   PO4 5860   9.099  10.043   9.777 -0.1463  0.0556  0.0111
  367loPI   GL1 5861   9.237   9.755   9.440 -0.0921  0.0910 -0.1101
  367loPI   GL2 5862   9.416  10.016   9.285 -0.1202 -0.0869 -0.0344
  367loPI   C1A 5863   9.524   9.607   8.952  0.0151 -0.0297  0.4670
  367loPI   C2A 5864   9.511   9.795   8.567  0.0932 -0.1759  0.3627
  367loPI   C3A 5865   9.765   9.551   8.177  0.0559 -0.1368  0.1316
  367loPI   C4A 5866   9.504   9.212   7.815 -0.1152 -0.0921 -0.2505
  367loPI   C5A 5867   9.496   9.060   7.393  0.0763  0.0004  0.2427
  367loPI   C6A 5868   9.327   8.867   7.034  0.2946  0.3439  0.1895
  367loPI   C1B 5869   9.394  10.368   9.007 -0.2404 -0.2077 -0.1094
  367loPI   C2B 5870   9.359  10.442   8.458 -0.2446 -0.2014 -0.0361
  367loPI   C3B 5871   9.351  10.120   8.176 -0.7553  0.0594  0.0972
  367loPI   C4B 5872   9.687   9.988   7.989 -0.1347 -0.0933  0.1295
  368loPI    C1 5873   7.893  15.213  10.407  0.0355 -0.1180  0.0298
  368loPI    C2 5874   8.243  15.213  10.601  0.0139  0.1387  0.0711
  368loPI    C3 5875   7.901  15.175  10.805  0.0275 -0.4285  0.0031
  368loPI   PO4 5876   8.009  15.079  10.155  0.1004 -0.0945 -0.2625
  368loPI   GL1 5877   7.880  14.958   9.774  0.2574 -0.4845 -0.5015
  368loPI   GL2 5878   8.155  15.187   9.732 -0.1644  0.1382 -0.0834
  368loPI   C1A 5879   7.830  14.759   9.341  0.0173  0.0200 -0.2369
  368loPI   C2A 5880   7.866  14.856   8.918 -0.1249  0.2140 -0.0234
  368loPI   C3A 5881   7.706  14.774   8.462  0.1162  0.0993 -0.1528
  368loPI   C4A 5882   7.648  14.602   8.045 -0.0627  0.0890 -0.1337
  368loPI   C5A 5883   7.298  14.471   7.870  0.0416 -0.0552 -0.1622
  368loPI   C6A 5884   7.047  14.700   7.528 -0.2104 -0.1329  0.0219
  368loPI   C1B 5885   8.149  15.115   9.310 -0.2634 -0.1490 -0.2166
  368loPI   C2B 5886   8.144  15.283   9.005  0.1441 -0.0202  0.1818
  368loPI   C3B 5887   8.094  15.256   8.546 -0.1559  0.0977  0.1586
  368loPI   C4B 5888   8.126  14.907   8.330  0.0940 -0.0295  0.0053
  369loPI    C1 5889   1.129  15.412   9.923 -0.1184  0.0440  0.2245
  369loPI    C2 5890   1.345  15.715   9.777  0.0275 -0.1795 -0.0321
  369loPI    C3 5891   1.491  15.492  10.074 -0.0226 -0.0836  0.0653
  369loPI   PO4 5892   1.033  15.215   9.732 -0.0205 -0.0523  0.2101
  369loPI   GL1 5893   1.079  15.180   9.280  0.0197 -0.1276 -0.2079
  369loPI   GL2 5894   1.181  15.568   9.258  0.0444  0.3399  0.0474
  369loPI   C1A 5895   0.841  15.109   9.010  0.2364  0.0265 -0.0711
  369loPI   C2A 5896   0.983  14.984   8.682 -0.1347 -0.0434 -0.2543
  369loPI   C3A 5897   1.061  14.934   8.372 -0.0645 -0.1597  0.0976
  369loPI   C4A 5898   1.019  14.688   7.968 -0.1690 -0.0968 -0.1108
  369loPI   C5A 5899   1.127  14.276   7.817  0.0873 -0.3188  0.4033
  369loPI   C6A 5900   1.191  13.916   7.985  0.1390  0.0300  0.0405
  369loPI   C1B 5901   1.282  15.360   8.852  0.1402  0.3038  0.1980
  369loPI   C2B 5902   1.519  15.490   8.441 -0.4004  0.1257  0.1508
  369loPI   C3B 5903   1.770  15.459   8.098 -0.1000  0.2685  0.0468
  369loPI   C4B 5904   1.837  15.622   7.868  0.0824 -0.1410  0.1876
  370loPI    C1 5905   1.311  10.833  10.200  0.0607 -0.0561 -0.0232
  370loPI    C2 5906   1.344  10.686  10.571 -0.1467  0.0158  0.0253
  370loPI    C3 5907   1.462  11.060  10.492 -0.0164 -0.0305 -0.0030
  370loPI   PO4 5908   1.465  10.763   9.995  0.1738  0.1819  0.2373
  370loPI   GL1 5909   1.643  10.972   9.670 -0.2049 -0.1094 -0.1986
  370loPI   GL2 5910   1.743  10.740   9.494 -0.1191 -0.0176 -0.3402
  370loPI   C1A 5911   1.668  11.391   9.417 -0.0363 -0.2525  0.0834
  370loPI   C2A 5912   1.489  11.756   9.330  0.4592 -0.1480  0.1876
  370loPI   C3A 5913   1.189  11.785   9.002  0.1385  0.0132 -0.1104
  370loPI   C4A 5914   1.132  11.592   8.621  0.0181 -0.0117  0.1404
  370loPI   C5A 5915   1.240  11.714   8.199 -0.1136 -0.0188  0.0870
  370loPI   C6A 5916   1.452  11.796   7.808  0.1405  0.0151 -0.0408
  370loPI   C1B 5917   1.675  10.704   9.055  0.1824  0.2540 -0.0824
  370loPI   C2B 5918   1.483  10.692   8.628  0.0521 -0.1965  0.0635
  370loPI   C3B 5919   1.503  10.506   8.223 -0.0464  0.1563  0.2500
  370loPI   C4B 5920   1.915  10.309   8.016  0.0116  0.0543 -0.1725
  371loPI    C1 5921   1.115   7.114  10.063 -0.1471 -0.0845 -0.1101
  371loPI    C2 5922   1.398   7.046  10.337 -0.2164  0.1725  0.0285
  371loPI    C3 5923   1.020   6.936  10.408 -0.1770 -0.0527 -0.1019
  371loPI   PO4 5924   1.292   6.994   9.827 -0.4417  0.0972 -0.2615
  371loPI   GL1 5925   1.462   6.901   9.380  0.0410  0.0294 -0.3525
  371loPI   GL2 5926   1.241   7.266   9.327 -0.0826 -0.0872  0.0293
  371loPI   C1A 5927   1.571   6.870   8.939 -0.0243 -0.1550 -0.0440
  371loPI   C2A 5928   1.522   6.687   8.635  0.0462 -0.4192  0.1124
  371loPI   C3A 5929   1.544   6.531   8.218 -0.1725 -0.0668  0.1944
  371loPI   C4A 5930   1.734   6.083   7.986  0.0942 -0.1889 -0.1639
  371loPI   C5A 5931   1.928   6.034   7.626 -0.1096 -0.0709  0.0130
  371loPI   C6A 5932   2.292   6.166   7.486 -0.3042  0.1348  0.4803
  371loPI   C1B 5933   1.018   7.313   8.904 -0.2916  0.2225 -0.0863
  371loPI   C2B 5934   1.020   7.490   8.549 -0.2030 -0.1956 -0.0385
  371loPI   C3B 5935   1.115   7.463   8.095  0.4247 -0.1089 -0.0395
  371loPI   C4B 5936   1.138   7.441   7.691  0.2293 -0.0150 -0.2188
  372loPI    C1 5937   1.516  15.002  10.206  0.2008  0.4175  0.0672
  372loPI    C2 5938   1.196  15.158  10.389 -0.0783 -0.2210  0.1485
  372loPI    C3 5939   1.465  14.950  10.600  0.1036 -0.1512 -0.0121
  372loPI   PO4 5940   1.461  14.941   9.987  0.2618  0.0260 -0.0460
  372loPI   GL1 5941   1.513  15.125   9.577  0.0392  0.2070 -0.0901
  372loPI   GL2 5942   1.318  14.806   9.546 -0.1107 -0.1139  0.0646
  372loPI   C1A 5943   1.667  15.399   9.282  0.0726 -0.0549  0.0815
  372loPI   C2A 5944   1.753  15.492   8.870  0.0135 -0.0964  0.0889
  372loPI   C3A 5945   1.999  15.350   8.531 -0.0199  0.0455  0.0859
  372loPI   C4A 5946   2.323  15.229   8.139 -0.0408  0.0886  0.1209
  372loPI   C5A 5947   2.761  15.195   8.006 -0.1636  0.1623 -0.2825
  372loPI   C6A 5948   3.017  14.958   7.679  0.5348  0.0291  0.2740
  372loPI   C1B 5949   0.996  14.703   9.213  0.0067 -0.0186  0.2876
  372loPI   C2B 5950   0.604  14.631   9.053  0.1326  0.0690  0.4290
  372loPI   C3B 5951   0.330  14.881   8.810  0.1180  0.2462 -0.2309
  372loPI   C4B 5952   0.407  15.180   8.570 -0.0005 -0.2486 -0.2200
  373loPI    C1 5953  12.356   2.831  10.464  0.1581  0.0587 -0.0104
  373loPI    C2 5954  12.214   3.204  10.443  0.2501  0.0796 -0.3179
  373loPI    C3 5955  12.518   3.119  10.689 -0.0272  0.1189  0.0477
  373loPI   PO4 5956  12.280   2.756  10.170  0.0356  0.0961 -0.0161
  373loPI   GL1 5957  11.998   2.942   9.931 -0.0813 -0.2547 -0.3180
  373loPI   GL2 5958  12.290   3.203   9.864  0.1685  0.3169 -0.2242
  373loPI   C1A 5959  11.742   2.829   9.533  0.0559 -0.0440 -0.4930
  373loPI   C2A 5960  11.747   2.764   9.079  0.0411 -0.0532  0.0546
  373loPI   C3A 5961  11.585   2.633   8.732 -0.1585  0.3927  0.1451
  373loPI   C4A 5962  11.581   2.490   8.278 -0.0434 -0.0178  0.1941
  373loPI   C5A 5963  11.750   2.181   7.967 -0.0079  0.0972  0.2219
  373loPI   C6A 5964  11.992   1.723   7.871  0.1891  0.1715 -0.1101
  373loPI   C1B 5965  12.241   2.885   9.485 -0.0785 -0.0234  0.1439
  373loPI   C2B 5966  12.266   2.686   9.022 -0.1618  0.1521  0.0743
  373loPI   C3B 5967  12.338   2.742   8.679 -0.0930  0.2472  0.0775
  373loPI   C4B 5968  12.657   2.845   8.337  0.1792  0.3875 -0.0052
  374loPI    C1 5969  10.581   5.045  10.279 -0.4079 -0.0414  0.2375
  374loPI    C2 5970  10.685   4.804  10.581 -0.2831 -0.0015  0.2267
  374loPI    C3 5971  10.923   5.108  10.475 -0.1601 -0.2148 -0.1275
  374loPI   PO4 5972  10.496   4.923  10.117  0.1800  0.0052  0.3499
  374loPI   GL1 5973  10.532   4.607   9.915  0.4004 -0.0999 -0.0140
  374loPI   GL2 5974  10.267   4.538   9.730  0.0149 -0.4241 -0.2269
  374loPI   C1A 5975  10.673   4.722   9.463 -0.1127 -0.3021 -0.3361
  374loPI   C2A 5976  10.752   4.546   9.084 -0.1404 -0.0716 -0.1382
  374loPI   C3A 5977  10.761   4.196   8.740  0.1880 -0.0284  0.0685
  374loPI   C4A 5978  11.069   4.066   8.374  0.0512 -0.0610 -0.0438
  374loPI   C5A 5979  11.297   4.036   7.878 -0.0259 -0.3724  0.1758
  374loPI   C6A 5980  11.543   3.750   7.661  0.0020 -0.1525  0.0577
  374loPI   C1B 5981  10.176   4.643   9.268  0.3890  0.0066  0.0274
  374loPI   C2B 5982  10.316   4.764   8.902 -0.0921  0.2510  0.2366
  374loPI   C3B 5983  10.362   5.017   8.561 -0.0582 -0.0754  0.3935
  374loPI   C4B 5984  10.492   5.056   8.195  0.0909  0.0655  0.0425
  375loPI    C1 5985   0.994  18.725  10.179  0.0139 -0.1605 -0.1237
  375loPI    C2 5986   1.211  18.498  10.427  0.0490 -0.1936 -0.1847
  375loPI    C3 5987   0.817  18.439  10.395 -0.0332  0.1042  0.1974
  375loPI   PO4 5988   1.179  18.698   9.936  0.1509 -0.0629  0.3339
  375loPI   GL1 5989   1.013  18.620   9.581 -0.0702 -0.2543  0.0796
  375loPI   GL2 5990   0.943  18.286   9.527  0.2627 -0.1761 -0.3076
  375loPI   C1A 5991   1.187  18.575   9.182  0.0040  0.2920  0.2648
  375loPI   C2A 5992   1.377  18.619   8.707  0.2671  0.1854 -0.2075
  375loPI   C3A 5993   1.450  18.947   8.443 -0.1101  0.2239 -0.1112
  375loPI   C4A 5994   1.407  19.021   7.963 -0.0246 -0.1728 -0.3895
  375loPI   C5A 5995   1.556  19.006   7.613  0.0969 -0.2347 -0.1241
  375loPI   C6A 5996   2.003  18.990   7.538 -0.0952 -0.0427  0.0507
  375loPI   C1B 5997   1.115  18.095   9.263  0.0648  0.0940  0.0092
  375loPI   C2B 5998   1.466  17.894   8.912  0.1506  0.1924 -0.1221
  375loPI   C3B 5999   1.754  17.704   8.650 -0.2199 -0.0807 -0.1332
  375loPI   C4B 6000   2.241  17.617   8.690 -0.0257 -0.1478 -0.1319
  376loPI    C1 6001   7.453  18.200  10.696  0.4043 -0.1359  0.1540
  376loPI    C2 6002   7.428  18.573  10.840  0.2072 -0.0665 -0.0539
  376loPI    C3 6003   7.276  18.268  11.049  0.1209  0.0051 -0.0116
  376loPI   PO4 6004   7.365  18.228  10.440  0.0339 -0.0854  0.2059
  376loPI   GL1 6005   7.544  18.207  10.174  0.0821 -0.4057  0.0829
  376loPI   GL2 6006   7.471  17.958   9.977  0.0493 -0.0493  0.0349
  376loPI   C1A 6007   7.223  18.374   9.788  0.2268  0.0003  0.0003
  376loPI   C2A 6008   7.262  18.418   9.310  0.0222  0.4966 -0.2941
  376loPI   C3A 6009   7.153  18.384   8.885  0.1720  0.1924 -0.3502
  376loPI   C4A 6010   7.207  18.365   8.525  0.0051 -0.2775 -0.1985
  376loPI   C5A 6011   7.179  18.442   8.100  0.1534  0.0361 -0.1175
  376loPI   C6A 6012   7.274  18.851   7.840 -0.2857 -0.1395 -0.1272
  376loPI   C1B 6013   7.568  18.000   9.522 -0.3502  0.1363 -0.2910
  376loPI   C2B 6014   7.642  17.905   9.132 -0.2245 -0.0153 -0.1716
  376loPI   C3B 6015   7.470  17.940   8.692  0.2743  0.1285  0.0432
  376loPI   C4B 6016   7.453  17.944   8.292  0.5336  0.2176  0.1027
  377loPI    C1 6017  15.479  15.597  10.383 -0.0398  0.0597  0.1479
  377loPI    C2 6018  15.619  15.921  10.570 -0.1000  0.0067  0.2859
  377loPI    C3 6019  15.725  15.557  10.696 -0.2083 -0.0303  0.2702
  377loPI   PO4 6020  15.430  15.782  10.022 -0.1011 -0.1239 -0.0308
  377loPI   GL1 6021  15.440  15.705   9.631  0.2787  0.0545 -0.1051
  377loPI   GL2 6022  15.705  15.776   9.432  0.3647 -0.1859  0.0617
  377loPI   C1A 6023  15.505  15.375   9.197 -0.0010 -0.1104  0.2716
  377loPI   C2A 6024  15.653  15.010   8.916  0.0189 -0.1201  0.2711
  377loPI   C3A 6025  15.653  15.082   8.505 -0.0086  0.0669  0.1525
  377loPI   C4A 6026  15.671  15.018   7.990  0.1808 -0.0959  0.0565
  377loPI   C5A 6027  15.496  15.160   7.664  0.0435 -0.0172  0.1014
  377loPI   C6A 6028  15.632  15.365   7.326  0.2187  0.1479  0.1722
  377loPI   C1B 6029  15.982  16.028   8.980 -0.2216  0.4488  0.1126
  377loPI   C2B 6030  16.077  15.994   8.514  0.1039 -0.0897 -0.0900
  377loPI   C3B 6031  16.168  15.908   8.086  0.2667  0.1909 -0.0018
  377loPI   C4B 6032  16.031  15.524   7.817 -0.0510 -0.0335  0.0060
  378loPI    C1 6033   5.522   1.089  10.577 -0.0287 -0.1000 -0.0748
  378loPI    C2 6034   5.442   0.743  10.759 -0.0536 -0.0060  0.0947
  378loPI    C3 6035   5.175   1.041  10.769 -0.0182  0.0301 -0.0219
  378loPI   PO4 6036   5.537   0.943  10.344 -0.3070  0.1383 -0.0821
  378loPI   GL1 6037   5.445   0.698   9.960 -0.1613  0.1166 -0.0391
  378loPI   GL2 6038   5.756   0.725   9.995  0.1216 -0.1561 -0.1470
  378loPI   C1A 6039   5.504   0.553   9.526 -0.1340 -0.0350 -0.5296
  378loPI   C2A 6040   5.694   0.412   9.225  0.0162 -0.2420 -0.1518
  378loPI   C3A 6041   5.547   0.413   8.834 -0.0512 -0.0402  0.0957
  378loPI   C4A 6042   5.635   0.351   8.385 -0.1389 -0.4565 -0.1244
  378loPI   C5A 6043   5.936   0.315   8.093 -0.3171 -0.1622  0.3007
  378loPI   C6A 6044   6.238   0.372   7.790 -0.2406  0.1670 -0.3290
  378loPI   C1B 6045   6.008   0.602   9.624 -0.2061  0.1293  0.2629
  378loPI   C2B 6046   6.177   0.403   9.255 -0.1619  0.2104 -0.0945
  378loPI   C3B 6047   6.156   0.438   8.878  0.1254  0.1921 -0.0116
  378loPI   C4B 6048   6.143   0.410   8.550 -0.0749 -0.0684 -0.1409
  379loPI    C1 6049   6.312  16.436  10.493  0.0082  0.0442 -0.0888
  379loPI    C2 6050   6.019  16.192  10.613 -0.0676  0.1964  0.0400
  379loPI    C3 6051   6.388  16.147  10.759 -0.0582  0.0951 -0.0139
  379loPI   PO4 6052   6.263  16.434  10.261  0.0001  0.1142 -0.2055
  379loPI   GL1 6053   6.534  16.402   9.884  0.1139 -0.1424 -0.0502
  379loPI   GL2 6054   6.869  16.410  10.033  0.1005 -0.0504 -0.0271
  379loPI   C1A 6055   6.387  16.552   9.472 -0.0692 -0.1654 -0.1081
  379loPI   C2A 6056   6.395  16.635   9.066 -0.3062 -0.1016  0.3093
  379loPI   C3A 6057   6.202  16.562   8.652 -0.0675  0.2862  0.2531
  379loPI   C4A 6058   6.260  16.521   8.128  0.2087 -0.1366  0.1683
  379loPI   C5A 6059   6.235  16.129   7.893  0.0766  0.0770 -0.1538
  379loPI   C6A 6060   5.932  15.816   7.658  0.3384 -0.0746 -0.0306
  379loPI   C1B 6061   7.019  16.178   9.652  0.0638 -0.0094  0.2330
  379loPI   C2B 6062   7.078  16.137   9.208  0.0838  0.0292  0.1289
  379loPI   C3B 6063   7.099  16.156   8.662  0.1731  0.1371 -0.1700
  379loPI   C4B 6064   6.947  16.119   8.281 -0.0483  0.1093 -0.3144
  380loPI    C1 6065   2.228  11.893   9.954 -0.2528  0.0293  0.0274
  380loPI    C2 6066   2.202  11.500  10.022  0.0955  0.0179  0.1129
  380loPI    C3 6067   2.457  11.639   9.747 -0.1379  0.1760 -0.0274
  380loPI   PO4 6068   2.030  12.028   9.888  0.0707  0.0499 -0.1594
  380loPI   GL1 6069   1.877  12.312   9.636  0.1998  0.2480 -0.1012
  380loPI   GL2 6070   1.605  12.316   9.557 -0.0849 -0.0240  0.0337
  380loPI   C1A 6071   2.016  12.208   9.222 -0.0580  0.1962  0.0327
  380loPI   C2A 6072   1.920  12.220   8.812 -0.0817  0.0014  0.0563
  380loPI   C3A 6073   1.965  12.438   8.357  0.0034 -0.1787 -0.0368
  380loPI   C4A 6074   2.018  12.627   8.039  0.1436  0.1702  0.0985
  380loPI   C5A 6075   1.758  12.623   7.637  0.0232  0.0811 -0.4562
  380loPI   C6A 6076   1.345  12.608   7.540 -0.1449  0.1221  0.2843
  380loPI   C1B 6077   1.463  12.207   9.099  0.3216 -0.0566 -0.0768
  380loPI   C2B 6078   1.376  12.217   8.613 -0.4113  0.0294 -0.1448
  380loPI   C3B 6079   1.651  12.026   8.191  0.2138  0.0610  0.1213
  380loPI   C4B 6080   1.854  12.202   7.871  0.0571 -0.1363 -0.1589
  381loPI    C1 6081   5.221   1.682  10.504  0.0588  0.1702  0.0774
  381loPI    C2 6082   5.562   1.615  10.701  0.0482 -0.1062  0.0060
  381loPI    C3 6083   5.214   1.500  10.860  0.0040  0.0151 -0.0020
  381loPI   PO4 6084   5.376   1.560  10.244 -0.1089 -0.2380 -0.0133
  381loPI   GL1 6085   5.348   1.505   9.811 -0.0991  0.0745  0.1455
  381loPI   GL2 6086   5.483   1.169   9.857 -0.4287 -0.1403 -0.0137
  381loPI   C1A 6087   5.471   1.508   9.328  0.0317 -0.0573 -0.1008
  381loPI   C2A 6088   5.657   1.298   8.980  0.1494 -0.2545  0.0862
  381loPI   C3A 6089   5.713   1.261   8.525  0.2121  0.1957  0.0410
  381loPI   C4A 6090   5.753   1.268   8.060  0.1747 -0.0080  0.1628
  381loPI   C5A 6091   5.841   1.254   7.632  0.2447  0.0957 -0.0098
  381loPI   C6A 6092   5.873   1.117   7.230 -0.2783  0.0675  0.1815
  381loPI   C1B 6093   5.784   1.123   9.560 -0.0353 -0.2881  0.1710
  381loPI   C2B 6094   5.856   0.907   9.146  0.0327 -0.2452  0.3104
  381loPI   C3B 6095   5.886   0.817   8.760 -0.0222  0.0501 -0.0587
  381loPI   C4B 6096   5.922   0.800   8.323  0.2338  0.0184  0.3681
  382loPI    C1 6097  17.918   1.281  10.095  0.0209 -0.1120  0.1060
  382loPI    C2 6098  17.982   1.413  10.467 -0.0422  0.0712  0.0528
  382loPI    C3 6099  17.640   1.226  10.377 -0.0427  0.0600  0.0779
  382loPI   PO4 6100  17.918   1.415   9.870 -0.3406 -0.0086 -0.2464
  382loPI   GL1 6101  17.777   1.172   9.580  0.1496 -0.1978 -0.3723
  382loPI   GL2 6102  17.965   1.060   9.484 -0.0073 -0.1281 -0.1859
  382loPI   C1A 6103  17.468   1.426   9.220 -0.1467  0.2124  0.0886
  382loPI   C2A 6104  17.327   1.318   8.909  0.0190  0.1826  0.1256
  382loPI   C3A 6105  17.328   1.122   8.474  0.1802 -0.4286  0.1558
  382loPI   C4A 6106  17.632   1.172   8.082  0.4085 -0.0138  0.3763
  382loPI   C5A 6107  17.709   1.196   7.726 -0.1036  0.1024 -0.0429
  382loPI   C6A 6108  17.916   1.406   7.436 -0.0237 -0.6761  0.1342
  382loPI   C1B 6109  17.932   1.136   9.134 -0.2471  0.0402 -0.2380
  382loPI   C2B 6110  17.809   1.192   8.704 -0.0740 -0.1078 -0.3435
  382loPI   C3B 6111  17.718   1.537   8.470 -0.0962  0.1577 -0.1306
  382loPI   C4B 6112  17.864   1.659   8.080  0.0595 -0.3046 -0.0016
  383loPI    C1 6113  16.382  17.104  10.181  0.1848  0.0133  0.0578
  383loPI    C2 6114  16.716  17.001  10.374  0.1058 -0.3734 -0.0024
  383loPI    C3 6115  16.372  16.817  10.459 -0.1229  0.1045  0.1452
  383loPI   PO4 6116  16.395  17.080   9.926 -0.1749 -0.1222 -0.0763
  383loPI   GL1 6117  16.142  17.277   9.614  0.2746  0.0327 -0.1825
  383loPI   GL2 6118  15.931  17.067   9.755 -0.1130  0.0861  0.1216
  383loPI   C1A 6119  16.253  17.041   9.340  0.0093 -0.3578 -0.3063
  383loPI   C2A 6120  16.354  16.999   8.806 -0.0718  0.1601  0.2977
  383loPI   C3A 6121  16.500  16.892   8.448 -0.0319  0.0848  0.0968
  383loPI   C4A 6122  16.417  17.059   8.029  0.0026 -0.1889 -0.2387
  383loPI   C5A 6123  16.313  17.519   7.841  0.0297 -0.0167  0.0048
  383loPI   C6A 6124  16.388  17.865   7.635  0.1215  0.0462 -0.0166
  383loPI   C1B 6125  15.802  16.942   9.365  0.0831 -0.1876  0.4350
  383loPI   C2B 6126  15.892  16.902   9.024 -0.1214  0.2344 -0.0267
  383loPI   C3B 6127  15.916  16.850   8.523  0.1985 -0.0415 -0.0578
  383loPI   C4B 6128  15.974  16.692   8.119 -0.1335 -0.3479 -0.2049
  384loPI    C1 6129   7.927   0.692  10.477 -0.0618  0.0227  0.1180
  384loPI    C2 6130   7.986   0.452  10.790 -0.1521 -0.1302  0.0194
  384loPI    C3 6131   8.006   0.849  10.836  0.2094 -0.1582  0.1397
  384loPI   PO4 6132   7.984   0.558  10.229  0.2699  0.0153 -0.0259
  384loPI   GL1 6133   8.025   0.506   9.829  0.0399 -0.0097 -0.1045
  384loPI   GL2 6134   7.641   0.464   9.792 -0.0401 -0.1595  0.0506
  384loPI   C1A 6135   8.312   0.384   9.486  0.1855  0.3643 -0.0962
  384loPI   C2A 6136   8.385   0.437   9.105  0.1460 -0.0971  0.0340
  384loPI   C3A 6137   8.191   0.358   8.714 -0.0378  0.0123  0.1442
  384loPI   C4A 6138   8.182   0.366   8.286 -0.1410 -0.0549 -0.1983
  384loPI   C5A 6139   8.264   0.107   7.905 -0.0266  0.1030  0.0096
  384loPI   C6A 6140   8.012  -0.243   7.703 -0.1250  0.1818  0.0900
  384loPI   C1B 6141   7.724   0.439   9.386  0.2480 -0.0425  0.2842
  384loPI   C2B 6142   7.745   0.454   8.933  0.0851 -0.0477 -0.1468
  384loPI   C3B 6143   7.673   0.341   8.512 -0.1238 -0.0379 -0.1875
  384loPI   C4B 6144   7.618   0.333   7.998 -0.3005  0.0677  0.0016
  385loPI    C1 6145   5.517  14.925  10.170  0.1974 -0.0366  0.1111
  385loPI    C2 6146   5.885  14.828  10.046  0.1283 -0.2443  0.0646
  385loPI    C3 6147   5.746  14.685  10.393  0.1017 -0.1426  0.0962
  385loPI   PO4 6148   5.372  15.024   9.978 -0.3400  0.0306  0.1626
  385loPI   GL1 6149   5.161  14.988   9.611  0.0095 -0.1638 -0.3373
  385loPI   GL2 6150   5.025  14.816   9.648 -0.2317  0.0949  0.0146
  385loPI   C1A 6151   5.378  15.066   9.270 -0.0983  0.0764 -0.3021
  385loPI   C2A 6152   5.476  15.188   8.817 -0.2271  0.0435  0.3353
  385loPI   C3A 6153   5.453  15.260   8.275  0.0509 -0.0005  0.1260
  385loPI   C4A 6154   5.320  15.294   7.839 -0.0104 -0.3164 -0.3587
  385loPI   C5A 6155   5.036  15.060   7.655  0.1359 -0.0314  0.1139
  385loPI   C6A 6156   4.694  14.789   7.820  0.1105 -0.2175  0.2640
  385loPI   C1B 6157   4.850  14.592   9.261  0.1932 -0.3426 -0.2562
  385loPI   C2B 6158   4.405  14.442   9.138 -0.4864  0.1779 -0.0740
  385loPI   C3B 6159   4.267  14.758   8.771  0.0133  0.0679 -0.0358
  385loPI   C4B 6160   4.257  14.843   8.369  0.1415 -0.0605  0.4109
  386loPI    C1 6161   8.495   2.248  10.480 -0.0828 -0.0384  0.0733
  386loPI    C2 6162   8.816   2.392  10.670 -0.0659  0.1626 -0.1033
  386loPI    C3 6163   8.745   1.998  10.667  0.1340  0.1241  0.0045
  386loPI   PO4 6164   8.467   2.378  10.269  0.1851 -0.2124  0.0373
  386loPI   GL1 6165   8.539   2.276   9.936  0.0091 -0.0463  0.0828
  386loPI   GL2 6166   8.752   2.278   9.770  0.2348 -0.0129  0.1371
  386loPI   C1A 6167   8.445   1.923   9.648  0.2038 -0.2191  0.1403
  386loPI   C2A 6168   8.531   1.865   9.214 -0.4694  0.2207 -0.2136
  386loPI   C3A 6169   8.530   1.719   8.875 -0.2024  0.2116 -0.2179
  386loPI   C4A 6170   8.480   1.761   8.469  0.1827 -0.0187 -0.3414
  386loPI   C5A 6171   8.443   1.689   8.054 -0.1199  0.1913  0.0790
  386loPI   C6A 6172   8.742   1.761   7.682 -0.3512 -0.1432  0.2285
  386loPI   C1B 6173   8.908   2.222   9.379 -0.2470  0.0083  0.2376
  386loPI   C2B 6174   8.707   2.353   8.995  0.1374 -0.0968 -0.3645
  386loPI   C3B 6175   8.784   2.223   8.631  0.2563  0.1725  0.2891
  386loPI   C4B 6176   8.740   2.124   8.198  0.0204  0.0305  0.1900
  387loPI    C1 6177   1.298   9.158  10.068 -0.0412  0.2876 -0.1335
  387loPI    C2 6178   1.388   9.506  10.243 -0.0650  0.2358 -0.0174
  387loPI    C3 6179   1.161   9.238  10.435 -0.1517  0.2081 -0.1569
  387loPI   PO4 6180   1.148   9.245   9.789 -0.0880  0.0369 -0.3594
  387loPI   GL1 6181   1.327   9.276   9.470  0.1754 -0.0634  0.0971
  387loPI   GL2 6182   1.273   9.058   9.262 -0.2830 -0.0901  0.0838
  387loPI   C1A 6183   1.708   9.323   9.211  0.0357  0.3255 -0.2123
  387loPI   C2A 6184   1.949   9.102   8.997 -0.2570 -0.1190  0.0915
  387loPI   C3A 6185   2.186   9.053   8.535  0.0982  0.0924 -0.2816
  387loPI   C4A 6186   2.429   9.082   8.268  0.1337  0.0450  0.0502
  387loPI   C5A 6187   2.462   9.366   7.848 -0.1105 -0.1162  0.0632
  387loPI   C6A 6188   2.663   9.280   7.332 -0.1046  0.0728 -0.0891
  387loPI   C1B 6189   0.972   9.229   9.055 -0.2427 -0.0162 -0.0700
  387loPI   C2B 6190   0.836   9.535   8.695  0.0800  0.1764  0.2924
  387loPI   C3B 6191   0.787   9.936   8.478  0.2801 -0.0110 -0.1152
  387loPI   C4B 6192   0.993  10.166   8.158 -0.1679 -0.0214  0.0023
  388loPI    C1 6193   4.501   1.047  10.236 -0.0400 -0.3164 -0.2265
  388loPI    C2 6194   4.653   0.898  10.574 -0.1540  0.2018  0.0632
  388loPI    C3 6195   4.268   0.835  10.483 -0.1459  0.1355  0.0741
  388loPI   PO4 6196   4.613   1.029  10.099 -0.1636 -0.1679  0.1783
  388loPI   GL1 6197   4.882   1.128   9.821  0.0956 -0.0782 -0.1624
  388loPI   GL2 6198   5.017   0.831   9.760 -0.2196 -0.2006  0.1451
  388loPI   C1A 6199   4.916   1.327   9.510  0.2146  0.0943  0.2003
  388loPI   C2A 6200   5.019   1.398   9.091 -0.4226  0.2466  0.3779
  388loPI   C3A 6201   5.226   1.300   8.727  0.1667  0.0308  0.2138
  388loPI   C4A 6202   5.062   1.324   8.325  0.1420  0.1523 -0.1648
  388loPI   C5A 6203   5.080   1.046   7.910 -0.1852 -0.2032  0.1293
  388loPI   C6A 6204   4.999   1.007   7.575 -0.1661 -0.0247 -0.0495
  388loPI   C1B 6205   5.295   0.981   9.383 -0.0962 -0.1056  0.2888
  388loPI   C2B 6206   5.323   0.880   9.038  0.0993  0.0426  0.3209
  388loPI   C3B 6207   5.378   0.810   8.578  0.0786  0.3403  0.0400
  388loPI   C4B 6208   5.459   0.818   8.134 -0.2326 -0.1895  0.3662
  389loPI    C1 6209  11.001   1.307  10.473 -0.0756 -0.1403  0.1524
  389loPI    C2 6210  10.881   1.644  10.292  0.1283 -0.1005  0.0887
  389loPI    C3 6211  10.664   1.488  10.590 -0.0582 -0.0087  0.0023
  389loPI   PO4 6212  11.023   1.116  10.335 -0.2277  0.0475  0.2445
  389loPI   GL1 6213  10.956   1.031   9.953 -0.2288 -0.3108  0.2583
  389loPI   GL2 6214  10.747   0.941   9.908 -0.0809 -0.0934  0.0273
  389loPI   C1A 6215  11.201   0.912   9.518 -0.1360 -0.2836  0.0353
  389loPI   C2A 6216  11.333   0.934   9.147 -0.0120  0.1267 -0.5069
  389loPI   C3A 6217  11.257   1.026   8.770 -0.2324  0.3265  0.0886
  389loPI   C4A 6218  11.161   0.913   8.437  0.1191 -0.2687  0.1017
  389loPI   C5A 6219  11.173   0.858   7.912  0.0425 -0.1031 -0.0650
  389loPI   C6A 6220  11.245   0.453   7.710 -0.1157 -0.1999 -0.0283
  389loPI   C1B 6221  10.704   0.860   9.511 -0.4971 -0.1862  0.1269
  389loPI   C2B 6222  10.850   0.916   9.175 -0.1972 -0.1926  0.1732
  389loPI   C3B 6223  10.725   0.883   8.793  0.1602  0.1222 -0.1759
  389loPI   C4B 6224  10.566   0.925   8.406  0.0144  0.0933 -0.0461
  390loPI    C1 6225  11.401   0.529  10.875  0.0270 -0.2408 -0.2777
  390loPI    C2 6226  11.064   0.461  11.080  0.1414  0.1612  0.0581
  390loPI    C3 6227  11.408   0.297  11.201  0.1143 -0.0467 -0.1395
  390loPI   PO4 6228  11.314   0.463  10.640  0.1602  0.0899 -0.0117
  390loPI   GL1 6229  11.358   0.400  10.232  0.1942 -0.1251 -0.1618
  390loPI   GL2 6230  11.261   0.092  10.220  0.1662  0.1702 -0.1432
  390loPI   C1A 6231  11.150   0.526   9.866 -0.1771 -0.0333 -0.0123
  390loPI   C2A 6232  11.044   0.465   9.404  0.0919  0.0859 -0.0402
  390loPI   C3A 6233  11.076   0.490   8.981 -0.0935 -0.1827  0.0292
  390loPI   C4A 6234  10.945   0.488   8.539 -0.0483  0.4351  0.0260
  390loPI   C5A 6235  10.762   0.460   8.180 -0.2746 -0.0996 -0.2671
  390loPI   C6A 6236  10.500   0.185   7.953 -0.0773  0.0086 -0.1705
  390loPI   C1B 6237  11.449   0.072   9.794 -0.5280  0.3693 -0.3121
  390loPI   C2B 6238  11.296   0.049   9.371  0.1558  0.1569  0.2498
  390loPI   C3B 6239  11.242   0.024   8.917 -0.0908 -0.0827  0.0603
  390loPI   C4B 6240  11.268   0.017   8.443  0.1305 -0.1936 -0.1108
  391loPI    C1 6241  12.733   5.901  10.786 -0.2989 -0.0136 -0.0728
  391loPI    C2 6242  12.681   6.280  10.670 -0.3933  0.0139  0.0578
  391loPI    C3 6243  12.721   6.193  11.058  0.5530 -0.0009 -0.0194
  391loPI   PO4 6244  12.726   5.732  10.525 -0.2447  0.2796 -0.3045
  391loPI   GL1 6245  12.674   5.538  10.152  0.0898  0.3029 -0.0272
  391loPI   GL2 6246  12.836   5.419   9.841  0.1935  0.1417  0.0393
  391loPI   C1A 6247  12.589   5.791   9.721  0.1324 -0.0602  0.0789
  391loPI   C2A 6248  12.526   5.941   9.246  0.0892  0.2732 -0.3601
  391loPI   C3A 6249  12.395   5.947   8.825  0.2228 -0.2221 -0.7660
  391loPI   C4A 6250  12.335   5.912   8.389 -0.1487  0.0576  0.2333
  391loPI   C5A 6251  12.284   6.116   8.054 -0.1234  0.0070  0.1774
  391loPI   C6A 6252  12.462   6.286   7.685  0.0464  0.1037  0.1658
  391loPI   C1B 6253  12.924   5.564   9.437  0.1575 -0.0361  0.0029
  391loPI   C2B 6254  12.763   5.552   8.992 -0.0073  0.0814 -0.0465
  391loPI   C3B 6255  12.681   5.538   8.651 -0.0996  0.0501 -0.1371
  391loPI   C4B 6256  12.715   5.652   8.199 -0.0900 -0.1174  0.1004
  392loPI    C1 6257   9.481   9.542  10.063 -0.2272 -0.0186  0.1951
  392loPI    C2 6258   9.731   9.275  10.225 -0.2127 -0.0759  0.0798
  392loPI    C3 6259   9.562   9.557  10.454  0.0958  0.0741  0.1271
  392loPI   PO4 6260   9.505   9.363   9.762 -0.0307 -0.0051 -0.3405
  392loPI   GL1 6261   9.682   9.528   9.438  0.1901 -0.0381 -0.0761
  392loPI   GL2 6262   9.932   9.368   9.347 -0.1619 -0.2085  0.0716
  392loPI   C1A 6263   9.879   9.888   9.211  0.1094  0.0260 -0.1031
  392loPI   C2A 6264   9.844  10.191   8.920  0.0699  0.0190 -0.1046
  392loPI   C3A 6265   9.788  10.231   8.530 -0.1955 -0.2905 -0.1845
  392loPI   C4A 6266   9.825  10.466   8.243  0.1374  0.2524 -0.0276
  392loPI   C5A 6267   9.985  10.762   8.021 -0.1466 -0.2590  0.1482
  392loPI   C6A 6268  10.168  10.930   7.728  0.1644 -0.0527 -0.0293
  392loPI   C1B 6269  10.032   9.436   8.973 -0.1101  0.1270  0.2237
  392loPI   C2B 6270   9.976   9.676   8.694 -0.1773 -0.4064 -0.2753
  392loPI   C3B 6271  10.105   9.903   8.256 -0.0495  0.0225  0.1522
  392loPI   C4B 6272  10.151   9.814   7.863  0.0649  0.0416  0.1301
  393loPI    C1 6273  14.820  16.145  10.250 -0.0115 -0.1383  0.2479
  393loPI    C2 6274  14.985  16.361  10.543  0.0256 -0.0319  0.1493
  393loPI    C3 6275  15.184  16.052  10.386  0.0960  0.0432  0.0900
  393loPI   PO4 6276  14.695  16.300  10.067  0.4967  0.1808 -0.1543
  393loPI   GL1 6277  14.851  16.372   9.569 -0.0568 -0.2491  0.1242
  393loPI   GL2 6278  14.560  16.289   9.562 -0.1433 -0.0953 -0.0806
  393loPI   C1A 6279  14.871  16.270   9.162  0.1113  0.0432  0.1981
  393loPI   C2A 6280  14.990  16.036   8.769 -0.1667 -0.1400 -0.0400
  393loPI   C3A 6281  14.857  15.896   8.464 -0.2006 -0.0360  0.0412
  393loPI   C4A 6282  14.918  15.792   7.999  0.1254  0.2242  0.3682
  393loPI   C5A 6283  14.758  16.047   7.790  0.0853  0.3532 -0.0500
  393loPI   C6A 6284  14.293  16.018   7.601 -0.0319  0.2732 -0.3318
  393loPI   C1B 6285  14.350  16.222   9.139 -0.0821  0.0332  0.3675
  393loPI   C2B 6286  14.422  16.171   8.653  0.1125 -0.2414  0.1394
  393loPI   C3B 6287  14.516  16.153   8.219 -0.1977  0.0910  0.3752
  393loPI   C4B 6288  14.528  16.549   7.951 -0.2816  0.0838 -0.1363
  394loPI    C1 6289   7.082   2.538  10.232 -0.0879 -0.3401  0.0628
  394loPI    C2 6290   6.786   2.806  10.253  0.0568 -0.1584 -0.1701
  394loPI    C3 6291   6.933   2.644  10.588  0.0081  0.0977 -0.0223
  394loPI   PO4 6292   7.182   2.617  10.091  0.3412  0.1200 -0.1043
  394loPI   GL1 6293   7.331   2.451   9.713 -0.0877  0.1355 -0.2225
  394loPI   GL2 6294   7.136   2.281   9.453 -0.1585 -0.0063  0.3801
  394loPI   C1A 6295   7.319   2.713   9.305  0.1635 -0.0159  0.2100
  394loPI   C2A 6296   7.344   2.607   8.865 -0.1183  0.0475  0.2941
  394loPI   C3A 6297   7.430   2.586   8.411  0.2454  0.3720  0.0023
  394loPI   C4A 6298   7.502   2.688   8.002 -0.2646 -0.2647  0.2454
  394loPI   C5A 6299   7.550   2.910   7.643 -0.1014  0.1741 -0.0104
  394loPI   C6A 6300   7.502   3.386   7.607  0.2296  0.0357  0.0114
  394loPI   C1B 6301   7.174   2.146   9.053  0.1797 -0.0757 -0.1212
  394loPI   C2B 6302   7.115   2.216   8.578 -0.1096  0.1444  0.0074
  394loPI   C3B 6303   7.168   2.298   8.102 -0.1876  0.2621  0.2119
  394loPI   C4B 6304   7.136   2.470   7.765  0.0577  0.0117  0.2398
  395loPI    C1 6305  13.083  10.595  10.358 -0.2752 -0.1923  0.0912
  395loPI    C2 6306  13.259  10.682  10.707  0.2570 -0.3171 -0.1349
  395loPI    C3 6307  12.874  10.573  10.698  0.1675 -0.0747  0.3802
  395loPI   PO4 6308  13.199  10.816  10.202 -0.1805 -0.6050 -0.0988
  395loPI   GL1 6309  13.216  11.025   9.818 -0.1418  0.0653 -0.0934
  395loPI   GL2 6310  13.138  11.268   9.675  0.0058  0.0946  0.1526
  395loPI   C1A 6311  13.422  10.789   9.376  0.1033  0.0443  0.1474
  395loPI   C2A 6312  13.618  10.684   9.021 -0.0856 -0.0551 -0.2305
  395loPI   C3A 6313  13.771  10.699   8.570 -0.0305  0.3010  0.2062
  395loPI   C4A 6314  13.607  10.659   8.251 -0.3539  0.0357 -0.1039
  395loPI   C5A 6315  13.741  10.491   7.853  0.3840  0.2730 -0.3401
  395loPI   C6A 6316  14.124  10.334   7.654 -0.0694 -0.2796  0.6506
  395loPI   C1B 6317  13.395  11.275   9.362 -0.0063 -0.1588  0.2778
  395loPI   C2B 6318  13.506  11.211   8.876 -0.1600 -0.2900 -0.1721
  395loPI   C3B 6319  13.550  11.143   8.452 -0.0602  0.0499  0.1518
  395loPI   C4B 6320  13.453  11.228   8.041 -0.2108  0.1871  0.1373
  396loPI    C1 6321  18.488   0.308  10.081  0.0632 -0.0177  0.1288
  396loPI    C2 6322  18.699   0.076  10.329 -0.0103 -0.2611 -0.0328
  396loPI    C3 6323  18.317   0.162  10.412  0.0363 -0.1421  0.0607
  396loPI   PO4 6324  18.609   0.547  10.047  0.4183 -0.2929  0.3697
  396loPI   GL1 6325  18.752   0.753   9.601 -0.0609  0.0986 -0.3595
  396loPI   GL2 6326  18.811   1.040   9.516  0.1101  0.0377  0.1229
  396loPI   C1A 6327  18.389   0.866   9.320 -0.3475 -0.0320 -0.1948
  396loPI   C2A 6328  18.365   0.941   8.893  0.1861  0.1501  0.2359
  396loPI   C3A 6329  18.290   0.762   8.479 -0.2831  0.2730  0.0732
  396loPI   C4A 6330  18.314   0.544   8.102 -0.1303  0.3601  0.1557
  396loPI   C5A 6331  18.441   0.126   7.933 -0.0526  0.0114 -0.1620
  396loPI   C6A 6332  18.642  -0.301   7.991  0.1387  0.2634 -0.3035
  396loPI   C1B 6333  18.760   1.207   9.085  0.0380  0.0798  0.1716
  396loPI   C2B 6334  18.776   1.291   8.590  0.0200 -0.2948  0.0041
  396loPI   C3B 6335  18.630   1.341   8.146  0.0926 -0.0094  0.1358
  396loPI   C4B 6336  18.567   1.110   7.751 -0.0252  0.0355 -0.0472
  397loPI    C1 6337   5.847   5.321  10.109 -0.1832 -0.0146  0.1235
  397loPI    C2 6338   6.148   5.086  10.229 -0.0074  0.0917 -0.1026
  397loPI    C3 6339   5.773   5.005  10.343  0.0716 -0.2030 -0.0455
  397loPI   PO4 6340   5.775   5.359   9.822 -0.1120  0.0344  0.1878
  397loPI   GL1 6341   6.028   5.386   9.461 -0.0001  0.2325  0.1941
  397loPI   GL2 6342   6.301   5.560   9.417 -0.2097 -0.1751 -0.1510
  397loPI   C1A 6343   6.075   5.202   9.102  0.1442 -0.0393  0.2221
  397loPI   C2A 6344   6.371   5.090   8.875  0.3766 -0.0833 -0.1408
  397loPI   C3A 6345   6.585   4.989   8.527  0.1367 -0.0590  0.0111
  397loPI   C4A 6346   6.721   5.036   8.100 -0.0528 -0.1513 -0.1101
  397loPI   C5A 6347   6.611   5.062   7.648 -0.0710 -0.0037 -0.1943
  397loPI   C6A 6348   6.095   5.164   7.807  0.0694  0.1161 -0.0051
  397loPI   C1B 6349   5.963   5.690   9.103  0.2314  0.1078  0.3057
  397loPI   C2B 6350   6.025   5.866   8.692  0.2153 -0.2335 -0.0764
  397loPI   C3B 6351   5.914   5.691   8.295  0.2192  0.2686  0.1490
  397loPI   C4B 6352   5.787   5.665   7.845  0.1383 -0.1435 -0.0668
  398loPI    C1 6353   6.486   8.076   9.798 -0.1409  0.0423 -0.0329
  398loPI    C2 6354   6.586   8.221  10.157  0.1863  0.0187 -0.1108
  398loPI    C3 6355   6.651   7.836  10.072 -0.2835 -0.0796 -0.0526
  398loPI   PO4 6356   6.218   8.197   9.754 -0.2802 -0.1110  0.1814
  398loPI   GL1 6357   6.086   8.137   9.313 -0.3057 -0.0472 -0.0734
  398loPI   GL2 6358   5.802   7.950   9.361  0.1115 -0.0438 -0.0547
  398loPI   C1A 6359   6.161   8.037   8.780 -0.0781  0.3812  0.0416
  398loPI   C2A 6360   6.180   7.864   8.262  0.0489 -0.5591 -0.1590
  398loPI   C3A 6361   6.115   7.943   7.813 -0.0061  0.0039  0.2838
  398loPI   C4A 6362   6.296   7.992   7.375 -0.1215  0.0897 -0.2016
  398loPI   C5A 6363   6.481   7.564   7.192 -0.2127 -0.0245 -0.1646
  398loPI   C6A 6364   6.357   7.118   7.061  0.2167  0.0917  0.1932
  398loPI   C1B 6365   5.705   7.796   8.918  0.1748 -0.0542  0.0692
  398loPI   C2B 6366   5.782   7.622   8.528 -0.1250  0.2315  0.0316
  398loPI   C3B 6367   5.813   7.646   8.050  0.2655  0.0089  0.2741
  398loPI   C4B 6368   5.995   7.490   7.592  0.1212 -0.2152  0.1865
  399loPI    C1 6369   8.323  13.203  10.250 -0.0348 -0.1894  0.1659
  399loPI    C2 6370   8.225  13.140   9.868  0.1362 -0.1783  0.1191
  399loPI    C3 6371   8.064  12.914  10.156 -0.0539 -0.1347  0.0484
  399loPI   PO4 6372   8.248  13.485  10.260 -0.3420  0.2345 -0.0604
  399loPI   GL1 6373   8.289  13.767   9.995  0.0950 -0.2151 -0.1476
  399loPI   GL2 6374   8.193  14.120   9.878 -0.0070  0.2648 -0.2273
  399loPI   C1A 6375   8.217  13.691   9.611  0.1441  0.1958  0.1026
  399loPI   C2A 6376   8.243  13.840   9.140 -0.0476  0.2076  0.1992
  399loPI   C3A 6377   8.261  13.912   8.749  0.1207 -0.1859  0.4234
  399loPI   C4A 6378   8.370  14.030   8.304  0.0394  0.0220 -0.0615
  399loPI   C5A 6379   8.213  14.035   7.837  0.1792  0.1888  0.1068
  399loPI   C6A 6380   7.885  14.078   7.478 -0.2422  0.0353  0.2242
  399loPI   C1B 6381   8.355  14.148   9.545  0.1815 -0.1694  0.1891
  399loPI   C2B 6382   8.454  14.282   9.169 -0.3609 -0.1476 -0.2215
  399loPI   C3B 6383   8.501  14.396   8.717 -0.1678  0.0394 -0.2137
  399loPI   C4B 6384   8.746  14.333   8.353 -0.0907 -0.1358 -0.2610
  400loPI    C1 6385  16.942   5.935   9.767  0.3368  0.1391  0.0444
  400loPI    C2 6386  16.724   5.769  10.059  0.1505 -0.3412 -0.3546
  400loPI    C3 6387  17.072   5.946  10.146 -0.1906  0.0750  0.2361
  400loPI   PO4 6388  16.932   5.746   9.561 -0.1260  0.1301 -0.1238
  400loPI   GL1 6389  16.795   5.947   9.130  0.0282  0.2705  0.3158
  400loPI   GL2 6390  17.128   6.135   9.262 -0.2796  0.2295 -0.3324
  400loPI   C1A 6391  16.908   6.165   8.786  0.1188 -0.0925 -0.1455
  400loPI   C2A 6392  16.775   6.132   8.319 -0.2561  0.2827 -0.0833
  400loPI   C3A 6393  16.890   5.717   8.062 -0.3054 -0.0222  0.0728
  400loPI   C4A 6394  16.656   5.403   8.012 -0.0731 -0.0362  0.1452
  400loPI   C5A 6395  16.220   5.328   7.902 -0.0209  0.2826 -0.0340
  400loPI   C6A 6396  15.882   5.281   7.577 -0.2851  0.0277 -0.1990
  400loPI   C1B 6397  17.270   5.784   8.986 -0.0177  0.1285 -0.3177
  400loPI   C2B 6398  16.910   5.553   8.936 -0.3440 -0.3054 -0.0926
  400loPI   C3B 6399  16.929   5.033   8.889  0.0143 -0.0265  0.2859
  400loPI   C4B 6400  16.662   4.698   8.666  0.0779 -0.0170 -0.0778
  401loPI    C1 6401   2.633   6.050   9.906  0.2194  0.0176 -0.0470
  401loPI    C2 6402   2.578   6.000  10.299  0.0021  0.0928 -0.0670
  401loPI    C3 6403   2.936   6.110  10.160  0.1413 -0.1557  0.0891
  401loPI   PO4 6404   2.392   6.233   9.760  0.1569 -0.0273  0.1237
  401loPI   GL1 6405   2.173   6.053   9.363  0.2821 -0.0865 -0.2561
  401loPI   GL2 6406   1.941   5.974   9.661  0.1184  0.0510  0.2448
  401loPI   C1A 6407   2.123   6.049   8.911 -0.1672 -0.0532 -0.0156
  401loPI   C2A 6408   1.882   5.969   8.596  0.6111  0.2483  0.0673
  401loPI   C3A 6409   2.126   5.884   8.174  0.2379  0.2681 -0.1695
  401loPI   C4A 6410   2.365   5.715   7.812  0.2987 -0.1454 -0.0367
  401loPI   C5A 6411   2.657   5.451   7.653  0.0660 -0.2863  0.0798
  401loPI   C6A 6412   2.709   5.386   7.215  0.3955  0.0698  0.2394
  401loPI   C1B 6413   1.688   5.980   9.251  0.1041  0.1363 -0.0459
  401loPI   C2B 6414   1.499   6.227   8.815 -0.3216  0.1447  0.0381
  401loPI   C3B 6415   1.280   6.197   8.420 -0.0218  0.0490 -0.1847
  401loPI   C4B 6416   1.217   6.249   7.873 -0.1356 -0.0481 -0.2452
  402loPI    C1 6417   6.045  10.808  10.143 -0.0916 -0.0147 -0.1863
  402loPI    C2 6418   6.015  11.028  10.475 -0.0228 -0.1208 -0.1093
  402loPI    C3 6419   5.961  10.632  10.492  0.0372 -0.1337 -0.2144
  402loPI   PO4 6420   6.220  10.993   9.940  0.1252  0.3989 -0.0427
  402loPI   GL1 6421   6.143  10.849   9.484 -0.1393 -0.1022 -0.2617
  402loPI   GL2 6422   5.890  10.632   9.280  0.2612 -0.0230  0.1255
  402loPI   C1A 6423   6.254  10.948   9.062  0.2504  0.1335  0.1472
  402loPI   C2A 6424   6.500  11.052   8.587  0.0205  0.2329 -0.0974
  402loPI   C3A 6425   6.593  11.084   8.254 -0.0011  0.2850  0.0572
  402loPI   C4A 6426   6.696  11.155   7.847  0.2601  0.1227 -0.0094
  402loPI   C5A 6427   7.061  11.229   7.600  0.1538  0.0444  0.1165
  402loPI   C6A 6428   7.442  11.202   7.293  0.0634  0.2338 -0.1317
  402loPI   C1B 6429   5.766  10.845   8.920  0.4102  0.1706 -0.2404
  402loPI   C2B 6430   5.613  10.895   8.483  0.3648 -0.2960 -0.2348
  402loPI   C3B 6431   5.623  11.024   8.037 -0.0356 -0.0099 -0.3401
  402loPI   C4B 6432   5.524  11.169   7.692  0.1413 -0.1762 -0.2771
  403loPI    C1 6433   0.003   3.595   9.960  0.2064 -0.1918  0.1097
  403loPI    C2 6434  -0.085   3.618  10.350 -0.0289  0.0961  0.0439
  403loPI    C3 6435   0.261   3.455  10.232  0.1087  0.1365  0.3792
  403loPI   PO4 6436   0.074   3.899   9.859  0.2762 -0.0240  0.0924
  403loPI   GL1 6437   0.169   4.109   9.588  0.2605 -0.1095 -0.1164
  403loPI   GL2 6438   0.302   3.762   9.426 -0.2062 -0.0264 -0.3134
  403loPI   C1A 6439   0.262   4.194   9.151  0.2547  0.2055 -0.1440
  403loPI   C2A 6440   0.518   4.442   8.819  0.1346  0.1177  0.2844
  403loPI   C3A 6441   0.727   4.493   8.362  0.2059 -0.3570 -0.1034
  403loPI   C4A 6442   0.955   4.276   8.039  0.1622 -0.1853  0.0442
  403loPI   C5A 6443   0.886   3.889   7.936 -0.1732  0.0306  0.1283
  403loPI   C6A 6444   0.743   3.555   7.698 -0.0733  0.0144  0.0020
  403loPI   C1B 6445   0.375   3.771   8.915 -0.0523 -0.1640  0.3879
  403loPI   C2B 6446   0.153   4.074   8.631  0.0692  0.1240  0.3799
  403loPI   C3B 6447   0.011   3.973   8.285  0.0514 -0.2390 -0.0571
  403loPI   C4B 6448  -0.433   3.868   8.004  0.0216  0.0756 -0.0688
  404loPI    C1 6449  10.263   9.201  10.304  0.0754 -0.0155  0.0674
  404loPI    C2 6450  10.058   9.471  10.517  0.0618  0.1617 -0.1665
  404loPI    C3 6451  10.157   9.119  10.681 -0.3888  0.0910 -0.0340
  404loPI   PO4 6452  10.352   9.265  10.093 -0.2229 -0.1857 -0.3193
  404loPI   GL1 6453  10.653   9.318   9.792  0.0419  0.0584  0.3183
  404loPI   GL2 6454  10.382   9.135   9.639  0.0133 -0.1271  0.4881
  404loPI   C1A 6455  10.436   9.547   9.379 -0.0391  0.1920 -0.3603
  404loPI   C2A 6456  10.533   9.464   8.915 -0.0494  0.0814  0.2406
  404loPI   C3A 6457  10.666   9.368   8.563 -0.0581  0.2233 -0.0412
  404loPI   C4A 6458  10.580   9.056   8.260  0.3469  0.0617 -0.2095
  404loPI   C5A 6459  10.269   9.008   7.912  0.0326 -0.1602 -0.0932
  404loPI   C6A 6460   9.994   9.292   7.823 -0.0539 -0.1500 -0.3446
  404loPI   C1B 6461  10.548   8.962   9.202  0.0060 -0.3503 -0.1018
  404loPI   C2B 6462  10.677   8.893   8.774 -0.5346 -0.0189 -0.0597
  404loPI   C3B 6463  10.891   8.764   8.548  0.5190 -0.2856 -0.0549
  404loPI   C4B 6464  11.095   8.943   8.260  0.0536 -0.1517 -0.0674
  405loPI    C1 6465  16.486   8.716  10.352 -0.0546 -0.0645  0.1536
  405loPI    C2 6466  16.831   8.537  10.449  0.0384  0.0447  0.0268
  405loPI    C3 6467  16.567   8.629  10.734  0.2179  0.1746  0.1540
  405loPI   PO4 6468  16.410   8.520  10.024 -0.0183 -0.3138 -0.1111
  405loPI   GL1 6469  16.200   8.612   9.663  0.0941 -0.2531 -0.1990
  405loPI   GL2 6470  15.891   8.614   9.591  0.0380 -0.1878 -0.2538
  405loPI   C1A 6471  16.285   8.557   9.292  0.1391 -0.3657  0.4593
  405loPI   C2A 6472  16.106   8.441   9.012  0.0001  0.2061 -0.1167
  405loPI   C3A 6473  15.949   8.200   8.642 -0.2346 -0.1755  0.1464
  405loPI   C4A 6474  15.993   8.104   8.184 -0.0491 -0.0052 -0.0230
  405loPI   C5A 6475  15.949   8.311   7.683  0.0985  0.0119 -0.1945
  405loPI   C6A 6476  15.920   8.192   7.287 -0.0618 -0.0648 -0.2817
  405loPI   C1B 6477  15.903   8.861   9.181  0.0934  0.3541 -0.0239
  405loPI   C2B 6478  15.912   9.110   8.880  0.1349  0.3054  0.1947
  405loPI   C3B 6479  15.963   9.012   8.434  0.3514  0.3354 -0.0681
  405loPI   C4B 6480  15.905   8.707   8.068 -0.2183  0.2187 -0.0860
  406loPI    C1 6481   2.042   1.751  10.414  0.0087 -0.2380 -0.1699
  406loPI    C2 6482   2.304   2.043  10.338 -0.1649 -0.0213  0.0458
  406loPI    C3 6483   2.288   1.878  10.702 -0.2506 -0.1137  0.0007
  406loPI   PO4 6484   1.961   1.706  10.149 -0.0888 -0.4619  0.1011
  406loPI   GL1 6485   2.187   1.576   9.816 -0.1869 -0.1977 -0.0499
  406loPI   GL2 6486   2.167   1.222   9.542 -0.1959  0.0506 -0.1358
  406loPI   C1A 6487   2.085   1.738   9.365  0.1996  0.4240 -0.1768
  406loPI   C2A 6488   2.117   1.824   8.931 -0.0234  0.2639  0.1451
  406loPI   C3A 6489   1.964   2.114   8.531 -0.0810  0.4905  0.0408
  406loPI   C4A 6490   2.411   2.253   8.331  0.1879 -0.0711 -0.1385
  406loPI   C5A 6491   2.745   2.247   8.113 -0.0873  0.1276 -0.1091
  406loPI   C6A 6492   2.938   2.571   7.873  0.0924  0.0208 -0.0880
  406loPI   C1B 6493   2.089   1.226   9.096 -0.3049  0.0895 -0.0214
  406loPI   C2B 6494   2.120   1.378   8.661  0.0547  0.4093 -0.0748
  406loPI   C3B 6495   2.081   1.740   8.230 -0.0663 -0.2469 -0.0980
  406loPI   C4B 6496   1.946   2.102   8.040 -0.2068 -0.0256  0.1171
  407loPI    C1 6497  14.008   4.177  10.487 -0.1125  0.2445 -0.2709
  407loPI    C2 6498  13.813   4.496  10.630 -0.0901  0.0496  0.2111
  407loPI    C3 6499  14.206   4.516  10.558 -0.1333  0.1999  0.0088
  407loPI   PO4 6500  13.891   4.101  10.309 -0.0104 -0.0536  0.1001
  407loPI   GL1 6501  13.934   4.000   9.921 -0.3581 -0.2415 -0.1643
  407loPI   GL2 6502  14.217   3.791   9.805 -0.0268 -0.4551  0.0886
  407loPI   C1A 6503  13.795   4.165   9.587 -0.1456 -0.0871 -0.0468
  407loPI   C2A 6504  13.530   4.161   9.251  0.0920  0.4447 -0.1929
  407loPI   C3A 6505  13.299   4.185   8.860 -0.0937  0.2597 -0.1052
  407loPI   C4A 6506  13.037   4.229   8.541  0.1801 -0.1520  0.4250
  407loPI   C5A 6507  13.011   4.324   8.151 -0.0908  0.2457  0.2540
  407loPI   C6A 6508  12.738   4.689   7.941  0.4308  0.0347  0.1402
  407loPI   C1B 6509  13.822   3.727   9.410  0.1532 -0.1642 -0.1184
  407loPI   C2B 6510  13.635   3.726   9.117  0.2595 -0.2933  0.1742
  407loPI   C3B 6511  13.449   3.591   8.822 -0.0429 -0.1214 -0.2682
  407loPI   C4B 6512  13.287   3.507   8.430  0.0548  0.2741 -0.1368
  408loPI    C1 6513   4.023  16.668  10.101 -0.1759  0.1557 -0.0649
  408loPI    C2 6514   4.097  16.420  10.406 -0.0009  0.1749 -0.0907
  408loPI    C3 6515   3.817  16.326  10.135 -0.0566  0.0893 -0.0039
  408loPI   PO4 6516   4.279  16.811  10.127  0.3717 -0.3535 -0.0784
  408loPI   GL1 6517   4.403  16.859   9.736  0.1415  0.1132  0.1797
  408loPI   GL2 6518   4.584  17.155   9.827  0.2510 -0.0001 -0.2695
  408loPI   C1A 6519   4.533  16.776   9.400  0.0812  0.0556  0.3421
  408loPI   C2A 6520   4.657  16.621   9.012 -0.0591  0.0214  0.1451
  408loPI   C3A 6521   4.816  16.524   8.549 -0.0397  0.2198  0.6739
  408loPI   C4A 6522   4.900  16.436   8.092 -0.2667  0.0835 -0.1231
  408loPI   C5A 6523   4.846  16.750   7.743  0.0964 -0.0069 -0.1135
  408loPI   C6A 6524   5.260  16.937   7.562  0.2732 -0.0831 -0.2700
  408loPI   C1B 6525   4.626  17.320   9.406 -0.2194 -0.0512 -0.2000
  408loPI   C2B 6526   4.502  17.135   8.949  0.0365 -0.2511  0.1687
  408loPI   C3B 6527   4.420  17.135   8.554 -0.0700 -0.0773 -0.0800
  408loPI   C4B 6528   4.258  17.123   8.196 -0.3679  0.3500 -0.1829
  409loPI    C1 6529  16.746  11.898  10.341  0.1490  0.3007  0.0354
  409loPI    C2 6530  17.063  11.733  10.521 -0.1444 -0.2252  0.0899
  409loPI    C3 6531  16.877  12.045  10.689  0.0830 -0.1863  0.2740
  409loPI   PO4 6532  16.773  11.673  10.079  0.0059  0.2866 -0.0104
  409loPI   GL1 6533  16.853  11.663   9.709 -0.1282 -0.1958 -0.1576
  409loPI   GL2 6534  16.877  11.356   9.584 -0.0670  0.1565  0.0680
  409loPI   C1A 6535  17.087  11.697   9.314 -0.0181  0.1087  0.2607
  409loPI   C2A 6536  16.941  11.469   9.022  0.2709  0.1919 -0.1557
  409loPI   C3A 6537  16.815  11.603   8.621 -0.1384 -0.0698  0.4626
  409loPI   C4A 6538  16.916  11.679   8.155 -0.1047  0.1462 -0.1985
  409loPI   C5A 6539  16.812  11.634   7.710  0.2290 -0.1139  0.2519
  409loPI   C6A 6540  16.788  11.200   7.504 -0.2628 -0.1889 -0.1731
  409loPI   C1B 6541  16.787  11.061   9.232  0.0861 -0.1645 -0.1658
  409loPI   C2B 6542  16.536  10.911   8.915  0.3516 -0.0312  0.2928
  409loPI   C3B 6543  16.618  10.559   8.521  0.0392  0.0013 -0.1477
  409loPI   C4B 6544  16.816  10.701   8.146 -0.1716  0.0885  0.2934
  410loPI    C1 6545   7.950  18.777  10.697  0.1393 -0.2180  0.2322
  410loPI    C2 6546   7.847  18.453  10.487  0.0688  0.1718 -0.3578
  410loPI    C3 6547   8.229  18.572  10.496  0.1043  0.0454 -0.0933
  410loPI   PO4 6548   7.753  18.958  10.571  0.0355 -0.0028 -0.3905
  410loPI   GL1 6549   7.865  18.959  10.092 -0.2841  0.0723  0.3231
  410loPI   GL2 6550   7.859  18.622  10.085  0.0523 -0.0005 -0.0423
  410loPI   C1A 6551   7.943  18.944   9.630 -0.2460  0.0310 -0.2880
  410loPI   C2A 6552   8.065  18.908   9.132 -0.1912  0.0686 -0.2328
  410loPI   C3A 6553   7.923  18.808   8.746  0.1161  0.0268  0.0969
  410loPI   C4A 6554   8.002  18.781   8.307 -0.0005  0.0434  0.2563
  410loPI   C5A 6555   7.670  18.672   8.028  0.0203 -0.2834 -0.1210
  410loPI   C6A 6556   7.677  18.224   7.985 -0.1190  0.3776 -0.1515
  410loPI   C1B 6557   7.719  18.436   9.684 -0.3394  0.1525 -0.1241
  410loPI   C2B 6558   7.863  18.463   9.278 -0.0755  0.2087  0.2774
  410loPI   C3B 6559   7.660  18.367   8.931 -0.1154 -0.0692  0.2899
  410loPI   C4B 6560   7.699  18.342   8.489 -0.0594 -0.0748  0.1095
  411loPI    C1 6561   4.410  18.526  10.059  0.1635  0.1214  0.1159
  411loPI    C2 6562   4.227  18.171  10.052  0.3416  0.0274  0.1593
  411loPI    C3 6563   4.244  18.380  10.393  0.2824  0.0536  0.1461
  411loPI   PO4 6564   4.550  18.525   9.798  0.0052  0.4204  0.0036
  411loPI   GL1 6565   4.507  18.630   9.408 -0.2418  0.3006 -0.0659
  411loPI   GL2 6566   4.477  18.266   9.346 -0.3131  0.1296  0.0123
  411loPI   C1A 6567   4.701  18.921   9.087  0.2255  0.0850  0.0849
  411loPI   C2A 6568   4.796  18.908   8.599 -0.1734 -0.1102 -0.1902
  411loPI   C3A 6569   4.878  18.883   8.164  0.2346 -0.4608  0.0160
  411loPI   C4A 6570   5.123  18.908   7.684 -0.0027 -0.0407 -0.1962
  411loPI   C5A 6571   5.531  18.815   7.545 -0.1800 -0.1776  0.0102
  411loPI   C6A 6572   5.956  18.964   7.439  0.1409 -0.3246 -0.1749
  411loPI   C1B 6573   4.485  18.494   8.952 -0.1065 -0.0763  0.0689
  411loPI   C2B 6574   4.414  18.484   8.425 -0.1194 -0.0313 -0.4778
  411loPI   C3B 6575   4.479  18.506   7.973 -0.0114  0.0510  0.4504
  411loPI   C4B 6576   4.577  18.870   7.759 -0.0801  0.4481  0.1389
  412loPI    C1 6577  10.688   6.810   9.955  0.0511  0.0763  0.0008
  412loPI    C2 6578  10.496   6.470  10.039  0.0580  0.0827  0.0435
  412loPI    C3 6579  10.883   6.462   9.941  0.0493  0.0749  0.0093
  412loPI   PO4 6580  10.552   6.962   9.784  0.0015  0.0544  0.3001
  412loPI   GL1 6581  10.244   7.145   9.540 -0.0567 -0.1583 -0.0674
  412loPI   GL2 6582  10.005   7.040   9.470  0.0601  0.1444 -0.2589
  412loPI   C1A 6583  10.291   7.358   9.171  0.0466 -0.2636  0.3239
  412loPI   C2A 6584  10.415   7.275   8.750  0.0154  0.1754  0.0477
  412loPI   C3A 6585  10.724   7.436   8.389 -0.1247 -0.0499  0.1763
  412loPI   C4A 6586  11.083   7.339   8.154  0.1122 -0.0106  0.4845
  412loPI   C5A 6587  11.194   7.308   7.718  0.1245 -0.1429 -0.0823
  412loPI   C6A 6588  11.657   7.185   7.653  0.0628 -0.2790  0.1744
  412loPI   C1B 6589   9.864   7.011   9.033  0.1847 -0.0231 -0.2180
  412loPI   C2B 6590  10.009   6.990   8.618  0.1014  0.1437  0.1024
  412loPI   C3B 6591   9.927   7.045   8.213  0.0880  0.1503  0.1614
  412loPI   C4B 6592   9.749   6.965   7.804  0.0493  0.0274  0.2399
  413loPI    C1 6593   0.128   0.227   9.972  0.2439  0.0132 -0.0561
  413loPI    C2 6594  -0.138  -0.052   9.865  0.0021  0.0555  0.4106
  413loPI    C3 6595   0.183  -0.154  10.080  0.1419  0.0730  0.2131
  413loPI   PO4 6596   0.206   0.393   9.733  0.1199 -0.1710  0.0618
  413loPI   GL1 6597   0.333   0.293   9.484  0.1950 -0.0200  0.0009
  413loPI   GL2 6598   0.512  -0.009   9.265  0.0103  0.1199  0.0175
  413loPI   C1A 6599   0.341   0.779   9.192 -0.0062  0.4605  0.2673
  413loPI   C2A 6600   0.325   1.030   8.828 -0.1776 -0.0219  0.1509
  413loPI   C3A 6601   0.294   1.132   8.339  0.1324  0.1643 -0.0927
  413loPI   C4A 6602   0.336   1.068   7.923  0.0737 -0.2221 -0.4087
  413loPI   C5A 6603   0.143   0.882   7.414 -0.2773 -0.3998 -0.1301
  413loPI   C6A 6604  -0.148   0.692   7.116 -0.2127  0.1617 -0.1328
  413loPI   C1B 6605   0.859  -0.036   8.820  0.0646 -0.2205  0.2222
  413loPI   C2B 6606   0.986  -0.117   8.361 -0.0289  0.3406 -0.1847
  413loPI   C3B 6607   1.309  -0.304   8.128 -0.0911 -0.2069 -0.1585
  413loPI   C4B 6608   1.647  -0.613   7.996 -0.0115 -0.0117 -0.1241
  414loPI    C1 6609   1.001   8.095  10.102 -0.0989 -0.2366 -0.1157
  414loPI    C2 6610   1.346   8.174  10.289 -0.3470  0.3598  0.1140
  414loPI    C3 6611   1.206   7.800  10.277  0.1809  0.1503  0.2290
  414loPI   PO4 6612   0.952   8.087   9.884 -0.1328  0.0441 -0.2083
  414loPI   GL1 6613   0.972   8.176   9.393  0.3450 -0.2233  0.0071
  414loPI   GL2 6614   0.719   8.200   9.228  0.0355  0.0312 -0.1507
  414loPI   C1A 6615   1.208   8.228   8.985  0.3483 -0.0870  0.0511
  414loPI   C2A 6616   1.191   8.226   8.556 -0.3667  0.1609  0.1976
  414loPI   C3A 6617   1.217   7.994   8.266 -0.2218 -0.1620 -0.0055
  414loPI   C4A 6618   1.302   7.876   7.884  0.0586  0.0720  0.1215
  414loPI   C5A 6619   1.583   7.891   7.485 -0.1069  0.1524 -0.1087
  414loPI   C6A 6620   1.865   7.556   7.453  0.0751 -0.3723 -0.2890
  414loPI   C1B 6621   0.605   8.328   8.829 -0.0622  0.1122  0.0522
  414loPI   C2B 6622   0.709   8.344   8.338 -0.2429  0.2399  0.1311
  414loPI   C3B 6623   0.904   8.247   7.932 -0.0429  0.4789 -0.0735
  414loPI   C4B 6624   1.060   8.069   7.518 -0.0971 -0.2939 -0.2472
  415loPI    C1 6625   0.815   5.168  10.166 -0.0246  0.2305  0.2282
  415loPI    C2 6626   0.923   4.824  10.338  0.1835  0.0909 -0.1690
  415loPI    C3 6627   0.913   5.161  10.554  0.3737 -0.0885  0.1284
  415loPI   PO4 6628   0.922   5.207   9.967 -0.1578 -0.1242 -0.2484
  415loPI   GL1 6629   0.880   5.065   9.517  0.3979 -0.1077 -0.0138
  415loPI   GL2 6630   0.561   4.909   9.395  0.1109 -0.0066 -0.1940
  415loPI   C1A 6631   0.985   4.828   9.015  0.2971  0.1843  0.1888
  415loPI   C2A 6632   1.145   4.699   8.657  0.0390 -0.0418  0.1188
  415loPI   C3A 6633   1.146   4.763   8.284 -0.2057  0.1366  0.1932
  415loPI   C4A 6634   0.951   4.840   7.884  0.2031 -0.0153 -0.0778
  415loPI   C5A 6635   0.643   4.496   7.678 -0.1910  0.2028  0.0778
  415loPI   C6A 6636   0.509   4.071   7.464 -0.4769  0.1111 -0.2026
  415loPI   C1B 6637   0.525   4.975   8.988 -0.0348  0.2054 -0.2791
  415loPI   C2B 6638   0.331   4.905   8.578 -0.1184  0.1548  0.1458
  415loPI   C3B 6639   0.383   4.802   8.136 -0.3942 -0.0666  0.0180
  415loPI   C4B 6640   0.234   4.735   7.736  0.1009 -0.3068 -0.1508
  416loPI    C1 6641   4.167  12.359   9.900  0.1377 -0.0613  0.0978
  416loPI    C2 6642   3.860  12.494  10.118  0.0931 -0.1818  0.1103
  416loPI    C3 6643   3.928  12.101  10.090  0.2122 -0.1581  0.0608
  416loPI   PO4 6644   4.185  12.399   9.625 -0.0756 -0.2482 -0.2027
  416loPI   GL1 6645   4.280  12.679   9.286  0.0182  0.2255 -0.0018
  416loPI   GL2 6646   3.926  12.556   9.152 -0.0814 -0.0210 -0.2894
  416loPI   C1A 6647   4.420  12.481   8.856 -0.1987 -0.2303 -0.1616
  416loPI   C2A 6648   4.271  12.468   8.409  0.3980 -0.5407  0.2628
  416loPI   C3A 6649   4.074  12.571   8.035 -0.2213  0.0830 -0.0022
  416loPI   C4A 6650   3.869  12.770   7.728  0.3712 -0.3733 -0.0336
  416loPI   C5A 6651   3.596  12.813   7.358  0.1443 -0.0049 -0.0714
  416loPI   C6A 6652   3.100  12.742   7.155 -0.2297 -0.0138  0.0900
  416loPI   C1B 6653   3.759  12.576   8.788  0.0261 -0.1286 -0.3315
  416loPI   C2B 6654   3.787  12.429   8.483 -0.0299  0.0057  0.3403
  416loPI   C3B 6655   3.549  12.349   8.044 -0.0693  0.1722  0.0200
  416loPI   C4B 6656   3.525  12.415   7.585 -0.1634  0.2435  0.1477
  417loPI    C1 6657   5.587   4.271   9.974 -0.0364  0.0748  0.0438
  417loPI    C2 6658   5.603   4.551  10.259 -0.1439  0.2281 -0.0983
  417loPI    C3 6659   5.312   4.276  10.264  0.0831 -0.0144  0.1599
  417loPI   PO4 6660   5.643   4.377   9.745 -0.1175  0.0637 -0.1824
  417loPI   GL1 6661   5.253   4.296   9.492  0.0106  0.1474 -0.0876
  417loPI   GL2 6662   5.500   4.478   9.245  0.2287  0.2413  0.1880
  417loPI   C1A 6663   5.092   4.331   9.079  0.0111  0.0127 -0.2864
  417loPI   C2A 6664   4.877   4.409   8.598 -0.0396 -0.2106 -0.1016
  417loPI   C3A 6665   4.626   4.104   8.404 -0.2562 -0.1970  0.0200
  417loPI   C4A 6666   4.700   3.604   8.286 -0.0218 -0.0177 -0.3741
  417loPI   C5A 6667   4.355   3.522   8.277  0.1415 -0.0498 -0.1943
  417loPI   C6A 6668   4.197   3.735   7.973 -0.3979  0.1809 -0.0403
  417loPI   C1B 6669   5.552   4.481   8.785  0.1345  0.1231  0.3624
  417loPI   C2B 6670   5.829   4.540   8.383  0.1356  0.0332 -0.0270
  417loPI   C3B 6671   5.966   4.564   7.978  0.0639 -0.1882  0.1107
  417loPI   C4B 6672   6.065   4.401   7.565  0.2243 -0.3293  0.0489
  418loPI    C1 6673  16.604   9.518  10.418 -0.4225 -0.1423 -0.0284
  418loPI    C2 6674  16.401   9.195  10.298 -0.3788 -0.3404  0.4119
  418loPI    C3 6675  16.235   9.450  10.558 -0.3167 -0.1413  0.2582
  418loPI   PO4 6676  16.854   9.420  10.225 -0.2371  0.0302 -0.1124
  418loPI   GL1 6677  17.013   9.620   9.751  0.2506  0.0978 -0.1534
  418loPI   GL2 6678  17.188   9.988   9.881 -0.3030  0.0054  0.1433
  418loPI   C1A 6679  16.881   9.672   9.197  0.1626 -0.1534 -0.1573
  418loPI   C2A 6680  16.833   9.672   8.730 -0.0371  0.3395 -0.1458
  418loPI   C3A 6681  16.797   9.653   8.320  0.1273 -0.0715 -0.1628
  418loPI   C4A 6682  16.726   9.961   7.948  0.0151  0.2254 -0.1351
  418loPI   C5A 6683  16.588  10.113   7.545 -0.0848 -0.1070  0.1028
  418loPI   C6A 6684  16.606  10.228   7.083 -0.1513 -0.2247 -0.0472
  418loPI   C1B 6685  17.100  10.110   9.476 -0.0274 -0.0315  0.3109
  418loPI   C2B 6686  16.795  10.391   9.381 -0.0926 -0.1547 -0.0378
  418loPI   C3B 6687  16.532  10.606   9.259 -0.1555 -0.0190 -0.1869
  418loPI   C4B 6688  16.293  10.932   9.407  0.0238 -0.2226  0.1400
  419loPI    C1 6689   9.922  10.040   9.961  0.1270  0.0338  0.0400
  419loPI    C2 6690   9.542  10.007  10.083  0.1140  0.0038 -0.0085
  419loPI    C3 6691   9.642   9.905   9.710  0.2647 -0.4952  0.1598
  419loPI   PO4 6692   9.961  10.295  10.093  0.0180 -0.0143  0.1550
  419loPI   GL1 6693  10.275  10.391   9.811 -0.1480 -0.0135 -0.1070
  419loPI   GL2 6694  10.114  10.435   9.549 -0.3205  0.0259  0.3992
  419loPI   C1A 6695  10.710  10.399   9.480  0.3134 -0.0368 -0.3505
  419loPI   C2A 6696  10.767  10.296   9.082 -0.2167  0.2174  0.2522
  419loPI   C3A 6697  10.823  10.335   8.627  0.1000 -0.0566  0.0705
  419loPI   C4A 6698  10.735  10.436   8.269  0.1388  0.0231 -0.0966
  419loPI   C5A 6699  10.821  10.227   7.934  0.1079 -0.0125  0.0549
  419loPI   C6A 6700  10.564   9.971   7.567  0.2613  0.0239  0.1689
  419loPI   C1B 6701  10.358  10.504   9.206 -0.1120 -0.0747 -0.0554
  419loPI   C2B 6702  10.460  10.762   8.861  0.0168  0.3156  0.1158
  419loPI   C3B 6703  10.459  10.820   8.440 -0.0945 -0.1776 -0.2054
  419loPI   C4B 6704  10.542  10.835   7.992  0.0933 -0.1450 -0.0234
  420loPI    C1 6705   4.519   2.373  10.322 -0.0590 -0.1714  0.1502
  420loPI    C2 6706   4.738   2.567  10.594  0.0385  0.0572 -0.0872
  420loPI    C3 6707   4.479   2.285  10.710  0.3775 -0.1416  0.2062
  420loPI   PO4 6708   4.676   2.398  10.156  0.2783  0.1130  0.1017
  420loPI   GL1 6709   4.779   2.387   9.663  0.1479 -0.0035  0.0438
  420loPI   GL2 6710   4.580   2.491   9.462  0.2480 -0.1586 -0.0585
  420loPI   C1A 6711   5.034   2.468   9.343 -0.0139 -0.0470 -0.2744
  420loPI   C2A 6712   5.152   2.321   8.946 -0.3167 -0.1501  0.1656
  420loPI   C3A 6713   5.116   2.285   8.616  0.2272 -0.1546 -0.1588
  420loPI   C4A 6714   5.184   2.266   8.131 -0.0579  0.1529 -0.0801
  420loPI   C5A 6715   5.149   2.207   7.633  0.0387  0.0829 -0.1356
  420loPI   C6A 6716   5.060   2.348   7.155  0.0701 -0.0045 -0.0215
  420loPI   C1B 6717   4.543   2.423   9.093  0.2437  0.4309 -0.0164
  420loPI   C2B 6718   4.568   2.308   8.742 -0.2478 -0.0261  0.0139
  420loPI   C3B 6719   4.710   2.242   8.389  0.3089 -0.3445  0.0450
  420loPI   C4B 6720   4.589   2.260   7.975  0.0716 -0.0362  0.2602
  421loPI    C1 6721   4.243   0.197  10.020 -0.0904 -0.1209  0.0272
  421loPI    C2 6722   4.517   0.102  10.295  0.1329  0.2038 -0.0769
  421loPI    C3 6723   4.261   0.402  10.363 -0.0890  0.0108 -0.0507
  421loPI   PO4 6724   4.378   0.229   9.792  0.1522  0.0590 -0.0113
  421loPI   GL1 6725   4.195   0.342   9.443  0.0505 -0.1022  0.1821
  421loPI   GL2 6726   4.220   0.081   9.195  0.0911 -0.0912  0.0330
  421loPI   C1A 6727   4.450   0.512   9.094 -0.3254  0.0192 -0.0140
  421loPI   C2A 6728   4.635   0.537   8.752  0.2725 -0.1490 -0.1514
  421loPI   C3A 6729   4.533   0.518   8.404 -0.2844  0.1120 -0.0663
  421loPI   C4A 6730   4.373   0.468   7.951 -0.3034 -0.0404  0.2981
  421loPI   C5A 6731   4.760   0.477   7.760 -0.3282 -0.1941  0.1584
  421loPI   C6A 6732   5.093   0.529   7.497  0.1860  0.1680 -0.0136
  421loPI   C1B 6733   4.289   0.088   8.688  0.0110  0.3532  0.1368
  421loPI   C2B 6734   4.285   0.066   8.223  0.2437 -0.1850  0.1980
  421loPI   C3B 6735   4.032   0.001   7.836 -0.0452  0.1935  0.0904
  421loPI   C4B 6736   3.911  -0.349   7.492  0.1592 -0.3582 -0.1761
  422loPI    C1 6737  11.857   0.682  10.776 -0.1026  0.0167  0.2300
  422loPI    C2 6738  11.871   0.466  11.112  0.2110 -0.2125  0.0746
  422loPI    C3 6739  12.051   0.823  11.096 -0.0430 -0.0743  0.2343
  422loPI   PO4 6740  11.828   0.451  10.599 -0.4241  0.2613  0.1870
  422loPI   GL1 6741  11.785   0.588  10.192 -0.0774  0.0152  0.1224
  422loPI   GL2 6742  11.848   0.463   9.966  0.1706 -0.2208  0.0808
  422loPI   C1A 6743  11.536   0.819   9.886 -0.0867 -0.1942 -0.0391
  422loPI   C2A 6744  11.756   0.900   9.445 -0.1616  0.4260 -0.3259
  422loPI   C3A 6745  11.785   0.936   8.927  0.0352  0.2498  0.1002
  422loPI   C4A 6746  11.756   0.937   8.504  0.0441 -0.3384  0.4421
  422loPI   C5A 6747  11.599   1.217   8.140 -0.2230  0.0572  0.0114
  422loPI   C6A 6748  11.514   1.633   8.036 -0.1047  0.0094 -0.3247
  422loPI   C1B 6749  11.524   0.486   9.522  0.0413  0.2139  0.1501
  422loPI   C2B 6750  11.539   0.467   9.068 -0.0150  0.1411  0.1717
  422loPI   C3B 6751  11.480   0.475   8.620 -0.1515 -0.0499 -0.3576
  422loPI   C4B 6752  11.361   0.475   8.202 -0.0929 -0.2765 -0.3103
  423loPI    C1 6753   8.610   7.025   9.913 -0.0572  0.1449  0.0933
  423loPI    C2 6754   8.284   7.222  10.035 -0.0997  0.1483 -0.0243
  423loPI    C3 6755   8.301   6.824  10.067  0.0608  0.1830  0.3871
  423loPI   PO4 6756   8.645   7.052   9.670  0.1348 -0.0126  0.1343
  423loPI   GL1 6757   8.500   7.192   9.146  0.2043  0.2104  0.3168
  423loPI   GL2 6758   8.256   6.911   9.354 -0.1676  0.1207 -0.0225
  423loPI   C1A 6759   8.024   7.379   9.012  0.0960 -0.3715 -0.2866
  423loPI   C2A 6760   7.681   7.583   8.672 -0.0414 -0.1272  0.1978
  423loPI   C3A 6761   7.656   7.568   8.195  0.0128 -0.1193 -0.0344
  423loPI   C4A 6762   7.930   7.467   7.853 -0.2809 -0.1354  0.0069
  423loPI   C5A 6763   8.233   7.172   7.604 -0.1803 -0.0503  0.1475
  423loPI   C6A 6764   8.252   6.770   7.524 -0.2667 -0.0224  0.2274
  423loPI   C1B 6765   8.103   6.808   8.865  0.0272 -0.1873 -0.3207
  423loPI   C2B 6766   8.224   6.699   8.398  0.0581 -0.0878  0.5460
  423loPI   C3B 6767   7.947   6.513   8.077 -0.0952 -0.2387  0.0706
  423loPI   C4B 6768   7.498   6.613   7.938 -0.0885  0.3560  0.3942
  424loPI    C1 6769   9.026   5.803   9.831 -0.0423 -0.0441 -0.1763
  424loPI    C2 6770   9.336   5.552   9.799 -0.0005 -0.0049 -0.0843
  424loPI    C3 6771   9.097   5.536  10.120 -0.0176  0.0504 -0.0943
  424loPI   PO4 6772   9.162   6.010   9.708  0.0463  0.0359  0.1097
  424loPI   GL1 6773   9.242   6.330   9.551 -0.0211 -0.0040 -0.0923
  424loPI   GL2 6774   8.880   6.275   9.406 -0.0672  0.2840 -0.1407
  424loPI   C1A 6775   9.572   6.249   9.254 -0.0759 -0.1075 -0.1796
  424loPI   C2A 6776   9.852   6.111   8.898  0.1009 -0.2236 -0.2009
  424loPI   C3A 6777   9.776   6.213   8.504  0.1806  0.1139 -0.0336
  424loPI   C4A 6778   9.981   5.991   8.103 -0.3201 -0.3428  0.1668
  424loPI   C5A 6779   9.819   5.698   7.835  0.0897  0.3569 -0.2222
  424loPI   C6A 6780   9.732   5.149   7.806 -0.0073 -0.1897 -0.1658
  424loPI   C1B 6781   8.510   6.422   9.249  0.0009 -0.5326  0.0231
  424loPI   C2B 6782   8.094   6.297   9.023 -0.2647  0.1642 -0.0121
  424loPI   C3B 6783   7.797   6.347   8.693 -0.1021  0.0337  0.1086
  424loPI   C4B 6784   7.630   6.700   8.466  0.1437 -0.0615  0.0637
  425loPI    C1 6785  14.078   0.910  10.186  0.1309  0.2079  0.2111
  425loPI    C2 6786  13.991   1.229  10.411 -0.2534  0.1086  0.2110
  425loPI    C3 6787  14.142   0.900  10.581  0.0650  0.2566  0.2232
  425loPI   PO4 6788  14.095   1.008   9.870  0.2465  0.1792 -0.1193
  425loPI   GL1 6789  13.748   1.005   9.573  0.0439  0.0523 -0.1300
  425loPI   GL2 6790  13.345   1.135   9.608 -0.1929  0.3138  0.1024
  425loPI   C1A 6791  13.599   0.818   9.161  0.2387 -0.1808  0.1746
  425loPI   C2A 6792  13.365   0.968   8.731 -0.0581  0.2996 -0.1239
  425loPI   C3A 6793  13.410   1.009   8.323 -0.3314  0.1575  0.0761
  425loPI   C4A 6794  13.478   1.119   7.852 -0.3239 -0.0097 -0.1683
  425loPI   C5A 6795  13.706   1.181   7.575  0.1884  0.0395 -0.1468
  425loPI   C6A 6796  13.707   0.949   7.098 -0.0235 -0.0886  0.0226
  425loPI   C1B 6797  12.960   1.095   9.393 -0.2054  0.1261  0.4106
  425loPI   C2B 6798  12.771   0.994   8.926 -0.0418 -0.1919 -0.2819
  425loPI   C3B 6799  12.851   0.958   8.538  0.1499 -0.0240  0.0623
  425loPI   C4B 6800  12.643   1.125   8.199 -0.1416 -0.0832 -0.3064
  426loPI    C1 6801   2.691  18.287  10.055  0.0069 -0.1760 -0.0353
  426loPI    C2 6802   2.797  17.963   9.846  0.2115 -0.0358 -0.1525
  426loPI    C3 6803   2.947  18.024  10.212  0.1044 -0.1175 -0.0946
  426loPI   PO4 6804   2.732  18.478   9.937  0.1949  0.0480  0.0116
  426loPI   GL1 6805   2.813  18.479   9.522  0.1376  0.0858  0.0181
  426loPI   GL2 6806   2.963  18.199   9.442  0.1348 -0.0034  0.1289
  426loPI   C1A 6807   2.677  18.362   9.042 -0.0438 -0.0121  0.0248
  426loPI   C2A 6808   2.581  17.959   8.793 -0.0550  0.3956 -0.3101
  426loPI   C3A 6809   2.418  17.897   8.324  0.0597  0.1290 -0.1765
  426loPI   C4A 6810   2.268  17.899   7.888 -0.0577 -0.3433  0.2012
  426loPI   C5A 6811   1.917  18.001   7.679  0.2661  0.0288 -0.1674
  426loPI   C6A 6812   1.873  18.503   7.475  0.2095 -0.0415  0.0368
  426loPI   C1B 6813   3.066  17.995   9.128  0.1575  0.2378  0.2587
  426loPI   C2B 6814   3.092  18.179   8.736 -0.2881 -0.1632  0.1006
  426loPI   C3B 6815   2.773  18.322   8.520  0.1225 -0.0218 -0.1935
  426loPI   C4B 6816   2.736  18.182   8.043  0.3311  0.0736  0.2894
  427loPI    C1 6817   7.762   1.747  10.628 -0.0660 -0.0274  0.0083
  427loPI    C2 6818   7.684   1.427  10.855 -0.1657  0.0587  0.0960
  427loPI    C3 6819   7.547   1.788  10.962 -0.1130  0.1196 -0.0390
  427loPI   PO4 6820   7.728   1.700  10.367 -0.1358 -0.3905 -0.1170
  427loPI   GL1 6821   7.548   1.432  10.079  0.2376 -0.4804 -0.0675
  427loPI   GL2 6822   7.230   1.261   9.996 -0.5933 -0.4523  0.0067
  427loPI   C1A 6823   7.663   1.342   9.697 -0.2653  0.0546 -0.2419
  427loPI   C2A 6824   7.770   1.374   9.170  0.0906  0.0083 -0.2878
  427loPI   C3A 6825   7.718   1.301   8.745  0.1144  0.0589  0.2602
  427loPI   C4A 6826   7.654   1.281   8.339  0.0832  0.1743  0.0732
  427loPI   C5A 6827   7.438   1.260   7.926 -0.2343 -0.1830 -0.0558
  427loPI   C6A 6828   7.203   1.503   7.731 -0.2176  0.2024  0.3610
  427loPI   C1B 6829   7.207   1.377   9.548 -0.1079 -0.0088  0.0351
  427loPI   C2B 6830   7.179   1.426   9.118  0.0568  0.0604 -0.1466
  427loPI   C3B 6831   7.252   1.274   8.795 -0.0316 -0.1989  0.0224
  427loPI   C4B 6832   7.141   1.318   8.391  0.2116  0.0168 -0.1733
  428loPI    C1 6833   5.816  11.976  10.190  0.1432  0.0853 -0.1077
  428loPI    C2 6834   6.111  11.907  10.451 -0.2381  0.0313  0.3216
  428loPI    C3 6835   5.997  12.282  10.372  0.0413  0.0601  0.0384
  428loPI   PO4 6836   5.886  11.733   9.942  0.1563 -0.0564  0.0994
  428loPI   GL1 6837   6.008  11.843   9.527  0.0149  0.0555  0.0701
  428loPI   GL2 6838   5.971  12.059   9.516  0.1419  0.1266 -0.2620
  428loPI   C1A 6839   6.066  11.663   9.127 -0.1027 -0.0844  0.0838
  428loPI   C2A 6840   6.164  11.675   8.685  0.2008 -0.0133 -0.1533
  428loPI   C3A 6841   6.334  11.475   8.364  0.0873 -0.1212  0.0706
  428loPI   C4A 6842   6.401  11.689   7.947 -0.2277 -0.1111 -0.0137
  428loPI   C5A 6843   6.440  11.668   7.479 -0.1302 -0.1611 -0.2808
  428loPI   C6A 6844   6.441  11.561   7.166 -0.1308 -0.0073  0.1813
  428loPI   C1B 6845   6.027  12.193   9.185  0.1482 -0.1527  0.0645
  428loPI   C2B 6846   5.784  12.586   8.998  0.2482 -0.1675  0.1671
  428loPI   C3B 6847   5.571  12.721   8.650 -0.0114 -0.1050 -0.2047
  428loPI   C4B 6848   5.503  12.912   8.302  0.4267 -0.1870  0.1805
  429loPI    C1 6849  15.804   9.907  10.220  0.1215 -0.0752  0.0200
  429loPI    C2 6850  15.491   9.673  10.305  0.2326 -0.2657 -0.0912
  429loPI    C3 6851  15.794   9.703  10.564 -0.0617  0.2439  0.2096
  429loPI   PO4 6852  15.625  10.185  10.123 -0.0214  0.1654  0.2009
  429loPI   GL1 6853  15.566  10.237   9.705  0.1541 -0.0221  0.0430
  429loPI   GL2 6854  15.220  10.187   9.727 -0.1159  0.0083  0.3364
  429loPI   C1A 6855  15.781  10.476   9.413 -0.2680  0.0484  0.0822
  429loPI   C2A 6856  16.028  10.655   9.018 -0.2069 -0.0745  0.3552
  429loPI   C3A 6857  16.037  10.662   8.627 -0.2236 -0.0549  0.1301
  429loPI   C4A 6858  15.987  10.345   8.301 -0.1059 -0.0900  0.3656
  429loPI   C5A 6859  15.776  10.265   7.913 -0.1839 -0.0304  0.1629
  429loPI   C6A 6860  15.570  10.363   7.566 -0.1469  0.0120  0.3170
  429loPI   C1B 6861  15.376  10.181   9.293 -0.0731  0.0053  0.2468
  429loPI   C2B 6862  15.472  10.355   8.853  0.0551 -0.1176 -0.1717
  429loPI   C3B 6863  15.428  10.417   8.415  0.0997  0.1014 -0.1479
  429loPI   C4B 6864  15.303  10.406   8.002  0.0505  0.1830 -0.0772
  430loPI    C1 6865   6.619  12.212  10.202 -0.0439  0.1528 -0.0248
  430loPI    C2 6866   6.770  12.572  10.289 -0.1174  0.0961  0.3569
  430loPI    C3 6867   6.943  12.242  10.435  0.1468 -0.0516 -0.2595
  430loPI   PO4 6868   6.712  12.138   9.920  0.1833  0.2271 -0.2073
  430loPI   GL1 6869   6.454  12.182   9.403 -0.1504  0.2450 -0.3343
  430loPI   GL2 6870   6.507  11.798   9.387  0.2499 -0.1888 -0.0991
  430loPI   C1A 6871   6.729  12.490   9.091  0.0059  0.2793  0.2096
  430loPI   C2A 6872   6.822  12.870   8.952 -0.5353  0.3504 -0.0727
  430loPI   C3A 6873   7.270  12.927   8.781  0.4094 -0.1003  0.0321
  430loPI   C4A 6874   7.495  12.974   8.417 -0.0622  0.2136  0.0792
  430loPI   C5A 6875   7.534  13.186   8.032  0.2033  0.1001 -0.0926
  430loPI   C6A 6876   7.915  13.191   7.734 -0.3294  0.1646  0.4584
  430loPI   C1B 6877   6.535  11.921   8.994  0.0967 -0.1567  0.0747
  430loPI   C2B 6878   6.561  11.977   8.482  0.1305  0.1378  0.1530
  430loPI   C3B 6879   6.379  12.160   8.189  0.2552 -0.1834  0.5195
  430loPI   C4B 6880   6.178  12.494   8.028 -0.2068  0.0388 -0.1095
  431loPI    C1 6881  16.845   0.460  10.255 -0.2424 -0.3041  0.1417
  431loPI    C2 6882  16.869   0.721  10.558 -0.2494  0.0744 -0.1754
  431loPI    C3 6883  17.132   0.421  10.531 -0.1426  0.1396  0.1089
  431loPI   PO4 6884  16.838   0.638   9.990 -0.1764 -0.4013 -0.2435
  431loPI   GL1 6885  16.917   0.634   9.511 -0.2696  0.1504 -0.2120
  431loPI   GL2 6886  17.078   0.438   9.335 -0.1473  0.0484  0.0071
  431loPI   C1A 6887  16.840   0.877   9.174  0.0374  0.1892  0.0600
  431loPI   C2A 6888  16.854   0.917   8.684  0.0934 -0.1229  0.2920
  431loPI   C3A 6889  16.836   0.795   8.230 -0.2100  0.3623 -0.0343
  431loPI   C4A 6890  16.515   0.828   7.845  0.0124  0.0614 -0.1478
  431loPI   C5A 6891  16.168   1.059   7.561 -0.0626 -0.0563 -0.0915
  431loPI   C6A 6892  16.310   0.977   7.186 -0.0325 -0.0768  0.1073
  431loPI   C1B 6893  16.967   0.422   8.863  0.0715 -0.0958  0.1051
  431loPI   C2B 6894  16.660   0.396   8.530  0.0043  0.1781 -0.2459
  431loPI   C3B 6895  16.673   0.293   8.082 -0.1398  0.2507 -0.0348
  431loPI   C4B 6896  16.567  -0.021   7.817 -0.0442 -0.0057 -0.2929
  432loPI    C1 6897  11.005   2.595  10.495  0.5472 -0.1577 -0.0841
  432loPI    C2 6898  11.274   2.830  10.674  0.2007  0.1323  0.0688
  432loPI    C3 6899  10.960   2.692  10.880  0.0776  0.0338 -0.1797
  432loPI   PO4 6900  10.910   2.744  10.243  0.4108  0.2426 -0.0354
  432loPI   GL1 6901  10.665   2.798   9.890  0.0348 -0.1445 -0.2831
  432loPI   GL2 6902  10.482   2.502   9.842  0.1398 -0.0619 -0.1058
  432loPI   C1A 6903  10.640   2.937   9.535 -0.1793 -0.1713  0.0097
  432loPI   C2A 6904  10.655   2.847   9.254 -0.1778 -0.1220  0.2778
  432loPI   C3A 6905  10.635   2.787   8.886  0.3476  0.2561 -0.4984
  432loPI   C4A 6906  10.558   2.748   8.527 -0.0771  0.0480 -0.1903
  432loPI   C5A 6907  10.446   2.663   8.138 -0.0169  0.1310 -0.1957
  432loPI   C6A 6908  10.482   2.515   7.709  0.0904  0.0198 -0.1087
  432loPI   C1B 6909  10.406   2.339   9.400 -0.1252 -0.2723 -0.0990
  432loPI   C2B 6910  10.405   2.214   8.930 -0.1670 -0.0363 -0.1515
  432loPI   C3B 6911  10.326   2.259   8.527 -0.1073 -0.1968 -0.0380
  432loPI   C4B 6912  10.409   2.139   8.056 -0.3425  0.0810  0.0319
  433loPI    C1 6913  15.536   6.130  10.337  0.1810  0.0631 -0.3004
  433loPI    C2 6914  15.738   6.345  10.607 -0.1569  0.1256 -0.0916
  433loPI    C3 6915  15.766   5.946  10.608 -0.0484  0.1329 -0.0536
  433loPI   PO4 6916  15.320   6.330  10.303 -0.2037  0.4180 -0.0677
  433loPI   GL1 6917  15.013   6.273   9.871  0.2874  0.2302 -0.2158
  433loPI   GL2 6918  14.729   6.411   9.773  0.2364 -0.2228 -0.2523
  433loPI   C1A 6919  15.128   6.299   9.446  0.0324 -0.1786 -0.0601
  433loPI   C2A 6920  15.185   6.114   9.001  0.0819  0.0167 -0.1530
  433loPI   C3A 6921  15.329   5.869   8.658 -0.0029  0.2589 -0.0332
  433loPI   C4A 6922  15.663   5.786   8.547  0.0860 -0.1195  0.0360
  433loPI   C5A 6923  15.735   5.469   8.219  0.0092 -0.0467  0.3323
  433loPI   C6A 6924  15.743   5.082   8.017  0.1299  0.0425 -0.1582
  433loPI   C1B 6925  14.629   6.298   9.283 -0.0451 -0.1105 -0.0539
  433loPI   C2B 6926  14.714   6.106   8.883  0.1516  0.1306 -0.1428
  433loPI   C3B 6927  14.914   6.252   8.471  0.0099  0.2047 -0.0320
  433loPI   C4B 6928  14.882   6.214   8.034 -0.0303 -0.0478  0.2305
  434loPI    C1 6929  11.819  17.014  10.163 -0.1046  0.2078  0.0950
  434loPI    C2 6930  11.679  16.644  10.215 -0.0362  0.1685  0.0013
  434loPI    C3 6931  11.528  16.946  10.429 -0.2269  0.1185 -0.0603
  434loPI   PO4 6932  11.763  17.041   9.886 -0.2899 -0.1080  0.1708
  434loPI   GL1 6933  11.434  17.072   9.628 -0.1570  0.1040  0.0994
  434loPI   GL2 6934  11.201  17.174   9.393  0.1298  0.1177  0.0159
  434loPI   C1A 6935  11.633  16.890   9.213 -0.1081  0.1532 -0.0828
  434loPI   C2A 6936  11.478  16.619   8.829  0.3207 -0.0700 -0.1094
  434loPI   C3A 6937  11.337  16.731   8.522  0.3841  0.1123 -0.0591
  434loPI   C4A 6938  11.381  16.623   8.082 -0.2742  0.1601  0.0126
  434loPI   C5A 6939  11.721  16.705   7.891 -0.2829 -0.5037  0.0662
  434loPI   C6A 6940  11.937  16.515   7.628  0.0465 -0.1474 -0.1781
  434loPI   C1B 6941  11.200  17.113   8.892  0.1272 -0.0073 -0.2322
  434loPI   C2B 6942  11.168  17.203   8.489  0.3670  0.1197  0.0041
  434loPI   C3B 6943  11.244  17.114   8.000  0.0809  0.0141 -0.0107
  434loPI   C4B 6944  11.394  17.278   7.596 -0.0697 -0.0258  0.1483
  435loPI    C1 6945   5.253   6.861  10.181  0.0306 -0.1016  0.0317
  435loPI    C2 6946   5.210   6.523  10.390 -0.0588  0.0069  0.1910
  435loPI    C3 6947   5.540   6.744  10.433 -0.0375 -0.0163  0.1495
  435loPI   PO4 6948   5.242   6.794   9.897  0.2681 -0.3636 -0.0189
  435loPI   GL1 6949   5.249   6.697   9.557 -0.5481  0.1582  0.0260
  435loPI   GL2 6950   5.475   6.425   9.515  0.2241  0.2495 -0.1128
  435loPI   C1A 6951   4.913   6.726   9.196 -0.2474  0.0077 -0.1959
  435loPI   C2A 6952   4.734   6.754   8.772 -0.1500 -0.0551 -0.2306
  435loPI   C3A 6953   4.843   6.635   8.289 -0.0003  0.2527 -0.0927
  435loPI   C4A 6954   4.864   6.608   7.829 -0.2597 -0.0474 -0.2477
  435loPI   C5A 6955   5.257   6.279   7.658  0.1022  0.0012 -0.2426
  435loPI   C6A 6956   5.572   6.226   7.348  0.1868  0.1297  0.0088
  435loPI   C1B 6957   5.418   6.267   9.023  0.2062  0.0311 -0.0351
  435loPI   C2B 6958   5.600   6.230   8.692  0.1348  0.0553 -0.4554
  435loPI   C3B 6959   5.520   6.226   8.196  0.0933  0.1240 -0.1651
  435loPI   C4B 6960   5.746   6.126   7.883  0.1176 -0.1182 -0.2257
  436loPI    C1 6961   8.325   4.168  10.039  0.0649  0.2299  0.1945
  436loPI    C2 6962   8.307   3.962  10.382  0.0709 -0.2892 -0.1067
  436loPI    C3 6963   7.988   4.168  10.255 -0.0559 -0.3998  0.0285
  436loPI   PO4 6964   8.393   3.954   9.845  0.3097 -0.0739  0.3108
  436loPI   GL1 6965   8.554   4.048   9.490  0.1804 -0.2765  0.0687
  436loPI   GL2 6966   8.617   4.410   9.684  0.0678  0.1633 -0.0445
  436loPI   C1A 6967   8.822   4.235   9.131 -0.2866 -0.1231  0.2093
  436loPI   C2A 6968   8.731   4.515   8.774 -0.3153 -0.4093 -0.0996
  436loPI   C3A 6969   8.589   4.504   8.335  0.0253 -0.1200  0.0814
  436loPI   C4A 6970   8.712   4.346   7.961 -0.1350 -0.2587 -0.1678
  436loPI   C5A 6971   8.715   4.235   7.530  0.1537 -0.1192 -0.2743
  436loPI   C6A 6972   9.031   4.373   7.166  0.0996 -0.2395  0.0770
  436loPI   C1B 6973   8.480   4.595   9.358 -0.1285 -0.0462 -0.0661
  436loPI   C2B 6974   8.393   4.893   9.083  0.2988 -0.0520  0.3595
  436loPI   C3B 6975   8.389   4.893   8.611 -0.2848 -0.2552 -0.0885
  436loPI   C4B 6976   8.189   4.978   8.250  0.0179  0.2647  0.3110
  437loPI    C1 6977  12.144   8.457  10.307  0.3437  0.1513 -0.0239
  437loPI    C2 6978  12.090   8.684  10.632  0.0575  0.2335 -0.1254
  437loPI    C3 6979  12.030   8.290  10.652 -0.2450  0.2763 -0.1462
  437loPI   PO4 6980  12.150   8.555  10.125  0.4206  0.1794  0.3317
  437loPI   GL1 6981  12.275   8.489   9.777  0.0446  0.1303 -0.1827
  437loPI   GL2 6982  12.517   8.715   9.776 -0.0899  0.0856  0.3189
  437loPI   C1A 6983  12.410   8.435   9.432 -0.1355 -0.0154  0.0987
  437loPI   C2A 6984  12.385   8.280   8.967 -0.3642 -0.0696  0.2263
  437loPI   C3A 6985  12.425   8.383   8.651  0.3274  0.2605 -0.3990
  437loPI   C4A 6986  12.533   8.573   8.327 -0.1058  0.1894 -0.1558
  437loPI   C5A 6987  12.857   8.711   8.144 -0.0317 -0.1753 -0.0969
  437loPI   C6A 6988  13.082   8.941   7.904  0.0473 -0.1172 -0.2058
  437loPI   C1B 6989  12.447   9.059   9.464  0.2882  0.0136 -0.0234
  437loPI   C2B 6990  12.793   9.222   9.302 -0.0522 -0.2415  0.1105
  437loPI   C3B 6991  13.005   9.343   8.868 -0.5251  0.0600  0.0242
  437loPI   C4B 6992  13.188   9.523   8.499  0.2035  0.2431 -0.2002
  438loPI    C1 6993  17.229   6.388   9.974  0.0754  0.0443 -0.5703
  438loPI    C2 6994  17.454   6.083   9.845  0.3746  0.0348 -0.0570
  438loPI    C3 6995  17.628   6.411   9.993  0.0496  0.1515  0.0776
  438loPI   PO4 6996  16.998   6.395   9.672  0.0153 -0.2007  0.1043
  438loPI   GL1 6997  16.746   6.418   9.370  0.0217 -0.3466  0.2945
  438loPI   GL2 6998  16.393   6.400   9.370 -0.3913 -0.0019  0.3126
  438loPI   C1A 6999  16.765   6.655   8.983  0.2311 -0.1251 -0.2421
  438loPI   C2A 7000  16.752   6.651   8.594  0.1383  0.1371 -0.1272
  438loPI   C3A 7001  16.672   6.619   8.223  0.2523  0.1775  0.2932
  438loPI   C4A 7002  16.790   6.313   7.847 -0.1914 -0.1487 -0.2732
  438loPI   C5A 7003  16.797   5.826   7.585 -0.2150 -0.3897  0.1396
  438loPI   C6A 7004  16.885   5.497   7.455  0.1698 -0.3511  0.0314
  438loPI   C1B 7005  16.411   6.267   8.840  0.0101  0.0471  0.2464
  438loPI   C2B 7006  16.318   6.283   8.413 -0.0293 -0.0109  0.1173
  438loPI   C3B 7007  15.891   6.349   8.241 -0.2348 -0.2134  0.1512
  438loPI   C4B 7008  15.698   6.405   7.932  0.1828 -0.1628 -0.1417
  439loPI    C1 7009  12.817   7.814  10.286  0.0854  0.0868 -0.2651
  439loPI    C2 7010  12.457   7.675  10.180  0.1318 -0.2023 -0.0553
  439loPI    C3 7011  12.489   7.936  10.481  0.0868 -0.0726 -0.1617
  439loPI   PO4 7012  12.951   7.853  10.033  0.1828  0.0386 -0.1458
  439loPI   GL1 7013  13.049   7.972   9.656 -0.0054  0.0284 -0.0500
  439loPI   GL2 7014  12.925   8.291   9.750 -0.0165  0.1024  0.0277
  439loPI   C1A 7015  12.734   8.008   9.261 -0.1092 -0.0046  0.0452
  439loPI   C2A 7016  12.657   7.862   8.792 -0.1503 -0.0781 -0.0183
  439loPI   C3A 7017  12.782   7.691   8.361 -0.2103 -0.0899  0.1551
  439loPI   C4A 7018  12.936   7.784   8.002  0.1080  0.4093 -0.1519
  439loPI   C5A 7019  13.168   7.792   7.691  0.1736  0.2018 -0.1013
  439loPI   C6A 7020  13.434   7.697   7.360  0.4523  0.0050  0.0474
  439loPI   C1B 7021  12.888   8.564   9.503 -0.0262 -0.0084 -0.4454
  439loPI   C2B 7022  12.667   8.777   9.137 -0.1649 -0.0250 -0.1590
  439loPI   C3B 7023  12.703   8.949   8.632  0.2234 -0.0589 -0.1356
  439loPI   C4B 7024  12.757   9.150   8.337 -0.1208 -0.2953 -0.0160
  440loPI    C1 7025   4.633  13.674  10.083  0.1072  0.1314  0.1063
  440loPI    C2 7026   4.246  13.759  10.136  0.1027  0.0970  0.1294
  440loPI    C3 7027   4.513  13.863  10.415  0.1255  0.2197  0.0627
  440loPI   PO4 7028   4.661  13.515   9.853 -0.1703  0.0410  0.1620
  440loPI   GL1 7029   4.485  13.244   9.513 -0.1493 -0.1989 -0.1007
  440loPI   GL2 7030   4.155  13.180   9.375 -0.2439  0.2899  0.1120
  440loPI   C1A 7031   4.640  13.547   9.170 -0.0765 -0.0540  0.2525
  440loPI   C2A 7032   4.592  13.383   8.768  0.0173 -0.0642  0.1606
  440loPI   C3A 7033   4.574  13.015   8.573  0.0437  0.0403  0.4251
  440loPI   C4A 7034   4.757  12.585   8.387 -0.2462  0.3066 -0.1170
  440loPI   C5A 7035   5.176  12.458   8.491  0.1539 -0.0479 -0.0031
  440loPI   C6A 7036   5.501  12.226   8.743 -0.1967  0.1673  0.2091
  440loPI   C1B 7037   4.149  13.421   9.015  0.0777  0.3019  0.0944
  440loPI   C2B 7038   4.088  13.505   8.590  0.2912 -0.0316  0.1984
  440loPI   C3B 7039   4.006  13.777   8.246  0.2420  0.2714  0.0341
  440loPI   C4B 7040   4.039  13.793   7.880 -0.1226  0.1513  0.1332
  441loPI    C1 7041   4.041   2.994  10.339 -0.1306 -0.0085 -0.0193
  441loPI    C2 7042   4.084   2.638  10.516  0.1309  0.0398  0.0189
  441loPI    C3 7043   4.401   2.877  10.468 -0.0492  0.2841  0.0266
  441loPI   PO4 7044   3.943   2.932  10.058  0.2640  0.0853  0.1497
  441loPI   GL1 7045   3.891   2.560   9.706  0.0891  0.1361 -0.1572
  441loPI   GL2 7046   3.797   2.687   9.524  0.2904 -0.1026  0.1278
  441loPI   C1A 7047   4.087   2.389   9.273  0.3043  0.1794 -0.1570
  441loPI   C2A 7048   4.095   2.209   8.897  0.0929  0.0228 -0.2513
  441loPI   C3A 7049   4.134   2.211   8.495 -0.3578 -0.1324 -0.1517
  441loPI   C4A 7050   3.912   1.862   8.310  0.0242 -0.0098  0.4508
  441loPI   C5A 7051   3.676   1.805   7.938 -0.0654 -0.0234  0.2705
  441loPI   C6A 7052   3.639   1.477   7.616 -0.0456 -0.0380 -0.1515
  441loPI   C1B 7053   3.722   2.608   9.008 -0.1811  0.0115  0.0875
  441loPI   C2B 7054   3.783   2.597   8.617 -0.0903  0.1615  0.0673
  441loPI   C3B 7055   3.643   2.783   8.141 -0.2789  0.0641 -0.3015
  441loPI   C4B 7056   3.723   2.906   7.687  0.1986  0.0007  0.0431
  442loPI    C1 7057   6.086   4.583  10.280  0.0846  0.1402 -0.1174
  442loPI    C2 7058   6.393   4.704  10.506 -0.0552 -0.0860  0.2016
  442loPI    C3 7059   6.244   4.335  10.551 -0.2224 -0.0614 -0.1170
  442loPI   PO4 7060   6.102   4.591  10.015 -0.1240  0.0514  0.2155
  442loPI   GL1 7061   6.279   4.402   9.603  0.1224  0.1719  0.0384
  442loPI   GL2 7062   6.032   4.490   9.530  0.1044 -0.2112  0.1233
  442loPI   C1A 7063   6.494   4.436   9.197  0.0619 -0.0623 -0.1426
  442loPI   C2A 7064   6.459   4.611   8.792 -0.0289  0.1043 -0.0919
  442loPI   C3A 7065   6.316   4.527   8.293 -0.0349 -0.1389 -0.0402
  442loPI   C4A 7066   6.434   4.651   7.841  0.1333 -0.0344  0.0358
  442loPI   C5A 7067   6.778   4.565   7.519 -0.1419  0.1314 -0.2724
  442loPI   C6A 7068   7.007   4.708   7.110  0.0619 -0.1406 -0.4681
  442loPI   C1B 7069   5.958   4.275   9.183  0.0621  0.1895 -0.1254
  442loPI   C2B 7070   6.123   4.277   8.771  0.5244 -0.1709  0.1184
  442loPI   C3B 7071   6.057   4.043   8.487 -0.5334 -0.2929  0.2819
  442loPI   C4B 7072   6.173   4.144   8.018  0.3035  0.1582  0.1663
  443loPI    C1 7073   1.150  13.005  10.334  0.0116 -0.1079 -0.0437
  443loPI    C2 7074   1.548  13.003  10.296  0.0599 -0.0844  0.4120
  443loPI    C3 7075   1.351  12.660  10.352 -0.0051 -0.1139  0.0299
  443loPI   PO4 7076   1.061  13.008  10.089  0.0458 -0.0015 -0.1964
  443loPI   GL1 7077   0.973  13.120   9.729  0.0243 -0.1466  0.0979
  443loPI   GL2 7078   0.764  12.832   9.720  0.3219  0.2670 -0.3819
  443loPI   C1A 7079   0.935  13.162   9.328 -0.1954  0.1924  0.3706
  443loPI   C2A 7080   0.893  13.105   8.891  0.0247 -0.1600  0.2235
  443loPI   C3A 7081   0.676  13.063   8.458  0.1109 -0.0755  0.3968
  443loPI   C4A 7082   0.426  13.188   8.075  0.1375 -0.0914 -0.2207
  443loPI   C5A 7083   0.537  13.418   7.709 -0.4335 -0.1364 -0.0793
  443loPI   C6A 7084   0.857  13.740   7.682 -0.3082  0.1276 -0.2240
  443loPI   C1B 7085   0.662  12.695   9.312  0.2639 -0.1758  0.0470
  443loPI   C2B 7086   0.585  12.691   8.882 -0.3482  0.0750  0.0121
  443loPI   C3B 7087   0.490  12.598   8.551  0.0509  0.2498 -0.1800
  443loPI   C4B 7088   0.444  12.521   8.097  0.1023  0.2004 -0.4236
  444loPI    C1 7089  11.242  15.807  10.505 -0.1322 -0.1514  0.1285
  444loPI    C2 7090  11.470  15.537  10.690 -0.0589 -0.2829 -0.1488
  444loPI    C3 7091  11.437  15.906  10.840  0.4740 -0.2089 -0.1936
  444loPI   PO4 7092  11.275  15.671  10.237 -0.1322  0.0105  0.1771
  444loPI   GL1 7093  11.352  15.743   9.815  0.0642 -0.0360 -0.1344
  444loPI   GL2 7094  11.688  15.828   9.720 -0.1121 -0.1641 -0.0818
  444loPI   C1A 7095  11.038  15.627   9.485 -0.1585 -0.0777 -0.2674
  444loPI   C2A 7096  10.859  15.607   9.003 -0.1782 -0.0519 -0.2358
  444loPI   C3A 7097  10.882  15.472   8.557  0.2487  0.2495  0.0714
  444loPI   C4A 7098  10.973  15.278   8.116 -0.0136  0.1716  0.1673
  444loPI   C5A 7099  11.202  15.145   7.767 -0.0396  0.0089 -0.1538
  444loPI   C6A 7100  11.603  15.279   7.578 -0.2374 -0.0824  0.0596
  444loPI   C1B 7101  11.639  15.791   9.308 -0.1606  0.0507 -0.0734
  444loPI   C2B 7102  11.766  15.601   8.883  0.3911 -0.0589  0.0461
  444loPI   C3B 7103  11.894  15.238   8.719 -0.1235 -0.1552  0.0846
  444loPI   C4B 7104  11.848  14.859   8.503  0.0831  0.0214 -0.2416
  445loPI    C1 7105  13.573   8.184  10.534 -0.2157 -0.0125 -0.1041
  445loPI    C2 7106  13.255   7.954  10.610  0.0247 -0.2810  0.1126
  445loPI    C3 7107  13.346   8.258  10.854  0.0358 -0.3158  0.1521
  445loPI   PO4 7108  13.678   8.294  10.221  0.1755  0.1862  0.0819
  445loPI   GL1 7109  13.908   8.294   9.817  0.1189  0.0916  0.0023
  445loPI   GL2 7110  14.282   8.496   9.748  0.0381 -0.1011  0.2308
  445loPI   C1A 7111  13.773   8.627   9.464 -0.1671 -0.0816 -0.1530
  445loPI   C2A 7112  13.613   8.600   9.142 -0.3505  0.4446  0.4061
  445loPI   C3A 7113  13.432   8.509   8.688 -0.0418 -0.1101  0.1982
  445loPI   C4A 7114  13.257   8.484   8.334  0.1772  0.1321 -0.0499
  445loPI   C5A 7115  13.252   8.227   7.999  0.0425  0.3178  0.2811
  445loPI   C6A 7116  13.274   8.222   7.497  0.1510 -0.0232 -0.1064
  445loPI   C1B 7117  14.172   8.307   9.344  0.0274  0.0441 -0.4122
  445loPI   C2B 7118  14.278   8.160   9.010 -0.1255  0.1524 -0.0410
  445loPI   C3B 7119  14.202   8.155   8.559 -0.0408 -0.0098  0.0256
  445loPI   C4B 7120  14.366   8.456   8.204  0.2246 -0.0075  0.3221
  446loPI    C1 7121  12.775  15.024  10.033 -0.0036  0.0009  0.0473
  446loPI    C2 7122  12.950  14.673   9.950  0.0273  0.0179  0.0407
  446loPI    C3 7123  12.834  14.756  10.324 -0.0901 -0.0485  0.0193
  446loPI   PO4 7124  12.556  15.147  10.004  0.1846 -0.0879  0.2030
  446loPI   GL1 7125  12.226  15.133   9.638  0.0570  0.0551  0.4136
  446loPI   GL2 7126  12.598  15.196   9.531  0.4474 -0.0819  0.1503
  446loPI   C1A 7127  12.161  15.298   9.155 -0.0588 -0.0453  0.0210
  446loPI   C2A 7128  12.349  15.393   8.798 -0.0992 -0.1606  0.2590
  446loPI   C3A 7129  12.760  15.328   8.675  0.3267 -0.1244 -0.0659
  446loPI   C4A 7130  12.737  15.356   8.245  0.2997  0.0521  0.2576
  446loPI   C5A 7131  12.786  15.543   7.901 -0.3953  0.0418  0.5268
  446loPI   C6A 7132  12.379  15.556   7.506  0.1354 -0.0304 -0.2598
  446loPI   C1B 7133  12.709  15.278   9.196  0.2837 -0.1459 -0.1086
  446loPI   C2B 7134  12.936  15.621   9.023  0.2737 -0.0520  0.3116
  446loPI   C3B 7135  13.143  15.610   8.560  0.0021  0.3688  0.2464
  446loPI   C4B 7136  13.121  15.836   8.121 -0.0163  0.0599 -0.3382
  447loPI    C1 7137   2.470   3.021  10.147  0.0234  0.0406  0.0616
  447loPI    C2 7138   2.570   3.381  10.005  0.0924  0.0007  0.0084
  447loPI    C3 7139   2.186   3.292  10.070  0.0604  0.0222 -0.1465
  447loPI   PO4 7140   2.663   2.900  10.026 -0.1388 -0.0345  0.2379
  447loPI   GL1 7141   2.868   2.941   9.609 -0.1234 -0.3052  0.1676
  447loPI   GL2 7142   2.791   3.314   9.506 -0.1009 -0.0880 -0.1908
  447loPI   C1A 7143   2.878   3.051   9.139 -0.1768 -0.1195  0.1897
  447loPI   C2A 7144   2.887   3.098   8.810  0.1420  0.0908 -0.3817
  447loPI   C3A 7145   2.860   2.952   8.469 -0.1298 -0.1877 -0.3007
  447loPI   C4A 7146   3.121   2.962   8.105 -0.0002  0.0164 -0.0641
  447loPI   C5A 7147   3.467   3.223   7.935  0.1167 -0.1777 -0.0499
  447loPI   C6A 7148   3.658   3.589   8.087  0.0383 -0.0226  0.0151
  447loPI   C1B 7149   2.603   3.514   9.058  0.0533  0.1258 -0.0593
  447loPI   C2B 7150   2.391   3.853   8.834 -0.2348 -0.1201  0.1520
  447loPI   C3B 7151   2.063   4.184   8.889 -0.2820  0.1349 -0.0927
  447loPI   C4B 7152   1.614   4.131   9.134  0.6018  0.2351  0.1657
  448loPI    C1 7153   9.099  18.353  10.265  0.1976 -0.1599 -0.1715
  448loPI    C2 7154   9.138  18.351  10.663 -0.3106 -0.0090 -0.1144
  448loPI    C3 7155   9.256  18.670  10.452  0.2937 -0.2311 -0.1310
  448loPI   PO4 7156   9.010  18.098  10.188  0.1188  0.5286  0.2930
  448loPI   GL1 7157   9.167  18.079   9.820 -0.0124 -0.1120  0.4764
  448loPI   GL2 7158   9.073  18.411   9.663 -0.2222  0.0494  0.0788
  448loPI   C1A 7159   9.129  17.987   9.323  0.2243 -0.2327 -0.1559
  448loPI   C2A 7160   9.070  18.011   8.882 -0.0946 -0.0674  0.0457
  448loPI   C3A 7161   9.144  17.945   8.459  0.1133 -0.0253  0.0470
  448loPI   C4A 7162   9.352  18.000   8.102  0.0040  0.0511 -0.0031
  448loPI   C5A 7163   9.221  17.928   7.766 -0.0462 -0.0793 -0.0086
  448loPI   C6A 7164   9.271  18.089   7.347  0.2103 -0.1633 -0.0950
  448loPI   C1B 7165   8.936  18.470   9.253 -0.0853  0.2078 -0.2695
  448loPI   C2B 7166   8.826  18.444   8.783  0.0810  0.1809 -0.2833
  448loPI   C3B 7167   8.888  18.360   8.453  0.3542  0.2261  0.0924
  448loPI   C4B 7168   8.933  18.268   8.034  0.0569 -0.0289 -0.2773
  449loPI    C1 7169   7.012  10.634   9.996  0.0904 -0.1154  0.0663
  449loPI    C2 7170   6.745  10.847   9.788  0.2461  0.0569  0.0401
  449loPI    C3 7171   6.661  10.731  10.161  0.0218 -0.1338 -0.0671
  449loPI   PO4 7172   7.285  10.631   9.748  0.3736 -0.1497  0.3353
  449loPI   GL1 7173   7.249  10.679   9.373 -0.3863 -0.1410  0.3750
  449loPI   GL2 7174   7.118  10.960   9.340  0.1618 -0.3755 -0.0190
  449loPI   C1A 7175   7.573  10.425   9.093  0.2522  0.0222 -0.0923
  449loPI   C2A 7176   7.707  10.425   8.720  0.1032 -0.0232 -0.2493
  449loPI   C3A 7177   7.818  10.236   8.326 -0.0788 -0.2776  0.0285
  449loPI   C4A 7178   7.570   9.975   8.231  0.1056 -0.0899 -0.0346
  449loPI   C5A 7179   7.320   9.885   7.841  0.2018  0.0355 -0.2661
  449loPI   C6A 7180   7.041   9.712   7.676 -0.2427  0.2135 -0.0297
  449loPI   C1B 7181   6.955  11.150   8.938 -0.0848 -0.0321  0.3169
  449loPI   C2B 7182   6.979  11.165   8.532 -0.1001  0.3591  0.1511
  449loPI   C3B 7183   7.132  11.178   8.120 -0.0735 -0.1241  0.2545
  449loPI   C4B 7184   7.421  11.276   7.880 -0.0358  0.0227 -0.0844
  450loPI    C1 7185   9.895  16.501  10.344  0.1339 -0.1449  0.1467
  450loPI    C2 7186  10.081  16.267  10.609  0.0846  0.0683  0.3741
  450loPI    C3 7187   9.804  16.527  10.733  0.0429  0.1536  0.1084
  450loPI   PO4 7188   9.885  16.315  10.139 -0.0718  0.1515  0.3297
  450loPI   GL1 7189   9.857  16.396   9.743  0.1731  0.1735 -0.0286
  450loPI   GL2 7190   9.724  16.613   9.692  0.5461 -0.0002  0.2402
  450loPI   C1A 7191  10.113  16.236   9.341  0.0706 -0.0105  0.1544
  450loPI   C2A 7192  10.230  16.190   8.872  0.3913 -0.1257 -0.3448
  450loPI   C3A 7193  10.112  15.968   8.489 -0.3158  0.1586  0.2303
  450loPI   C4A 7194  10.192  15.933   8.066 -0.1165  0.0365 -0.0104
  450loPI   C5A 7195  10.159  15.990   7.659 -0.1472  0.3013 -0.0755
  450loPI   C6A 7196  10.200  16.037   7.256 -0.1298  0.1998 -0.1558
  450loPI   C1B 7197   9.841  16.600   9.251 -0.0445  0.0077 -0.0957
  450loPI   C2B 7198   9.877  16.606   8.903  0.0102  0.1635  0.0010
  450loPI   C3B 7199  10.040  16.569   8.477  0.1087 -0.0235 -0.1575
  450loPI   C4B 7200   9.975  16.572   7.979  0.0454 -0.0046  0.2385
  451loPI    C1 7201   2.068   0.488  10.033 -0.0984 -0.0790 -0.0303
  451loPI    C2 7202   2.163   0.128  10.178 -0.0771 -0.0287  0.0818
  451loPI    C3 7203   1.903   0.360  10.375  0.1137  0.1273  0.1527
  451loPI   PO4 7204   2.210   0.424   9.788  0.0073  0.0367  0.1067
  451loPI   GL1 7205   2.494   0.567   9.444 -0.2033 -0.0764 -0.0282
  451loPI   GL2 7206   2.771   0.789   9.535  0.2938 -0.3200 -0.1877
  451loPI   C1A 7207   2.350   0.333   9.036 -0.2189 -0.0607  0.5571
  451loPI   C2A 7208   2.283   0.260   8.613  0.3245  0.1717  0.0919
  451loPI   C3A 7209   2.334   0.340   8.206  0.0934  0.0233  0.2662
  451loPI   C4A 7210   2.406   0.217   7.790 -0.1081 -0.3264  0.1272
  451loPI   C5A 7211   2.480   0.107   7.385 -0.1824 -0.3093  0.0092
  451loPI   C6A 7212   2.543   0.349   7.096  0.0134 -0.4520  0.0465
  451loPI   C1B 7213   2.522   1.037   9.200 -0.3306 -0.1824 -0.0229
  451loPI   C2B 7214   2.547   1.022   8.759  0.0023  0.1557  0.3422
  451loPI   C3B 7215   2.469   1.275   8.371  0.1881 -0.0176 -0.0189
  451loPI   C4B 7216   2.836   1.321   8.174 -0.2042 -0.1293  0.0201
  452loPI    C1 7217  17.406   7.759   9.698  0.0581  0.0714 -0.0685
  452loPI    C2 7218  17.302   8.116   9.846 -0.1407 -0.0010 -0.0306
  452loPI    C3 7219  17.148   7.782  10.003  0.1111 -0.1086 -0.0092
  452loPI   PO4 7220  17.616   7.715   9.687 -0.1728  0.1173 -0.1860
  452loPI   GL1 7221  17.807   7.594   9.330  0.0376  0.1767  0.0657
  452loPI   GL2 7222  17.498   7.651   9.178  0.1007  0.0250 -0.1299
  452loPI   C1A 7223  18.009   7.936   9.187  0.0181  0.3424  0.2843
  452loPI   C2A 7224  17.942   8.209   8.821 -0.3835 -0.0656 -0.0071
  452loPI   C3A 7225  17.897   8.457   8.497 -0.2487 -0.0950  0.0791
  452loPI   C4A 7226  18.242   8.463   8.364  0.3442 -0.1874  0.2748
  452loPI   C5A 7227  18.626   8.191   8.505  0.3367 -0.3260 -0.2745
  452loPI   C6A 7228  18.507   7.954   8.192 -0.1071  0.0733 -0.1570
  452loPI   C1B 7229  17.542   7.874   8.843 -0.1557  0.1672 -0.2728
  452loPI   C2B 7230  17.519   8.027   8.466 -0.1681  0.0666  0.2231
  452loPI   C3B 7231  17.557   8.223   8.179  0.2169  0.0483 -0.1254
  452loPI   C4B 7232  17.735   8.635   8.097  0.0190 -0.0393 -0.0254
  453loPI    C1 7233  12.603   2.372  10.476 -0.1975  0.1163 -0.0746
  453loPI    C2 7234  12.666   1.994  10.361  0.0905  0.1367  0.0081
  453loPI    C3 7235  12.687   2.092  10.748 -0.0140  0.2324 -0.0099
  453loPI   PO4 7236  12.716   2.512  10.256 -0.1904 -0.0335 -0.1745
  453loPI   GL1 7237  12.628   2.631   9.779 -0.0560 -0.0220 -0.1590
  453loPI   GL2 7238  12.945   2.530   9.825  0.0886 -0.4062  0.1464
  453loPI   C1A 7239  12.734   2.479   9.385 -0.0232  0.1018 -0.0245
  453loPI   C2A 7240  12.641   2.445   8.891  0.1486  0.2898  0.2032
  453loPI   C3A 7241  12.682   2.342   8.508 -0.2166 -0.1213 -0.1356
  453loPI   C4A 7242  12.743   2.338   8.047 -0.0341 -0.1650 -0.1832
  453loPI   C5A 7243  12.474   2.224   7.846 -0.3412 -0.0173  0.1784
  453loPI   C6A 7244  12.390   2.009   7.469 -0.2339 -0.0647  0.1030
  453loPI   C1B 7245  13.210   2.520   9.421  0.2512  0.1360  0.1011
  453loPI   C2B 7246  13.288   2.542   9.013  0.1740  0.2463 -0.0472
  453loPI   C3B 7247  13.142   2.292   8.682  0.1325  0.1661  0.0343
  453loPI   C4B 7248  13.154   2.561   8.392 -0.0025  0.1316 -0.0583
  454loPI    C1 7249   4.538   3.327  10.460 -0.0800  0.0881  0.2179
  454loPI    C2 7250   4.616   3.469  10.825 -0.0269 -0.0208  0.2494
  454loPI    C3 7251   4.860   3.556  10.521  0.1657 -0.2765  0.3271
  454loPI   PO4 7252   4.262   3.411  10.427  0.0135 -0.0264  0.0830
  454loPI   GL1 7253   3.908   3.434  10.078 -0.1847 -0.0066  0.3330
  454loPI   GL2 7254   4.131   3.462   9.680  0.0659 -0.2535 -0.0591
  454loPI   C1A 7255   3.663   3.841   9.797 -0.4568  0.0292 -0.0712
  454loPI   C2A 7256   3.722   4.125   9.562  0.1148  0.1186 -0.2422
  454loPI   C3A 7257   3.754   4.519   9.547  0.1961 -0.0850  0.0535
  454loPI   C4A 7258   3.916   4.944   9.530 -0.0303 -0.1439 -0.0709
  454loPI   C5A 7259   3.777   5.236   9.182 -0.0725 -0.2396 -0.2011
  454loPI   C6A 7260   3.847   5.305   8.754 -0.4159  0.0443 -0.3659
  454loPI   C1B 7261   4.112   3.784   9.293  0.2823 -0.0440 -0.2039
  454loPI   C2B 7262   4.129   3.544   8.897  0.1811 -0.0172  0.0172
  454loPI   C3B 7263   3.723   3.535   8.542  0.0277 -0.2473  0.4102
  454loPI   C4B 7264   3.284   3.361   8.357 -0.0824 -0.1475 -0.2797
  455loPI    C1 7265  11.404   9.324  10.283  0.1708  0.0704 -0.0723
  455loPI    C2 7266  11.327   8.960  10.135  0.0112  0.1125 -0.0950
  455loPI    C3 7267  11.354   9.014  10.531 -0.0088  0.0843 -0.0897
  455loPI   PO4 7268  11.317   9.448  10.143 -0.0112  0.0406  0.1996
  455loPI   GL1 7269  11.309   9.452   9.716 -0.0270 -0.1512  0.2236
  455loPI   GL2 7270  11.355   9.079   9.667  0.2519 -0.1762 -0.0498
  455loPI   C1A 7271  10.920   9.423   9.408  0.1554  0.0976  0.0470
  455loPI   C2A 7272  11.021   9.181   8.955 -0.0299  0.1099 -0.2708
  455loPI   C3A 7273  11.333   9.058   8.671 -0.1032 -0.2307 -0.1558
  455loPI   C4A 7274  11.548   9.139   8.345 -0.1137  0.2270 -0.2475
  455loPI   C5A 7275  11.495   9.269   7.978 -0.1142  0.2309  0.2185
  455loPI   C6A 7276  11.298   9.098   7.572 -0.0953 -0.0660  0.0741
  455loPI   C1B 7277  11.455   9.102   9.175 -0.2489 -0.0736 -0.2485
  455loPI   C2B 7278  11.739   9.157   8.926  0.0587  0.0635  0.0022
  455loPI   C3B 7279  11.940   9.489   8.768  0.1464  0.0034  0.0142
  455loPI   C4B 7280  12.005   9.679   8.436 -0.3330  0.0531  0.1114
  456loPI    C1 7281   2.104  14.363  10.097  0.3591 -0.2831 -0.1041
  456loPI    C2 7282   1.941  14.006  10.178 -0.2046  0.0209  0.1577
  456loPI    C3 7283   2.166  14.191  10.453 -0.0012 -0.0815  0.0618
  456loPI   PO4 7284   2.103  14.314   9.811  0.3119 -0.1619 -0.0671
  456loPI   GL1 7285   2.288  14.381   9.538  0.2512  0.2258  0.2024
  456loPI   GL2 7286   2.231  14.101   9.263  0.0669 -0.2068 -0.2634
  456loPI   C1A 7287   2.483  14.656   9.172  0.2273  0.0778 -0.1114
  456loPI   C2A 7288   2.685  14.824   8.836 -0.2961 -0.1514  0.0849
  456loPI   C3A 7289   2.819  14.966   8.441  0.0181 -0.0338  0.1085
  456loPI   C4A 7290   2.892  14.639   8.084  0.1859  0.0164  0.3242
  456loPI   C5A 7291   2.909  14.457   7.691 -0.0654 -0.0919  0.1196
  456loPI   C6A 7292   2.661  14.217   7.397  0.1424  0.2924  0.0886
  456loPI   C1B 7293   2.044  13.698   9.061  0.0480  0.1438 -0.1758
  456loPI   C2B 7294   2.020  13.763   8.730  0.0348  0.0432  0.0454
  456loPI   C3B 7295   2.092  13.879   8.370 -0.3685  0.0143  0.1678
  456loPI   C4B 7296   2.299  13.902   7.952  0.2248 -0.0386  0.2690
  457loPI    C1 7297  16.979   1.094  10.196  0.1044 -0.1568  0.2290
  457loPI    C2 7298  17.132   1.412  10.385  0.2934 -0.1443  0.0589
  457loPI    C3 7299  16.787   1.253  10.509 -0.0233  0.3846 -0.1105
  457loPI   PO4 7300  16.900   1.211  10.001 -0.1016  0.0577  0.1459
  457loPI   GL1 7301  16.625   1.097   9.755  0.1985 -0.2220 -0.1334
  457loPI   GL2 7302  16.645   1.457   9.638  0.0279  0.2057  0.0597
  457loPI   C1A 7303  16.432   0.990   9.399  0.1502  0.2988  0.5265
  457loPI   C2A 7304  16.402   1.000   8.972  0.0725 -0.1436  0.3492
  457loPI   C3A 7305  16.397   0.864   8.483  0.1980  0.1500  0.1032
  457loPI   C4A 7306  16.213   0.544   8.206 -0.0077  0.1966 -0.4041
  457loPI   C5A 7307  16.229   0.367   7.788 -0.2010 -0.1377 -0.0315
  457loPI   C6A 7308  16.061   0.566   7.401  0.2457  0.1860 -0.1334
  457loPI   C1B 7309  16.413   1.595   9.308  0.0288  0.2671  0.0031
  457loPI   C2B 7310  16.391   1.688   8.979  0.2219 -0.0001  0.3332
  457loPI   C3B 7311  16.601   1.769   8.600 -0.1066 -0.3166  0.2074
  457loPI   C4B 7312  16.778   1.821   8.138 -0.0032 -0.2533  0.0250
  458loPI    C1 7313  18.418   1.319  10.072  0.0694  0.0165 -0.1202
  458loPI    C2 7314  18.651   1.038  10.235  0.2327  0.1260 -0.1618
  458loPI    C3 7315  18.527   1.348  10.456 -0.1434 -0.0976 -0.0498
  458loPI   PO4 7316  18.501   1.345   9.824  0.2643  0.0054  0.0021
  458loPI   GL1 7317  18.310   1.407   9.457  0.2061 -0.0195  0.0657
  458loPI   GL2 7318  17.972   1.607   9.376 -0.0034  0.0080 -0.0136
  458loPI   C1A 7319  18.355   1.448   9.002  0.2637  0.1817 -0.0762
  458loPI   C2A 7320  18.276   1.386   8.699  0.0592 -0.1599 -0.1782
  458loPI   C3A 7321  18.131   1.242   8.292  0.0489  0.2970  0.1052
  458loPI   C4A 7322  18.174   1.153   8.044 -0.2407  0.3234  0.5063
  458loPI   C5A 7323  18.154   0.915   7.714 -0.0888 -0.2183  0.1182
  458loPI   C6A 7324  18.464   0.578   7.580  0.2998 -0.0381  0.3094
  458loPI   C1B 7325  17.833   1.674   9.028  0.4121  0.0440 -0.0911
  458loPI   C2B 7326  17.733   2.048   8.727 -0.2223 -0.4417 -0.4161
  458loPI   C3B 7327  17.636   2.010   8.334  0.3021 -0.3791 -0.1553
  458loPI   C4B 7328  17.552   2.178   7.835  0.0163 -0.3104  0.0710
  459loPI    C1 7329  12.006   7.600  10.433 -0.1865 -0.0891  0.1791
  459loPI    C2 7330  11.928   7.380  10.758 -0.2791 -0.0477  0.1854
  459loPI    C3 7331  11.993   7.773  10.793  0.0538 -0.1002  0.1946
  459loPI   PO4 7332  12.027   7.431  10.244 -0.3193  0.0861 -0.2271
  459loPI   GL1 7333  12.299   7.390   9.832 -0.1897 -0.0097  0.2375
  459loPI   GL2 7334  12.077   7.601   9.776 -0.1557  0.1002 -0.2218
  459loPI   C1A 7335  12.598   7.176   9.562  0.2493 -0.0545 -0.1656
  459loPI   C2A 7336  12.828   7.057   9.252  0.0409 -0.0092 -0.2641
  459loPI   C3A 7337  13.008   7.010   8.893  0.1501 -0.0855 -0.4988
  459loPI   C4A 7338  13.311   6.929   8.548 -0.2043 -0.1405  0.0832
  459loPI   C5A 7339  13.460   6.895   8.199  0.1975 -0.0199 -0.1904
  459loPI   C6A 7340  13.885   7.084   8.078 -0.4589  0.2013 -0.1418
  459loPI   C1B 7341  12.193   7.406   9.362 -0.0368  0.4206  0.0168
  459loPI   C2B 7342  12.441   7.454   9.132  0.0886 -0.2255  0.0404
  459loPI   C3B 7343  12.610   7.355   8.716 -0.1493 -0.0285  0.0944
  459loPI   C4B 7344  12.999   7.288   8.507 -0.0063  0.1521 -0.0409
  460loPI    C1 7345   7.796  15.719  10.357 -0.2054  0.3843  0.1744
  460loPI    C2 7346   8.108  15.967  10.385  0.1388 -0.0182  0.0215
  460loPI    C3 7347   8.049  15.688  10.665 -0.0373  0.0018  0.0055
  460loPI   PO4 7348   7.743  15.622  10.157 -0.0720 -0.0686 -0.0477
  460loPI   GL1 7349   7.955  15.679   9.688 -0.0915  0.2172 -0.0525
  460loPI   GL2 7350   7.910  16.062   9.778  0.0283 -0.1443  0.0818
  460loPI   C1A 7351   7.978  15.792   9.189  0.1763 -0.0852 -0.0834
  460loPI   C2A 7352   7.891  15.678   8.814 -0.0713 -0.3768 -0.3093
  460loPI   C3A 7353   7.772  15.637   8.434  0.0247  0.0438  0.3119
  460loPI   C4A 7354   7.889  15.420   8.058 -0.2942 -0.0486 -0.0720
  460loPI   C5A 7355   8.099  15.335   7.611  0.0268  0.2062 -0.0078
  460loPI   C6A 7356   8.282  15.060   7.266  0.2433 -0.0396 -0.2873
  460loPI   C1B 7357   8.076  16.192   9.391 -0.0676 -0.0138 -0.2426
  460loPI   C2B 7358   8.172  16.199   8.978 -0.0317 -0.1480 -0.0440
  460loPI   C3B 7359   8.114  16.214   8.491  0.0067  0.0412 -0.1228
  460loPI   C4B 7360   8.130  16.276   8.155  0.0551  0.2280 -0.0850
  461loPI    C1 7361   9.507   7.605  10.243 -0.0539 -0.3301 -0.1999
  461loPI    C2 7362   9.171   7.770  10.384  0.0075 -0.2014 -0.2025
  461loPI    C3 7363   9.294   7.415  10.523  0.1599  0.0026  0.1998
  461loPI   PO4 7364   9.479   7.658  10.028  0.0332  0.0247  0.1370
  461loPI   GL1 7365   9.379   7.699   9.618 -0.0105  0.1926  0.3389
  461loPI   GL2 7366   9.440   7.403   9.548  0.0568  0.3400 -0.1281
  461loPI   C1A 7367   9.251   7.680   9.133 -0.2564  0.0432  0.0937
  461loPI   C2A 7368   9.384   7.727   8.746 -0.2466  0.0847 -0.2582
  461loPI   C3A 7369   9.289   7.591   8.431 -0.1844  0.1166 -0.0612
  461loPI   C4A 7370   9.036   7.487   8.165  0.3041  0.1694 -0.2393
  461loPI   C5A 7371   8.783   7.325   7.887 -0.0927 -0.0196  0.3305
  461loPI   C6A 7372   8.772   6.984   7.638  0.1914 -0.0460  0.2541
  461loPI   C1B 7373   9.397   7.215   9.152 -0.2211 -0.3931  0.1114
  461loPI   C2B 7374   9.480   7.165   8.668 -0.0545  0.3481 -0.1703
  461loPI   C3B 7375   9.336   7.114   8.247  0.2865 -0.0071 -0.1797
  461loPI   C4B 7376   9.179   6.976   7.894 -0.1246 -0.2726  0.4542
  462loPI    C1 7377   0.211  13.760  10.229 -0.0046  0.1311 -0.0208
  462loPI    C2 7378   0.275  13.915  10.592  0.1320  0.0486 -0.0092
  462loPI    C3 7379   0.375  13.535  10.516 -0.0380  0.0192 -0.0890
  462loPI   PO4 7380   0.219  13.882  10.038  0.0936  0.0585  0.0447
  462loPI   GL1 7381   0.564  13.778   9.669  0.3947 -0.0734 -0.4070
  462loPI   GL2 7382   0.320  13.580   9.644  0.2568 -0.2275 -0.2151
  462loPI   C1A 7383   0.728  13.737   9.316 -0.0941  0.0188 -0.5383
  462loPI   C2A 7384   0.707  13.643   8.859  0.0798 -0.1702  0.1288
  462loPI   C3A 7385   0.634  13.585   8.467  0.2337  0.2455  0.1153
  462loPI   C4A 7386   0.562  13.704   8.081 -0.0812  0.1033  0.0594
  462loPI   C5A 7387   0.404  13.990   7.724  0.0120 -0.1507 -0.3174
  462loPI   C6A 7388   0.202  14.171   7.410 -0.0525  0.2138 -0.0383
  462loPI   C1B 7389   0.160  13.652   9.244  0.0540  0.2280 -0.0487
  462loPI   C2B 7390   0.203  13.823   8.881 -0.1037 -0.1271 -0.0317
  462loPI   C3B 7391   0.265  13.909   8.484  0.0443  0.0971  0.0972
  462loPI   C4B 7392   0.005  13.973   8.134  0.2674  0.0544  0.1294
  463loPI    C1 7393   5.001  11.827  10.118 -0.0200  0.1220 -0.0348
  463loPI    C2 7394   5.332  11.614  10.045 -0.2316 -0.2672  0.1111
  463loPI    C3 7395   5.289  11.803  10.395  0.0202  0.1477 -0.0744
  463loPI   PO4 7396   4.950  11.968   9.873 -0.0082 -0.5072  0.0150
  463loPI   GL1 7397   4.933  12.083   9.409  0.2120  0.1677  0.1564
  463loPI   GL2 7398   5.014  11.800   9.385  0.4846 -0.2365 -0.0669
  463loPI   C1A 7399   4.891  12.277   8.980  0.2148  0.1261 -0.2034
  463loPI   C2A 7400   4.826  12.126   8.563 -0.0671 -0.1194 -0.0498
  463loPI   C3A 7401   4.707  12.120   8.189 -0.0970 -0.1841 -0.0071
  463loPI   C4A 7402   4.661  12.458   7.943 -0.0500  0.0624 -0.1898
  463loPI   C5A 7403   4.565  12.929   8.049  0.2525  0.1268  0.2199
  463loPI   C6A 7404   4.285  13.054   7.801 -0.1136 -0.0096 -0.0285
  463loPI   C1B 7405   5.175  11.896   8.886 -0.0822  0.3572  0.2182
  463loPI   C2B 7406   5.246  11.928   8.397  0.2219 -0.0423 -0.1111
  463loPI   C3B 7407   5.211  12.154   8.120 -0.2476 -0.1276 -0.3030
  463loPI   C4B 7408   5.202  12.594   8.040  0.1104 -0.1304 -0.1404
  464loPI    C1 7409  16.809  13.610  10.243 -0.1471  0.1634 -0.0641
  464loPI    C2 7410  16.792  13.533  10.635 -0.0925 -0.0082 -0.0946
  464loPI    C3 7411  16.702  13.899  10.499  0.1026  0.1140  0.0989
  464loPI   PO4 7412  16.751  13.392  10.114 -0.1538  0.1702 -0.1023
  464loPI   GL1 7413  16.710  13.208   9.682 -0.2917 -0.0160 -0.1177
  464loPI   GL2 7414  16.598  13.412   9.660  0.2298 -0.1880  0.1187
  464loPI   C1A 7415  16.718  12.977   9.240 -0.2785  0.3289 -0.1162
  464loPI   C2A 7416  17.014  12.797   9.015 -0.2058  0.2115 -0.1368
  464loPI   C3A 7417  17.167  12.567   8.639 -0.1534  0.2725  0.1035
  464loPI   C4A 7418  17.113  12.586   8.315 -0.0290 -0.1099  0.3600
  464loPI   C5A 7419  16.791  12.663   8.003  0.1653  0.0961 -0.0363
  464loPI   C6A 7420  16.389  12.536   7.734 -0.2812  0.1517 -0.1239
  464loPI   C1B 7421  16.450  13.503   9.221  0.0020 -0.2578  0.0091
  464loPI   C2B 7422  16.261  13.429   8.784  0.3536  0.0627  0.0559
  464loPI   C3B 7423  16.294  13.272   8.354 -0.0580  0.4164 -0.2091
  464loPI   C4B 7424  16.583  13.157   8.098 -0.1151 -0.1589 -0.4912
  465loPI    C1 7425  13.098  18.175  10.519 -0.1008  0.0663  0.0044
  465loPI    C2 7426  13.173  17.934  10.829  0.2014  0.1273 -0.0186
  465loPI    C3 7427  12.959  18.268  10.882 -0.0148 -0.0214  0.0601
  465loPI   PO4 7428  13.033  18.018  10.313  0.0913 -0.2065 -0.3045
  465loPI   GL1 7429  13.080  18.098   9.866 -0.1327 -0.2891  0.1691
  465loPI   GL2 7430  12.838  18.021   9.828  0.0557 -0.1653 -0.0911
  465loPI   C1A 7431  13.314  18.132   9.509 -0.1029 -0.2246 -0.2903
  465loPI   C2A 7432  13.226  17.974   9.144  0.3318 -0.0639 -0.0120
  465loPI   C3A 7433  13.343  17.939   8.689  0.0987 -0.3325 -0.2251
  465loPI   C4A 7434  13.346  17.998   8.312  0.0445 -0.2881 -0.1744
  465loPI   C5A 7435  13.175  18.021   7.921  0.2065 -0.0838 -0.1370
  465loPI   C6A 7436  13.322  18.316   7.629 -0.0878 -0.2011  0.1078
  465loPI   C1B 7437  12.803  18.003   9.366 -0.2858 -0.0866 -0.1498
  465loPI   C2B 7438  12.676  17.991   8.953 -0.0314  0.1076 -0.2260
  465loPI   C3B 7439  12.742  18.053   8.560 -0.1888  0.1160  0.0849
  465loPI   C4B 7440  12.762  18.105   8.202 -0.6008 -0.0337 -0.1162
  466loPI    C1 7441   1.425   5.786   9.884  0.2166  0.3129 -0.0005
  466loPI    C2 7442   1.613   5.687  10.223 -0.1268  0.0206  0.1110
  466loPI    C3 7443   1.236   5.567  10.161 -0.1079  0.1698 -0.3263
  466loPI   PO4 7444   1.496   6.078   9.872 -0.0671 -0.1405  0.1412
  466loPI   GL1 7445   1.534   6.439   9.566  0.2756  0.0078  0.0846
  466loPI   GL2 7446   1.890   6.546   9.550  0.1081 -0.0861  0.0550
  466loPI   C1A 7447   1.304   6.387   9.223 -0.2054  0.2607 -0.0932
  466loPI   C2A 7448   1.025   6.076   8.852  0.1841 -0.2304 -0.0719
  466loPI   C3A 7449   0.987   5.695   8.514  0.0660  0.1488 -0.1700
  466loPI   C4A 7450   1.031   5.582   8.149 -0.1611  0.0617 -0.1459
  466loPI   C5A 7451   0.818   5.346   7.802  0.0172 -0.3324 -0.4133
  466loPI   C6A 7452   0.515   5.166   7.791 -0.2202 -0.1127 -0.0271
  466loPI   C1B 7453   1.844   6.464   9.157 -0.2029 -0.3007 -0.1316
  466loPI   C2B 7454   1.944   6.475   8.702  0.4190 -0.0477  0.0317
  466loPI   C3B 7455   2.106   6.369   8.245 -0.0189  0.0645  0.0067
  466loPI   C4B 7456   2.238   6.371   7.906  0.0101  0.2538 -0.2040
  467loPI    C1 7457   5.175  17.322  10.322  0.2250 -0.5050 -0.1316
  467loPI    C2 7458   4.942  17.179  10.614  0.0876  0.0130  0.0227
  467loPI    C3 7459   5.265  17.398  10.704  0.0651  0.1455 -0.2109
  467loPI   PO4 7460   4.991  17.350  10.118  0.3189  0.0418  0.0388
  467loPI   GL1 7461   5.226  17.099   9.856  0.0948 -0.3242  0.2530
  467loPI   GL2 7462   5.255  17.411   9.691 -0.1414 -0.1569 -0.0216
  467loPI   C1A 7463   5.003  16.951   9.518  0.1762  0.3068 -0.0477
  467loPI   C2A 7464   5.058  17.073   9.056  0.0469  0.3068 -0.0864
  467loPI   C3A 7465   4.915  16.961   8.677 -0.1045 -0.0365  0.0475
  467loPI   C4A 7466   4.873  17.008   8.213 -0.1793 -0.0410  0.3558
  467loPI   C5A 7467   4.685  17.373   8.109 -0.1337 -0.1797  0.2481
  467loPI   C6A 7468   4.642  17.659   7.711 -0.0052  0.1630 -0.3378
  467loPI   C1B 7469   5.380  17.430   9.238  0.1052  0.2783  0.2469
  467loPI   C2B 7470   5.331  17.419   8.826  0.0976 -0.3911  0.3119
  467loPI   C3B 7471   5.161  17.324   8.415  0.0190 -0.1619  0.2989
  467loPI   C4B 7472   5.182  17.420   8.041 -0.0681 -0.4489  0.0548
  468loPI    C1 7473   4.939   7.186  10.355 -0.1466  0.0244  0.3315
  468loPI    C2 7474   5.313   7.283  10.458 -0.0891 -0.0542  0.1989
  468loPI    C3 7475   5.128   6.979  10.640  0.0019 -0.1742  0.0934
  468loPI   PO4 7476   4.816   7.415  10.224  0.0590  0.1000 -0.1825
  468loPI   GL1 7477   4.768   7.336   9.741  0.3053  0.0493 -0.4120
  468loPI   GL2 7478   4.468   7.230   9.644  0.0949  0.1449 -0.2180
  468loPI   C1A 7479   4.773   7.649   9.357 -0.1319  0.1721  0.1272
  468loPI   C2A 7480   4.951   7.804   8.926 -0.0225 -0.2047 -0.2263
  468loPI   C3A 7481   4.836   7.609   8.506 -0.2643  0.0452  0.1650
  468loPI   C4A 7482   4.695   7.535   8.165 -0.0423 -0.0268 -0.1184
  468loPI   C5A 7483   4.580   7.807   7.773 -0.0657 -0.1191  0.1188
  468loPI   C6A 7484   4.796   8.190   7.657  0.3231 -0.0782  0.0019
  468loPI   C1B 7485   4.387   7.188   9.253  0.2482  0.0574  0.2628
  468loPI   C2B 7486   4.367   7.083   8.881  0.0271  0.1794 -0.2007
  468loPI   C3B 7487   4.542   7.124   8.418 -0.4644  0.0657  0.1357
  468loPI   C4B 7488   4.606   7.056   8.057 -0.0179  0.2274 -0.1811
  469loPI    C1 7489  12.015   6.404  10.637 -0.0094 -0.1121  0.0764
  469loPI    C2 7490  12.312   6.631  10.779 -0.0611  0.0317 -0.0432
  469loPI    C3 7491  12.220   6.287  10.960  0.0730  0.0646  0.0893
  469loPI   PO4 7492  12.062   6.458  10.390  0.0459 -0.0642 -0.0120
  469loPI   GL1 7493  12.107   6.160   9.968  0.1068 -0.0380 -0.1624
  469loPI   GL2 7494  11.845   6.311   9.941  0.1657  0.0720 -0.0166
  469loPI   C1A 7495  12.241   6.403   9.591 -0.3209  0.3253  0.2275
  469loPI   C2A 7496  12.286   6.367   9.212  0.4442  0.2017 -0.2830
  469loPI   C3A 7497  12.145   6.353   8.793  0.2639  0.1207 -0.2419
  469loPI   C4A 7498  12.005   6.341   8.389  0.1555  0.0451 -0.1176
  469loPI   C5A 7499  11.885   6.409   7.980  0.1094 -0.3521  0.0769
  469loPI   C6A 7500  11.497   6.441   7.819 -0.1549  0.1118  0.2065
  469loPI   C1B 7501  11.716   6.376   9.535 -0.2492 -0.1063 -0.0522
  469loPI   C2B 7502  11.753   6.316   9.089 -0.0304  0.3418  0.1437
  469loPI   C3B 7503  11.573   6.326   8.701 -0.0731  0.2835  0.0763
  469loPI   C4B 7504  11.440   6.559   8.345  0.4536 -0.1327  0.1421
  470loPI    C1 7505  13.520  16.793  10.182 -0.1948  0.1527  0.0130
  470loPI    C2 7506  13.584  17.084  10.448 -0.3475  0.2331 -0.0363
  470loPI    C3 7507  13.365  16.765  10.549  0.0323  0.0080  0.0998
  470loPI   PO4 7508  13.686  16.784  10.042  0.0748 -0.3449 -0.1401
  470loPI   GL1 7509  13.787  16.914   9.683  0.1129 -0.2723  0.1777
  470loPI   GL2 7510  13.804  17.245   9.609  0.1773 -0.1753 -0.1062
  470loPI   C1A 7511  14.108  16.635   9.454  0.0470  0.2437 -0.0169
  470loPI   C2A 7512  14.501  16.705   9.244 -0.2456 -0.0437  0.1049
  470loPI   C3A 7513  14.548  16.656   8.861 -0.0033  0.3056  0.2527
  470loPI   C4A 7514  14.814  16.498   8.384  0.3244  0.0034  0.5544
  470loPI   C5A 7515  15.137  16.230   8.158  0.4888 -0.1549  0.0352
  470loPI   C6A 7516  15.373  15.901   8.323 -0.0318 -0.0344  0.0414
  470loPI   C1B 7517  13.951  17.175   9.177  0.2622 -0.0955  0.2044
  470loPI   C2B 7518  13.890  17.213   8.705 -0.0512 -0.1154 -0.1809
  470loPI   C3B 7519  13.849  17.056   8.239  0.1108 -0.0164 -0.2116
  470loPI   C4B 7520  13.999  17.080   7.737 -0.0445  0.3217 -0.0800
  471loPI    C1 7521   5.500  13.105  10.121  0.2978 -0.1186 -0.1796
  471loPI    C2 7522   5.718  13.353  10.346 -0.0045 -0.0229  0.0142
  471loPI    C3 7523   5.527  13.045  10.515  0.0458 -0.1551 -0.1663
  471loPI   PO4 7524   5.504  13.330   9.934  0.1304 -0.0874 -0.4289
  471loPI   GL1 7525   5.692  13.257   9.568 -0.5690 -0.2477  0.3483
  471loPI   GL2 7526   5.799  13.497   9.384  0.0936 -0.3323  0.0465
  471loPI   C1A 7527   5.474  13.104   9.195 -0.1581  0.0373  0.1527
  471loPI   C2A 7528   5.443  13.215   8.705  0.0058  0.2113  0.1087
  471loPI   C3A 7529   5.354  13.455   8.212 -0.1873  0.0128  0.0279
  471loPI   C4A 7530   5.116  13.598   7.921  0.3596  0.5132 -0.0224
  471loPI   C5A 7531   5.050  13.793   7.617 -0.0197 -0.0585 -0.1937
  471loPI   C6A 7532   5.354  14.045   7.282  0.2597 -0.0157  0.4807
  471loPI   C1B 7533   5.822  13.580   9.037 -0.0336  0.0300 -0.3371
  471loPI   C2B 7534   6.137  13.606   8.674  0.0383 -0.1184 -0.2757
  471loPI   C3B 7535   6.289  13.892   8.401  0.3488  0.0527 -0.1846
  471loPI   C4B 7536   6.468  14.144   8.170  0.0965 -0.2394 -0.1856
  472loPI    C1 7537  10.050  12.649  10.156  0.0527 -0.1507  0.2887
  472loPI    C2 7538   9.770  12.916  10.258  0.1068  0.1091 -0.2087
  472loPI    C3 7539  10.120  12.909  10.451 -0.0903  0.0412  0.1559
  472loPI   PO4 7540  10.058  12.714   9.844  0.1294  0.1080  0.4306
  472loPI   GL1 7541  10.134  12.420   9.471  0.1348 -0.3795 -0.2861
  472loPI   GL2 7542   9.778  12.496   9.426 -0.0823 -0.0885  0.1355
  472loPI   C1A 7543  10.047  12.433   9.024  0.1330 -0.1140 -0.0877
  472loPI   C2A 7544  10.036  12.484   8.613 -0.0393 -0.0807 -0.4368
  472loPI   C3A 7545   9.802  12.280   8.299 -0.1032  0.3227  0.1371
  472loPI   C4A 7546   9.733  12.188   7.922  0.2965 -0.1109  0.0414
  472loPI   C5A 7547   9.453  12.222   7.560  0.3329 -0.0466 -0.0410
  472loPI   C6A 7548   9.027  12.053   7.572  0.0027  0.0980 -0.0694
  472loPI   C1B 7549   9.570  12.470   9.100  0.1039 -0.2072 -0.4518
  472loPI   C2B 7550   9.515  12.428   8.661 -0.2878 -0.2034  0.0170
  472loPI   C3B 7551   9.267  12.366   8.303 -0.1531 -0.1291 -0.2260
  472loPI   C4B 7552   9.164  12.272   7.966  0.3106 -0.1075  0.1037
  473loPI    C1 7553   9.134  12.542  10.135 -0.1072 -0.0082  0.0184
  473loPI    C2 7554   8.916  12.671  10.445 -0.0312 -0.0078  0.0723
  473loPI    C3 7555   9.315  12.691  10.459 -0.0260 -0.0474 -0.0085
  473loPI   PO4 7556   8.973  12.578   9.888  0.1707  0.1585 -0.1481
  473loPI   GL1 7557   9.167  12.580   9.544 -0.0458 -0.0837 -0.2569
  473loPI   GL2 7558   9.074  12.974   9.544  0.1477 -0.1772 -0.0348
  473loPI   C1A 7559   9.089  12.464   9.219  0.2098 -0.0144  0.2192
  473loPI   C2A 7560   9.011  12.485   8.793 -0.0688 -0.0172 -0.0931
  473loPI   C3A 7561   8.747  12.404   8.325  0.1734  0.2012 -0.1544
  473loPI   C4A 7562   8.646  12.251   7.968 -0.1704 -0.1518 -0.0045
  473loPI   C5A 7563   8.611  12.356   7.456  0.0269  0.2476 -0.0254
  473loPI   C6A 7564   8.681  12.758   7.214  0.3942 -0.2844 -0.0895
  473loPI   C1B 7565   8.917  12.917   9.143 -0.1171  0.1082  0.1281
  473loPI   C2B 7566   8.742  12.856   8.607  0.0777  0.1813  0.0692
  473loPI   C3B 7567   8.544  13.074   8.366 -0.0618  0.2854 -0.0890
  473loPI   C4B 7568   8.400  13.158   7.959  0.3719 -0.0147 -0.1626
  474loPI    C1 7569  18.389  13.452  10.341 -0.0698  0.1564  0.1401
  474loPI    C2 7570  18.663  13.676  10.528 -0.0324  0.1014  0.1514
  474loPI    C3 7571  18.729  13.285  10.470 -0.1024  0.0909  0.1417
  474loPI   PO4 7572  18.173  13.669  10.109 -0.1802  0.0175  0.4940
  474loPI   GL1 7573  18.099  13.647   9.577 -0.0188  0.1202 -0.1143
  474loPI   GL2 7574  18.233  13.443   9.320  0.3835  0.1858 -0.2332
  474loPI   C1A 7575  18.136  13.953   9.255 -0.1359  0.0527  0.0839
  474loPI   C2A 7576  18.172  14.142   8.851  0.0110 -0.1521 -0.0393
  474loPI   C3A 7577  18.165  13.970   8.436  0.2275 -0.0182  0.0797
  474loPI   C4A 7578  18.311  14.042   8.048 -0.3262  0.3419 -0.0889
  474loPI   C5A 7579  18.274  14.311   7.691 -0.0372 -0.2527  0.2696
  474loPI   C6A 7580  18.523  14.368   7.377 -0.0695  0.0338 -0.2552
  474loPI   C1B 7581  18.256  13.568   8.814  0.0844  0.0192  0.0364
  474loPI   C2B 7582  18.388  13.520   8.324 -0.0095  0.2065 -0.0877
  474loPI   C3B 7583  18.416  13.521   7.956  0.0918 -0.0772  0.1513
  474loPI   C4B 7584  18.142  13.317   7.660  0.1531  0.3866 -0.2217
  475loPI    C1 7585   4.824   9.827  10.055  0.0802 -0.0234  0.0097
  475loPI    C2 7586   4.596  10.131  10.179  0.1029  0.0104 -0.0310
  475loPI    C3 7587   4.603   9.789  10.386 -0.0834 -0.0367 -0.1001
  475loPI   PO4 7588   4.705   9.910   9.721 -0.2437  0.3279 -0.0784
  475loPI   GL1 7589   4.959   9.980   9.367  0.2593  0.1766 -0.2844
  475loPI   GL2 7590   4.735   9.818   9.209  0.0588  0.1109  0.2077
  475loPI   C1A 7591   5.100  10.114   8.929  0.0235  0.3034 -0.0773
  475loPI   C2A 7592   5.234  10.058   8.470 -0.1597 -0.1118  0.2661
  475loPI   C3A 7593   5.154  10.009   8.041 -0.0004  0.1081 -0.0710
  475loPI   C4A 7594   5.028   9.898   7.560 -0.0649  0.1134  0.1505
  475loPI   C5A 7595   5.123  10.084   7.153  0.0602 -0.2313 -0.0342
  475loPI   C6A 7596   5.024  10.126   6.757 -0.1775  0.0379  0.1228
  475loPI   C1B 7597   4.638   9.961   8.789 -0.1305 -0.0409 -0.2399
  475loPI   C2B 7598   4.708   9.871   8.360  0.0835  0.3211 -0.2271
  475loPI   C3B 7599   4.624   9.935   7.909 -0.3236 -0.0756  0.1344
  475loPI   C4B 7600   4.467  10.080   7.535 -0.0659 -0.1493 -0.1514
  476loPI    C1 7601  17.541   2.280  10.021 -0.4720 -0.3157 -0.1533
  476loPI    C2 7602  17.340   2.625   9.989 -0.1317 -0.1075 -0.0874
  476loPI    C3 7603  17.410   2.466  10.350  0.2536  0.0858 -0.0715
  476loPI   PO4 7604  17.520   2.237   9.716 -0.1426 -0.2163 -0.0744
  476loPI   GL1 7605  17.852   2.437   9.502  0.1276 -0.0906 -0.1161
  476loPI   GL2 7606  17.907   2.260   9.230  0.0906 -0.1946 -0.4307
  476loPI   C1A 7607  17.777   2.696   9.075 -0.1199 -0.0707 -0.1478
  476loPI   C2A 7608  17.845   2.618   8.605 -0.0869  0.1406 -0.0429
  476loPI   C3A 7609  17.640   2.500   8.255 -0.1361  0.2157  0.0895
  476loPI   C4A 7610  17.330   2.626   8.003  0.1231  0.0776 -0.2293
  476loPI   C5A 7611  17.139   2.504   7.679 -0.3968 -0.0070 -0.0652
  476loPI   C6A 7612  16.975   2.631   7.336  0.1937 -0.0845 -0.0514
  476loPI   C1B 7613  18.180   2.437   9.054 -0.0564 -0.1842 -0.0609
  476loPI   C2B 7614  18.561   2.236   8.812 -0.0172 -0.0291  0.0375
  476loPI   C3B 7615  18.675   2.274   8.386  0.5577 -0.4016 -0.5265
  476loPI   C4B 7616  18.517   2.292   7.968  0.2522  0.0929  0.1981
  477loPI    C1 7617   7.736  16.301  10.565 -0.0934 -0.0937 -0.0389
  477loPI    C2 7618   8.097  16.298  10.737  0.0337 -0.1532 -0.3013
  477loPI    C3 7619   7.802  16.072  10.886  0.0349  0.0731  0.0547
  477loPI   PO4 7620   7.729  16.280  10.265  0.0740  0.1269 -0.0027
  477loPI   GL1 7621   7.422  16.070   9.979 -0.0038  0.0704 -0.0894
  477loPI   GL2 7622   7.411  15.682   9.810 -0.1080  0.1844  0.3718
  477loPI   C1A 7623   7.565  16.157   9.506  0.1195  0.0757 -0.0182
  477loPI   C2A 7624   7.636  16.138   9.091 -0.1910  0.0079  0.0442
  477loPI   C3A 7625   7.586  16.164   8.719 -0.1310  0.3189 -0.0552
  477loPI   C4A 7626   7.458  16.048   8.336 -0.1324 -0.1256  0.2207
  477loPI   C5A 7627   7.278  15.731   8.039 -0.1559 -0.1830  0.1579
  477loPI   C6A 7628   7.147  15.793   7.553 -0.0556 -0.1990  0.2393
  477loPI   C1B 7629   7.524  15.711   9.452  0.1386  0.1431 -0.1037
  477loPI   C2B 7630   7.321  15.728   9.066 -0.3194  0.1564  0.1099
  477loPI   C3B 7631   7.305  15.657   8.590 -0.4688  0.1258 -0.0575
  477loPI   C4B 7632   7.100  15.417   8.349 -0.0159 -0.0552 -0.0925
  478loPI    C1 7633  17.972   5.557   9.879  0.0683  0.1056 -0.0677
  478loPI    C2 7634  17.735   5.608  10.197 -0.3693 -0.0112 -0.3662
  478loPI    C3 7635  17.908   5.925  10.024 -0.2157  0.0639 -0.0815
  478loPI   PO4 7636  17.841   5.382   9.776 -0.0322  0.1265 -0.0124
  478loPI   GL1 7637  17.519   5.342   9.422 -0.1292  0.3984 -0.0457
  478loPI   GL2 7638  17.628   5.760   9.415 -0.1576 -0.2105  0.2472
  478loPI   C1A 7639  17.308   5.285   9.041 -0.3078  0.0189  0.1160
  478loPI   C2A 7640  17.397   5.410   8.678 -0.0791 -0.1272  0.1353
  478loPI   C3A 7641  17.442   5.449   8.201  0.2747  0.0711  0.1338
  478loPI   C4A 7642  17.173   5.319   7.902  0.3924 -0.1475 -0.0414
  478loPI   C5A 7643  16.955   5.026   7.676 -0.3612  0.1328  0.1179
  478loPI   C6A 7644  17.077   4.613   7.449  0.2471 -0.1123 -0.1117
  478loPI   C1B 7645  17.804   5.680   8.959  0.0062  0.0018 -0.2656
  478loPI   C2B 7646  17.942   5.586   8.533  0.0415 -0.1455  0.0282
  478loPI   C3B 7647  17.964   5.281   8.251 -0.0062  0.2202 -0.2850
  478loPI   C4B 7648  17.962   5.310   7.876  0.2178 -0.0160 -0.3093
  479loPI    C1 7649  10.414   0.999  10.558 -0.0190 -0.2187  0.1551
  479loPI    C2 7650  10.258   1.237  10.838  0.1050 -0.0896  0.1154
  479loPI    C3 7651  10.629   1.093  10.882  0.0509 -0.2309  0.1126
  479loPI   PO4 7652  10.430   1.066  10.383  0.0932 -0.1779 -0.0174
  479loPI   GL1 7653  10.210   0.928  10.040  0.0813 -0.1653 -0.2356
  479loPI   GL2 7654  10.379   0.588  10.228  0.1578  0.0337  0.0503
  479loPI   C1A 7655   9.779   0.757   9.760 -0.0840  0.0215  0.1395
  479loPI   C2A 7656   9.837   0.653   9.352 -0.1326  0.0368 -0.0663
  479loPI   C3A 7657   9.992   0.490   8.972  0.2413  0.2551 -0.3268
  479loPI   C4A 7658   9.951   0.540   8.473 -0.1523 -0.1013  0.1649
  479loPI   C5A 7659  10.240   0.586   8.154  0.1844 -0.1017 -0.0781
  479loPI   C6A 7660  10.454   0.577   7.717 -0.1667  0.0543 -0.0082
  479loPI   C1B 7661  10.560   0.502   9.829 -0.1855  0.0753 -0.0630
  479loPI   C2B 7662  10.486   0.378   9.364 -0.3990 -0.2554 -0.2821
  479loPI   C3B 7663  10.577   0.425   9.005 -0.1263  0.1186  0.2051
  479loPI   C4B 7664  10.406   0.450   8.616  0.0691  0.2033 -0.1193
  480loPI    C1 7665  13.774  11.908  10.368  0.2399 -0.0770 -0.1296
  480loPI    C2 7666  14.058  11.694  10.550  0.0834 -0.1670  0.0118
  480loPI    C3 7667  13.674  11.638  10.645  0.0287  0.0622 -0.0678
  480loPI   PO4 7668  13.936  11.964  10.102 -0.1069 -0.1971  0.2296
  480loPI   GL1 7669  13.713  12.058   9.637  0.1926 -0.1734 -0.2928
  480loPI   GL2 7670  13.869  11.729   9.634  0.0550 -0.2269 -0.2437
  480loPI   C1A 7671  13.519  12.291   9.345 -0.3943  0.1923  0.2011
  480loPI   C2A 7672  13.441  12.503   8.895 -0.0466 -0.1124  0.1367
  480loPI   C3A 7673  13.517  12.552   8.484  0.2167  0.0778  0.0875
  480loPI   C4A 7674  13.512  12.368   8.123  0.1368 -0.0593  0.1146
  480loPI   C5A 7675  13.298  12.379   7.784  0.1523 -0.2734 -0.3176
  480loPI   C6A 7676  12.987  12.052   7.631  0.2290 -0.2687 -0.1969
  480loPI   C1B 7677  13.821  11.693   9.169 -0.0650  0.3629 -0.0150
  480loPI   C2B 7678  13.912  11.499   8.785  0.2744  0.0392 -0.3045
  480loPI   C3B 7679  13.771  11.573   8.314 -0.0178 -0.1162  0.0049
  480loPI   C4B 7680  13.998  11.440   7.933 -0.0823 -0.1555 -0.1060
  481loPI    C1 7681  13.661   2.747  10.180  0.0187 -0.0162  0.0897
  481loPI    C2 7682  13.545   2.599  10.533  0.1828 -0.0457  0.1321
  481loPI    C3 7683  13.727   2.954  10.515  0.1064 -0.0094  0.0684
  481loPI   PO4 7684  13.833   2.513  10.074  0.2405 -0.0196 -0.0484
  481loPI   GL1 7685  13.922   2.337   9.557  0.1763 -0.3202 -0.2802
  481loPI   GL2 7686  13.659   2.435   9.585  0.0895  0.1365 -0.2877
  481loPI   C1A 7687  13.827   2.180   9.096  0.2343  0.4541  0.0665
  481loPI   C2A 7688  13.660   2.294   8.626  0.1125 -0.1591 -0.2377
  481loPI   C3A 7689  13.539   2.256   8.223  0.1228 -0.0695  0.0239
  481loPI   C4A 7690  13.218   2.185   7.823 -0.1735 -0.1556 -0.0591
  481loPI   C5A 7691  12.900   2.284   7.505  0.0633 -0.0435 -0.0271
  481loPI   C6A 7692  12.861   2.001   7.205  0.2362 -0.3503 -0.0270
  481loPI   C1B 7693  13.816   2.745   9.300  0.0882 -0.0170  0.1982
  481loPI   C2B 7694  13.767   2.766   8.899  0.1443  0.0162  0.0422
  481loPI   C3B 7695  13.898   2.757   8.450  0.2100  0.1762  0.0843
  481loPI   C4B 7696  13.726   2.809   8.034  0.0196 -0.0357 -0.0835
  482loPI    C1 7697   2.933  15.814  10.156 -0.0486 -0.1405  0.0070
  482loPI    C2 7698   3.234  15.645  10.359 -0.0278 -0.1004  0.0099
  482loPI    C3 7699   2.939  15.830  10.556  0.0799  0.0862 -0.0020
  482loPI   PO4 7700   3.101  15.762   9.894 -0.0796 -0.1467  0.0627
  482loPI   GL1 7701   3.242  15.939   9.592 -0.0635  0.0212 -0.2702
  482loPI   GL2 7702   3.317  16.220   9.671  0.1470  0.3763  0.2542
  482loPI   C1A 7703   3.541  15.929   9.270  0.2038  0.0374 -0.1031
  482loPI   C2A 7704   3.466  15.954   8.898 -0.2171  0.1537  0.0000
  482loPI   C3A 7705   3.490  15.973   8.449 -0.0485 -0.0882  0.0222
  482loPI   C4A 7706   3.610  16.175   8.079  0.0119 -0.0240  0.0089
  482loPI   C5A 7707   3.814  16.128   7.610 -0.1636  0.3230 -0.2639
  482loPI   C6A 7708   4.024  16.519   7.407  0.1368  0.0659  0.0127
  482loPI   C1B 7709   3.108  16.199   9.226 -0.0878 -0.1872 -0.2656
  482loPI   C2B 7710   3.007  16.276   8.795  0.1543  0.1108 -0.2631
  482loPI   C3B 7711   3.131  16.376   8.354 -0.1889 -0.1359 -0.0295
  482loPI   C4B 7712   3.110  16.366   7.945 -0.2032  0.1740  0.0337
  483loPI    C1 7713  16.620   5.340   9.846  0.1892  0.1363 -0.2233
  483loPI    C2 7714  16.780   4.990   9.956 -0.1541  0.0236 -0.0683
  483loPI    C3 7715  17.014   5.311   9.912  0.1367 -0.1772 -0.0209
  483loPI   PO4 7716  16.537   5.312   9.636 -0.0236  0.3218  0.1154
  483loPI   GL1 7717  16.376   5.227   9.256 -0.1596  0.4558 -0.0865
  483loPI   GL2 7718  16.426   5.453   9.035 -0.0328  0.1128 -0.0653
  483loPI   C1A 7719  16.129   5.097   8.876  0.1990  0.0862 -0.0933
  483loPI   C2A 7720  15.976   4.956   8.499 -0.3578  0.0082  0.0784
  483loPI   C3A 7721  16.044   4.725   8.105 -0.2942 -0.2505  0.1034
  483loPI   C4A 7722  15.954   4.700   7.617  0.0461 -0.1577  0.0188
  483loPI   C5A 7723  15.992   4.843   7.240  0.1705 -0.3061 -0.2238
  483loPI   C6A 7724  16.367   4.998   6.921  0.0665  0.1759 -0.1278
  483loPI   C1B 7725  16.549   5.249   8.677 -0.0794 -0.1255 -0.0062
  483loPI   C2B 7726  16.439   4.957   8.281  0.1229  0.4591 -0.3323
  483loPI   C3B 7727  16.513   4.922   7.819  0.0568  0.0900  0.2987
  483loPI   C4B 7728  16.514   4.728   7.441 -0.2386  0.0125  0.0117
  484loPI    C1 7729   9.591   2.448  10.702 -0.2251 -0.0722  0.0507
  484loPI    C2 7730   9.304   2.612  10.927 -0.1029  0.4184 -0.1380
  484loPI    C3 7731   9.650   2.804  10.873  0.2075 -0.0944 -0.0420
  484loPI   PO4 7732   9.434   2.390  10.463 -0.1445  0.1289  0.0260
  484loPI   GL1 7733   9.465   2.523  10.093 -0.2660 -0.1154 -0.0793
  484loPI   GL2 7734   9.221   2.576   9.969  0.1859 -0.0121  0.1906
  484loPI   C1A 7735   9.681   2.545   9.682  0.1027  0.3236  0.2132
  484loPI   C2A 7736   9.912   2.319   9.375 -0.1172 -0.4924  0.0837
  484loPI   C3A 7737   9.775   2.317   8.947  0.3406 -0.0596  0.0875
  484loPI   C4A 7738   9.812   2.311   8.514 -0.1173  0.0269  0.1578
  484loPI   C5A 7739   9.824   2.382   8.110 -0.0787 -0.3352 -0.1221
  484loPI   C6A 7740   9.521   2.168   7.904  0.0061  0.2617 -0.1461
  484loPI   C1B 7741   9.330   2.800   9.595  0.1417 -0.1975  0.1051
  484loPI   C2B 7742   9.052   2.702   9.214 -0.3083  0.1163  0.1500
  484loPI   C3B 7743   8.902   2.730   8.784  0.0220  0.3559 -0.0954
  484loPI   C4B 7744   8.908   2.627   8.281 -0.2549  0.0218  0.0726
  485loPI    C1 7745  12.243  18.445  10.317 -0.0180 -0.2373  0.0230
  485loPI    C2 7746  12.433  18.676  10.583 -0.0674  0.0737 -0.2050
  485loPI    C3 7747  12.042  18.604  10.624 -0.0984  0.2130 -0.2534
  485loPI   PO4 7748  12.199  18.594  10.101 -0.3535  0.0726 -0.0833
  485loPI   GL1 7749  11.977  18.560   9.742  0.1813  0.0864 -0.0773
  485loPI   GL2 7750  11.966  18.872   9.650  0.3761  0.3512 -0.1118
  485loPI   C1A 7751  12.054  18.484   9.328 -0.0998 -0.2320  0.0156
  485loPI   C2A 7752  12.051  18.504   8.849 -0.0176 -0.1778 -0.1127
  485loPI   C3A 7753  12.001  18.540   8.381  0.0602 -0.1331  0.1056
  485loPI   C4A 7754  12.060  18.608   8.006  0.0139 -0.1307 -0.0172
  485loPI   C5A 7755  11.833  18.416   7.734 -0.0081  0.1255  0.1760
  485loPI   C6A 7756  11.927  18.178   7.421  0.0732 -0.4519 -0.3893
  485loPI   C1B 7757  11.787  18.909   9.196  0.0696  0.1281  0.1694
  485loPI   C2B 7758  11.786  18.891   8.792 -0.2878 -0.2395  0.1588
  485loPI   C3B 7759  11.748  18.978   8.380 -0.1014 -0.3120 -0.1471
  485loPI   C4B 7760  11.656  18.952   7.966  0.2255 -0.4254  0.3236
  486loPI    C1 7761   5.285   5.175  10.229 -0.0574 -0.1097 -0.2349
  486loPI    C2 7762   5.219   4.817  10.395 -0.1147 -0.0535 -0.1347
  486loPI    C3 7763   5.073   5.147  10.567 -0.0008  0.0252 -0.1873
  486loPI   PO4 7764   5.290   5.135   9.965  0.0823 -0.1872  0.0873
  486loPI   GL1 7765   5.420   5.047   9.510 -0.0426  0.1100 -0.0719
  486loPI   GL2 7766   5.790   4.936   9.365  0.0256 -0.0952  0.0024
  486loPI   C1A 7767   5.127   4.872   9.187 -0.3700 -0.3825  0.1259
  486loPI   C2A 7768   5.132   4.786   8.778 -0.3683 -0.1222  0.0245
  486loPI   C3A 7769   5.277   4.532   8.326 -0.0352  0.3461  0.0576
  486loPI   C4A 7770   5.101   4.132   8.201  0.2046  0.3043  0.1816
  486loPI   C5A 7771   4.771   3.902   7.869  0.2662  0.2851 -0.1701
  486loPI   C6A 7772   4.575   3.515   7.786 -0.1277 -0.0642  0.1279
  486loPI   C1B 7773   5.555   4.975   8.956 -0.0463  0.0800  0.0230
  486loPI   C2B 7774   5.568   4.905   8.485  0.1896 -0.3577  0.0871
  486loPI   C3B 7775   5.552   4.821   8.015 -0.0962 -0.0525  0.0764
  486loPI   C4B 7776   5.296   4.499   7.763 -0.0029  0.0267 -0.1188
  487loPI    C1 7777  13.242   2.966  10.379  0.0778 -0.0518 -0.0548
  487loPI    C2 7778  13.027   2.900  10.710 -0.1156 -0.1561 -0.1991
  487loPI    C3 7779  12.997   3.250  10.518  0.0653 -0.0611 -0.0576
  487loPI   PO4 7780  13.190   2.826  10.174 -0.1136  0.2395  0.1358
  487loPI   GL1 7781  13.347   2.866   9.782  0.2344  0.1816 -0.3835
  487loPI   GL2 7782  13.382   3.163   9.802  0.0596  0.1068 -0.2173
  487loPI   C1A 7783  13.390   2.954   9.249 -0.0299 -0.0389 -0.1729
  487loPI   C2A 7784  13.395   2.998   8.741  0.2018 -0.1665  0.1328
  487loPI   C3A 7785  13.390   3.063   8.235 -0.0062 -0.1948 -0.0011
  487loPI   C4A 7786  13.393   3.267   7.902  0.2438  0.1354 -0.2843
  487loPI   C5A 7787  13.383   3.600   7.568  0.0489  0.3792  0.0747
  487loPI   C6A 7788  13.148   3.882   7.322  0.1217 -0.1502 -0.2933
  487loPI   C1B 7789  13.717   3.252   9.435 -0.0792  0.4515  0.0597
  487loPI   C2B 7790  13.898   3.186   9.080  0.0432  0.1316  0.1542
  487loPI   C3B 7791  13.824   3.227   8.681 -0.0353  0.0950  0.1843
  487loPI   C4B 7792  13.853   3.344   8.134  0.1981 -0.0954 -0.2654
  488loPI    C1 7793   1.978  12.556  10.118  0.0017 -0.1172  0.1339
  488loPI    C2 7794   1.801  12.565  10.477 -0.1473 -0.2070  0.0639
  488loPI    C3 7795   1.998  12.237  10.359 -0.0112 -0.1406  0.1040
  488loPI   PO4 7796   1.758  12.723   9.929  0.2092 -0.0093 -0.0444
  488loPI   GL1 7797   1.430  12.858   9.812 -0.0863 -0.2953  0.0745
  488loPI   GL2 7798   1.268  12.587   9.848 -0.0790  0.0008  0.3948
  488loPI   C1A 7799   1.418  12.935   9.408 -0.1978 -0.1570  0.3095
  488loPI   C2A 7800   1.768  12.681   9.219  0.1256  0.0165 -0.1023
  488loPI   C3A 7801   1.785  12.732   8.745 -0.3101 -0.0740  0.2178
  488loPI   C4A 7802   1.824  12.998   8.390 -0.1601  0.1872  0.0572
  488loPI   C5A 7803   1.666  12.982   8.006  0.0311 -0.0613  0.5972
  488loPI   C6A 7804   1.267  12.933   7.888 -0.0545  0.0675 -0.0648
  488loPI   C1B 7805   1.144  12.588   9.468  0.2280  0.2219 -0.0543
  488loPI   C2B 7806   1.127  12.699   9.035  0.0189 -0.0801  0.0572
  488loPI   C3B 7807   0.985  12.706   8.644 -0.1930  0.4175  0.2778
  488loPI   C4B 7808   0.936  12.727   8.204 -0.1998 -0.2939 -0.2080
  489loPI    C1 7809  11.917  13.151  10.583 -0.1257 -0.0529 -0.0831
  489loPI    C2 7810  11.541  13.267  10.659 -0.1091 -0.0196 -0.0511
  489loPI    C3 7811  11.844  13.525  10.706 -0.0999  0.0075 -0.2485
  489loPI   PO4 7812  11.833  13.043  10.280  0.1325  0.0816 -0.0368
  489loPI   GL1 7813  11.909  13.133   9.804 -0.1168  0.4716 -0.2282
  489loPI   GL2 7814  11.696  12.962   9.723 -0.0505  0.0933  0.1590
  489loPI   C1A 7815  11.818  13.170   9.256  0.1905  0.0190 -0.0308
  489loPI   C2A 7816  11.963  13.342   8.944  0.1457 -0.3040 -0.2039
  489loPI   C3A 7817  12.120  13.475   8.517 -0.3268  0.1792  0.1195
  489loPI   C4A 7818  12.186  13.434   8.112  0.1860 -0.0446 -0.1079
  489loPI   C5A 7819  12.272  13.482   7.833  0.1941 -0.0762 -0.1806
  489loPI   C6A 7820  12.296  13.287   7.563 -0.2276 -0.0292  0.2350
  489loPI   C1B 7821  11.805  12.615   9.386 -0.0327  0.1241 -0.0918
  489loPI   C2B 7822  11.901  12.669   8.963 -0.1797 -0.0942 -0.3676
  489loPI   C3B 7823  11.813  12.701   8.560 -0.1273  0.1707 -0.0385
  489loPI   C4B 7824  11.702  12.743   8.115  0.0891  0.3111 -0.1489
  490loPI    C1 7825  17.084  11.263  10.262 -0.1036  0.1474  0.0390
  490loPI    C2 7826  16.924  10.951  10.454  0.1154 -0.1239 -0.2087
  490loPI    C3 7827  17.106  11.242  10.660 -0.3581  0.0010  0.0468
  490loPI   PO4 7828  17.178  11.169  10.044 -0.3286 -0.0979 -0.3193
  490loPI   GL1 7829  17.450  11.351   9.651 -0.0096  0.3075  0.1299
  490loPI   GL2 7830  17.611  11.700   9.568 -0.0113 -0.3416 -0.0704
  490loPI   C1A 7831  17.263  11.174   9.288 -0.1961 -0.1491 -0.0736
  490loPI   C2A 7832  17.177  11.033   8.878  0.2028 -0.0478 -0.0568
  490loPI   C3A 7833  16.969  11.139   8.648 -0.0684 -0.2005 -0.0417
  490loPI   C4A 7834  16.676  11.113   8.456 -0.3983  0.0610 -0.0260
  490loPI   C5A 7835  16.596  11.110   8.000  0.1546  0.1513  0.0041
  490loPI   C6A 7836  16.221  11.077   7.774  0.1218 -0.1859 -0.2217
  490loPI   C1B 7837  17.561  11.601   9.173  0.1369 -0.0667 -0.1750
  490loPI   C2B 7838  17.384  11.517   8.770 -0.1482 -0.1261 -0.0764
  490loPI   C3B 7839  17.299  11.338   8.394  0.2041 -0.2314 -0.1132
  490loPI   C4B 7840  17.323  10.852   8.349 -0.0959 -0.1029  0.0180
  491loPI    C1 7841   9.407  11.065   9.904  0.1189 -0.0064 -0.1006
  491loPI    C2 7842   9.144  11.208   9.639 -0.0047 -0.2770 -0.1267
  491loPI    C3 7843   9.084  11.265  10.030  0.3165  0.3574 -0.1582
  491loPI   PO4 7844   9.583  11.189   9.933  0.1815  0.0043  0.2315
  491loPI   GL1 7845   9.691  11.380   9.517  0.1815  0.1177 -0.1738
  491loPI   GL2 7846   9.757  11.094   9.506  0.0341  0.0148  0.0223
  491loPI   C1A 7847   9.689  11.531   9.084 -0.0513 -0.0105  0.3536
  491loPI   C2A 7848   9.809  11.491   8.755 -0.0713  0.0425 -0.4015
  491loPI   C3A 7849  10.038  11.669   8.364 -0.0962  0.1358  0.1673
  491loPI   C4A 7850  10.266  11.810   7.960 -0.2043  0.1013 -0.2021
  491loPI   C5A 7851  10.261  12.108   7.681 -0.4341  0.1937 -0.3284
  491loPI   C6A 7852  10.638  12.384   7.670  0.1766  0.1101 -0.1544
  491loPI   C1B 7853   9.775  10.676   9.126  0.0684  0.0881  0.2818
  491loPI   C2B 7854   9.915  10.734   8.703 -0.1016  0.0341 -0.2058
  491loPI   C3B 7855  10.025  10.995   8.449  0.0127  0.0749  0.3109
  491loPI   C4B 7856   9.914  11.304   8.048 -0.0750  0.1892  0.1720
  492loPI    C1 7857  14.138  13.666  10.222 -0.0360 -0.0490 -0.1035
  492loPI    C2 7858  14.455  13.694   9.979  0.0007  0.1300 -0.0365
  492loPI    C3 7859  14.496  13.765  10.370 -0.1576  0.3341 -0.0554
  492loPI   PO4 7860  14.030  13.428  10.186  0.0570 -0.3677  0.1003
  492loPI   GL1 7861  13.974  13.364   9.662 -0.0599 -0.1368  0.1218
  492loPI   GL2 7862  14.307  13.424   9.514 -0.0180 -0.1179 -0.0571
  492loPI   C1A 7863  13.905  13.219   9.270  0.1276  0.2417  0.0946
  492loPI   C2A 7864  14.107  13.294   8.801  0.3019 -0.1224  0.0564
  492loPI   C3A 7865  14.401  13.353   8.414 -0.1097  0.3010 -0.0080
  492loPI   C4A 7866  14.415  13.570   8.059 -0.0273  0.1618  0.0857
  492loPI   C5A 7867  14.120  13.896   7.807  0.2016  0.2205  0.2765
  492loPI   C6A 7868  13.692  13.996   7.692 -0.2050 -0.2725 -0.0447
  492loPI   C1B 7869  14.541  13.403   9.184 -0.0930 -0.1149 -0.1685
  492loPI   C2B 7870  14.766  13.291   8.778  0.0334 -0.0704  0.2166
  492loPI   C3B 7871  14.914  13.285   8.328  0.2238 -0.1120  0.0817
  492loPI   C4B 7872  15.041  13.016   8.036 -0.0007  0.0353 -0.2561
  493loPI    C1 7873   4.911  10.983  10.113 -0.2139 -0.0801  0.0759
  493loPI    C2 7874   4.886  11.072  10.503 -0.0714  0.0097  0.0653
  493loPI    C3 7875   4.988  11.355  10.239 -0.0230 -0.0862 -0.0193
  493loPI   PO4 7876   5.062  10.767  10.030  0.0434  0.0829  0.0036
  493loPI   GL1 7877   5.231  10.623   9.668  0.0233 -0.2755  0.1844
  493loPI   GL2 7878   4.929  10.609   9.396 -0.4450  0.2973 -0.0542
  493loPI   C1A 7879   5.354  10.927   9.313 -0.1626  0.3169 -0.1735
  493loPI   C2A 7880   5.311  11.133   9.055  0.1258 -0.3662  0.0949
  493loPI   C3A 7881   5.448  11.305   8.656 -0.1901 -0.0207  0.0101
  493loPI   C4A 7882   5.280  11.245   8.271  0.0167 -0.3096 -0.0843
  493loPI   C5A 7883   5.301  11.539   7.945  0.0704 -0.0908 -0.1276
  493loPI   C6A 7884   5.506  11.833   7.856  0.0773 -0.0388 -0.1505
  493loPI   C1B 7885   5.008  10.761   8.999 -0.1212  0.4488  0.0656
  493loPI   C2B 7886   4.973  11.058   8.665  0.1926 -0.2465 -0.0458
  493loPI   C3B 7887   4.960  10.837   8.203  0.1197 -0.3282  0.1490
  493loPI   C4B 7888   5.089  10.758   7.891 -0.2127 -0.1052  0.1436
  494loPI    C1 7889   4.711  18.093  10.412 -0.0494 -0.0107  0.0539
  494loPI    C2 7890   4.844  17.717  10.446  0.2326  0.0816 -0.0034
  494loPI    C3 7891   4.941  17.990  10.722 -0.1949  0.0524  0.1841
  494loPI   PO4 7892   4.726  18.153  10.160  0.1688  0.0929 -0.2491
  494loPI   GL1 7893   4.889  18.116   9.662  0.0117  0.0692 -0.0556
  494loPI   GL2 7894   5.174  18.322   9.886  0.2034  0.0775 -0.0848
  494loPI   C1A 7895   4.880  18.101   9.196  0.0769  0.4028 -0.0893
  494loPI   C2A 7896   4.743  18.039   8.792  0.5133 -0.2937  0.0030
  494loPI   C3A 7897   4.593  18.028   8.469  0.1806 -0.2320  0.0277
  494loPI   C4A 7898   4.442  17.860   8.130 -0.1217 -0.4193 -0.0556
  494loPI   C5A 7899   4.139  17.814   7.836  0.0191  0.0025  0.0424
  494loPI   C6A 7900   3.796  18.079   7.744  0.0412 -0.2101  0.1029
  494loPI   C1B 7901   5.117  18.465   9.434  0.3668 -0.0946 -0.0122
  494loPI   C2B 7902   5.045  18.519   9.009 -0.1732 -0.1426 -0.1501
  494loPI   C3B 7903   4.984  18.368   8.560 -0.1963 -0.2110 -0.1558
  494loPI   C4B 7904   4.911  18.297   8.208  0.2725 -0.0800  0.3146
  495loPI    C1 7905  14.819  14.902   9.954 -0.0459 -0.0364  0.1937
  495loPI    C2 7906  14.471  14.712  10.010 -0.1328  0.0968  0.1096
  495loPI    C3 7907  14.645  14.905  10.314 -0.0374 -0.1263  0.1989
  495loPI   PO4 7908  14.954  14.754   9.878 -0.2660  0.0921 -0.0889
  495loPI   GL1 7909  15.237  14.552   9.597 -0.1198  0.1685 -0.1427
  495loPI   GL2 7910  15.003  14.758   9.407  0.1814  0.2445  0.0479
  495loPI   C1A 7911  15.475  14.575   9.199  0.2181  0.0343  0.0079
  495loPI   C2A 7912  15.474  14.533   8.839 -0.0401  0.2506 -0.0180
  495loPI   C3A 7913  15.468  14.501   8.384  0.2327  0.2384 -0.3546
  495loPI   C4A 7914  15.426  14.487   7.896 -0.1061 -0.1110  0.0938
  495loPI   C5A 7915  15.389  14.421   7.490 -0.0154  0.3780  0.0393
  495loPI   C6A 7916  15.158  14.624   7.119 -0.1588  0.0799 -0.1026
  495loPI   C1B 7917  15.138  14.994   9.051 -0.0747 -0.0848  0.4363
  495loPI   C2B 7918  15.218  14.914   8.565  0.3092 -0.2062 -0.0417
  495loPI   C3B 7919  15.221  14.894   8.165  0.0387 -0.1502 -0.0627
  495loPI   C4B 7920  15.142  14.843   7.656  0.2709  0.2422  0.0658
  496loPI    C1 7921  14.751  12.043  10.158 -0.0863 -0.0297  0.0182
  496loPI    C2 7922  14.626  12.231  10.489  0.0659 -0.2258  0.1902
  496loPI    C3 7923  14.427  11.913  10.352 -0.0065 -0.1351  0.0820
  496loPI   PO4 7924  14.800  12.286  10.031  0.2533 -0.1556  0.1824
  496loPI   GL1 7925  14.838  12.220   9.623  0.1531 -0.0206  0.0361
  496loPI   GL2 7926  15.067  12.438   9.439 -0.5726  0.1458 -0.1579
  496loPI   C1A 7927  14.614  11.990   9.317 -0.0242  0.4342 -0.0170
  496loPI   C2A 7928  14.683  11.788   8.918 -0.0998  0.1336  0.2935
  496loPI   C3A 7929  14.508  11.941   8.517  0.0356 -0.4265 -0.2432
  496loPI   C4A 7930  14.541  12.309   8.169  0.0992  0.0883 -0.0841
  496loPI   C5A 7931  14.563  12.518   7.756  0.1336  0.1503  0.1486
  496loPI   C6A 7932  14.712  12.702   7.404  0.1496  0.1472 -0.0983
  496loPI   C1B 7933  15.072  12.191   9.084 -0.1234  0.2998  0.1260
  496loPI   C2B 7934  15.030  12.088   8.597  0.1695 -0.0357 -0.1276
  496loPI   C3B 7935  14.984  11.992   8.139 -0.0036  0.0943  0.2632
  496loPI   C4B 7936  14.879  12.133   7.717 -0.2396  0.0105 -0.1268
  497loPI    C1 7937   3.342  10.785   9.618  0.0808  0.0652  0.0193
  497loPI    C2 7938   3.368  10.649   9.994  0.0163  0.0355  0.0132
  497loPI    C3 7939   3.483  11.023   9.907  0.3631 -0.0714 -0.0027
  497loPI   PO4 7940   3.524  10.598   9.455  0.0801  0.1835  0.0424
  497loPI   GL1 7941   3.818  10.359   9.153  0.0455 -0.3221 -0.5144
  497loPI   GL2 7942   4.070  10.559   9.072  0.2555 -0.0314 -0.2770
  497loPI   C1A 7943   3.744  10.249   8.584 -0.3615  0.0685 -0.1914
  497loPI   C2A 7944   3.847  10.007   8.289  0.0540  0.3413 -0.1211
  497loPI   C3A 7945   3.687   9.818   7.928 -0.1095 -0.2529 -0.0080
  497loPI   C4A 7946   3.668   9.758   7.475  0.1125 -0.0581  0.2488
  497loPI   C5A 7947   3.487   9.677   7.048 -0.1333  0.0842  0.2134
  497loPI   C6A 7948   3.409   9.458   6.590 -0.2363  0.0273 -0.1501
  497loPI   C1B 7949   4.014  10.662   8.696  0.1964 -0.1105  0.3203
  497loPI   C2B 7950   4.028  10.586   8.218 -0.1566  0.1306  0.1902
  497loPI   C3B 7951   3.987  10.747   7.877  0.1869  0.1244 -0.2038
  497loPI   C4B 7952   3.796  10.665   7.556  0.0637 -0.1095 -0.0648
  498loPI    C1 7953   4.277   4.178  10.314 -0.0786 -0.0474 -0.2867
  498loPI    C2 7954   4.427   3.877  10.531 -0.1122  0.0435 -0.1358
  498loPI    C3 7955   4.055   3.852  10.385 -0.1651  0.0688 -0.0073
  498loPI   PO4 7956   4.439   4.299  10.082 -0.2082  0.3306  0.2862
  498loPI   GL1 7957   4.469   4.293   9.510 -0.1148  0.1144  0.1608
  498loPI   GL2 7958   4.249   4.489   9.494  0.0474  0.0438 -0.0391
  498loPI   C1A 7959   4.482   4.077   9.149 -0.3518  0.1096 -0.0145
  498loPI   C2A 7960   4.620   3.802   8.814  0.0113 -0.0682 -0.1669
  498loPI   C3A 7961   5.017   3.922   8.683  0.0518 -0.0568 -0.1557
  498loPI   C4A 7962   5.223   3.649   8.375  0.1206  0.0232  0.2115
  498loPI   C5A 7963   5.325   3.682   7.995  0.0617  0.1036 -0.2106
  498loPI   C6A 7964   5.265   4.002   7.586 -0.3335  0.1040 -0.0713
  498loPI   C1B 7965   4.008   4.262   9.187 -0.3127  0.2843 -0.1777
  498loPI   C2B 7966   3.798   4.380   8.853 -0.0275  0.2789  0.0848
  498loPI   C3B 7967   3.882   4.543   8.480 -0.1406 -0.1766 -0.1159
  498loPI   C4B 7968   3.778   4.845   8.188 -0.0771 -0.1701  0.1666
  499loPI    C1 7969   3.319   0.253   9.958  0.0310  0.0931  0.1700
  499loPI    C2 7970   3.074  -0.025   9.807  0.2999 -0.0170 -0.0720
  499loPI    C3 7971   3.195  -0.050  10.187  0.0068 -0.0089  0.0236
  499loPI   PO4 7972   3.288   0.438   9.692  0.1874  0.2120 -0.2907
  499loPI   GL1 7973   3.233   0.364   9.260 -0.2197  0.0625 -0.0389
  499loPI   GL2 7974   3.448   0.414   8.879  0.1868  0.1377  0.4053
  499loPI   C1A 7975   2.949   0.094   8.981 -0.0951  0.2370 -0.1503
  499loPI   C2A 7976   2.701  -0.048   8.638  0.0294 -0.0009  0.2460
  499loPI   C3A 7977   2.678  -0.058   8.202  0.1986  0.4357 -0.0167
  499loPI   C4A 7978   2.792  -0.175   7.738  0.1554  0.0099  0.0325
  499loPI   C5A 7979   2.715  -0.359   7.292 -0.0106 -0.1714 -0.0498
  499loPI   C6A 7980   2.678  -0.790   7.143 -0.3212 -0.1702 -0.1161
  499loPI   C1B 7981   3.143   0.226   8.557  0.0864  0.0856  0.1696
  499loPI   C2B 7982   3.012   0.282   8.063  0.3485  0.3398 -0.2393
  499loPI   C3B 7983   2.859   0.648   7.892  0.1296 -0.0199 -0.1286
  499loPI   C4B 7984   3.009   1.085   7.822  0.0715  0.0513 -0.2433
  500loPI    C1 7985  11.786  11.291  10.364  0.0520 -0.0375 -0.0436
  500loPI    C2 7986  11.554  10.973  10.434 -0.0225 -0.0226 -0.2192
  500loPI    C3 7987  11.666  11.209  10.737 -0.1384 -0.0975 -0.1172
  500loPI   PO4 7988  11.754  11.355  10.199  0.3326  0.2334  0.1099
  500loPI   GL1 7989  11.865  11.427   9.810  0.0090  0.0020 -0.1013
  500loPI   GL2 7990  11.735  11.751   9.636 -0.4130  0.1551  0.1648
  500loPI   C1A 7991  11.634  11.292   9.415  0.4070  0.0084  0.0878
  500loPI   C2A 7992  11.787  11.209   9.056 -0.3528  0.3319 -0.0869
  500loPI   C3A 7993  12.190  11.105   8.801  0.2416  0.0310  0.0073
  500loPI   C4A 7994  12.579  11.158   8.477  0.1117  0.0228 -0.2877
  500loPI   C5A 7995  12.584  10.897   8.074 -0.1526  0.0722 -0.0047
  500loPI   C6A 7996  12.684  10.641   7.741 -0.2161 -0.1407 -0.0089
  500loPI   C1B 7997  11.954  11.707   9.218  0.1793  0.0488 -0.2000
  500loPI   C2B 7998  12.130  11.611   8.842  0.1205 -0.3783 -0.1384
  500loPI   C3B 7999  12.158  11.568   8.439  0.2202 -0.0469  0.0262
  500loPI   C4B 8000  12.151  11.729   7.938 -0.0692 -0.3126  0.4312
  501loPI    C1 8001   6.586   5.185  10.301 -0.0707 -0.1679 -0.1114
  501loPI    C2 8002   6.840   4.879  10.344  0.1775  0.0218 -0.2038
  501loPI    C3 8003   6.761   5.118  10.655  0.0003 -0.1211 -0.1374
  501loPI   PO4 8004   6.673   5.269  10.059 -0.0980 -0.1423 -0.3537
  501loPI   GL1 8005   6.555   5.168   9.627  0.3961 -0.3549  0.1298
  501loPI   GL2 8006   6.217   5.070   9.745 -0.0717 -0.2736  0.0488
  501loPI   C1A 8007   6.777   4.961   9.406  0.0034  0.2049  0.2859
  501loPI   C2A 8008   6.848   4.946   8.924  0.2442 -0.2646  0.6841
  501loPI   C3A 8009   7.061   4.990   8.602 -0.0423  0.0592 -0.4252
  501loPI   C4A 8010   7.186   4.923   8.300  0.2032 -0.0872 -0.0838
  501loPI   C5A 8011   7.336   4.933   7.933 -0.1789 -0.2513 -0.2036
  501loPI   C6A 8012   7.148   4.907   7.568 -0.2346 -0.1818  0.3256
  501loPI   C1B 8013   6.306   4.866   9.351  0.1061  0.0401 -0.1313
  501loPI   C2B 8014   6.014   4.719   9.023  0.1702  0.0349  0.2219
  501loPI   C3B 8015   6.022   4.887   8.620  0.2757 -0.1560 -0.1079
  501loPI   C4B 8016   6.119   4.990   8.254  0.3097  0.1098 -0.0476
  502loPI    C1 8017  12.105  12.328  10.269  0.1105  0.0785 -0.1254
  502loPI    C2 8018  12.074  12.635  10.523  0.2924  0.0811 -0.1046
  502loPI    C3 8019  12.222  12.285  10.649 -0.0273 -0.0555 -0.0970
  502loPI   PO4 8020  12.185  12.545  10.047 -0.0331  0.0361  0.3807
  502loPI   GL1 8021  12.462  12.492   9.705 -0.2750 -0.2133 -0.0370
  502loPI   GL2 8022  12.338  12.779   9.575 -0.1644 -0.1221 -0.0389
  502loPI   C1A 8023  12.588  12.404   9.317 -0.3601  0.1902  0.2570
  502loPI   C2A 8024  12.495  12.584   8.873 -0.0193 -0.0572 -0.2779
  502loPI   C3A 8025  12.279  12.578   8.555  0.1929 -0.3154 -0.0850
  502loPI   C4A 8026  12.204  12.471   8.153 -0.4681  0.0516  0.1412
  502loPI   C5A 8027  12.350  12.296   7.758  0.0428  0.1536 -0.2453
  502loPI   C6A 8028  12.112  12.015   7.445  0.1272  0.2378 -0.1439
  502loPI   C1B 8029  12.305  12.881   9.215 -0.2172  0.0249 -0.3457
  502loPI   C2B 8030  12.192  13.002   8.749 -0.1128 -0.0599 -0.2823
  502loPI   C3B 8031  12.176  12.983   8.246 -0.0197  0.0531 -0.3025
  502loPI   C4B 8032  12.291  12.844   7.819  0.0782  0.1576 -0.2053
  503loPI    C1 8033   9.701   0.601  10.621 -0.0439 -0.0125 -0.0467
  503loPI    C2 8034   9.872   0.625  10.260  0.1667 -0.0803  0.0470
  503loPI    C3 8035  10.096   0.658  10.590 -0.0368  0.0675  0.1726
  503loPI   PO4 8036   9.500   0.759  10.660 -0.1023  0.1119 -0.1606
  503loPI   GL1 8037   9.361   0.921  10.334  0.1173  0.0038  0.2161
  503loPI   GL2 8038   9.392   0.583  10.169  0.3447 -0.1482 -0.1482
  503loPI   C1A 8039   9.285   0.974   9.910 -0.1900  0.0082  0.1829
  503loPI   C2A 8040   9.496   0.968   9.408 -0.0553 -0.0499  0.2049
  503loPI   C3A 8041   9.645   0.966   9.012 -0.2325 -0.1808  0.1770
  503loPI   C4A 8042   9.566   1.031   8.673 -0.0636  0.0394  0.1200
  503loPI   C5A 8043   9.599   0.785   8.226 -0.0369 -0.0270 -0.0011
  503loPI   C6A 8044   9.552   0.424   8.000  0.1381  0.1269  0.0662
  503loPI   C1B 8045   9.310   0.520   9.661 -0.2335 -0.3549  0.0349
  503loPI   C2B 8046   9.378   0.577   9.179  0.0482  0.0005  0.2423
  503loPI   C3B 8047   9.396   0.532   8.760 -0.0410  0.1089  0.2262
  503loPI   C4B 8048   9.170   0.403   8.352  0.1317  0.1545 -0.0863
  504loPI    C1 8049  14.117  16.914  10.515  0.0641  0.0868 -0.0656
  504loPI    C2 8050  13.880  16.592  10.523  0.0623  0.0869 -0.1088
  504loPI    C3 8051  14.152  16.648  10.812  0.2682 -0.1078 -0.2607
  504loPI   PO4 8052  14.167  16.908  10.211  0.0759  0.0755  0.1438
  504loPI   GL1 8053  14.294  17.180   9.935  0.1616 -0.0660 -0.2291
  504loPI   GL2 8054  14.184  17.570   9.755 -0.0130  0.1310  0.0305
  504loPI   C1A 8055  14.354  17.146   9.473 -0.1329 -0.2480 -0.2273
  504loPI   C2A 8056  14.496  17.138   8.997 -0.1657 -0.2172  0.1651
  504loPI   C3A 8057  14.425  17.132   8.656 -0.1796 -0.1642  0.0585
  504loPI   C4A 8058  14.384  16.954   8.374  0.0822 -0.1608  0.1252
  504loPI   C5A 8059  14.512  17.066   7.938  0.0235  0.1536 -0.1060
  504loPI   C6A 8060  14.590  16.948   7.529 -0.2052 -0.1915  0.0375
  504loPI   C1B 8061  14.126  17.598   9.349  0.2194  0.2968  0.0973
  504loPI   C2B 8062  14.193  17.596   8.948  0.0480  0.1302  0.0248
  504loPI   C3B 8063  14.191  17.592   8.564 -0.0910  0.1610 -0.2294
  504loPI   C4B 8064  14.145  17.484   8.177  0.2792 -0.2004  0.1567
  505loPI    C1 8065   1.500  17.589  10.338  0.1439 -0.0992 -0.0375
  505loPI    C2 8066   1.735  17.709  10.639  0.0506  0.0863 -0.0378
  505loPI    C3 8067   1.374  17.554  10.716  0.1311 -0.1050 -0.0423
  505loPI   PO4 8068   1.451  17.858  10.039  0.2689 -0.3025  0.0063
  505loPI   GL1 8069   1.400  17.891   9.670 -0.0351  0.1506 -0.2143
  505loPI   GL2 8070   1.653  17.570   9.627 -0.0844 -0.0315  0.1356
  505loPI   C1A 8071   1.703  17.967   9.338 -0.3986  0.2859  0.1973
  505loPI   C2A 8072   2.022  17.767   9.129 -0.2987  0.0330  0.0529
  505loPI   C3A 8073   2.177  18.158   8.871  0.1416  0.1288  0.1038
  505loPI   C4A 8074   2.273  18.407   8.627 -0.0604  0.2534 -0.0436
  505loPI   C5A 8075   2.296  18.378   8.189 -0.1734  0.0002  0.1664
  505loPI   C6A 8076   2.324  18.515   7.748  0.1341 -0.0218 -0.2852
  505loPI   C1B 8077   1.509  17.502   9.197 -0.0819  0.1936  0.0161
  505loPI   C2B 8078   1.394  17.399   8.888  0.1461  0.1191  0.0430
  505loPI   C3B 8079   1.366  17.046   8.479  0.3447  0.2550 -0.0489
  505loPI   C4B 8080   1.244  16.944   8.150  0.1817 -0.1638  0.1597
  506loPI    C1 8081   0.122  10.197   9.732 -0.0757 -0.4767  0.0943
  506loPI    C2 8082   0.389  10.264  10.022  0.1049  0.1624 -0.2029
  506loPI    C3 8083  -0.001  10.323  10.091  0.1167  0.0194 -0.0064
  506loPI   PO4 8084   0.169  10.311   9.505  0.0526  0.2482  0.3297
  506loPI   GL1 8085   0.356  10.231   9.164 -0.0023 -0.0882  0.3446
  506loPI   GL2 8086   0.642  10.379   9.264 -0.0246  0.0588 -0.2045
  506loPI   C1A 8087   0.382  10.332   8.789  0.2332  0.0159 -0.2172
  506loPI   C2A 8088   0.517  10.368   8.362  0.1901 -0.1478 -0.1086
  506loPI   C3A 8089   0.301  10.159   7.968 -0.0641 -0.1257 -0.0721
  506loPI   C4A 8090   0.085  10.281   7.546 -0.2083  0.0069 -0.0485
  506loPI   C5A 8091  -0.243  10.427   7.483  0.0011 -0.0714 -0.2957
  506loPI   C6A 8092  -0.579  10.711   7.392 -0.0257  0.0436  0.2766
  506loPI   C1B 8093   0.890  10.681   9.036  0.1232  0.0792 -0.0729
  506loPI   C2B 8094   0.938  10.888   8.795 -0.3673  0.1099  0.0662
  506loPI   C3B 8095   1.128  11.134   8.537  0.4107  0.0041  0.3218
  506loPI   C4B 8096   0.947  11.297   8.218  0.2200 -0.2292  0.0010
  507loPI    C1 8097  12.217  17.493  10.223  0.0120  0.1546 -0.1622
  507loPI    C2 8098  12.261  17.112  10.334 -0.0759  0.1877 -0.0116
  507loPI    C3 8099  12.571  17.313  10.181 -0.0853 -0.0083 -0.2949
  507loPI   PO4 8100  12.012  17.523  10.109  0.0805 -0.0890 -0.0385
  507loPI   GL1 8101  11.958  17.491   9.665  0.1960 -0.0794 -0.1767
  507loPI   GL2 8102  11.976  17.201   9.429 -0.1105  0.0615  0.1041
  507loPI   C1A 8103  12.024  17.692   9.317  0.0204  0.1843  0.6211
  507loPI   C2A 8104  12.008  17.646   8.857  0.2308 -0.0690 -0.0131
  507loPI   C3A 8105  11.951  17.499   8.447 -0.2217 -0.0589 -0.1763
  507loPI   C4A 8106  12.052  17.674   7.992 -0.2769 -0.0406 -0.1235
  507loPI   C5A 8107  11.702  17.818   7.748  0.0872  0.1221  0.0064
  507loPI   C6A 8108  11.432  17.958   7.393 -0.2399  0.1438  0.0434
  507loPI   C1B 8109  12.055  17.074   9.017  0.2454  0.0264  0.0230
  507loPI   C2B 8110  11.745  17.065   8.714 -0.1477 -0.1202 -0.3021
  507loPI   C3B 8111  11.718  17.015   8.297  0.0063 -0.0833  0.0980
  507loPI   C4B 8112  11.795  17.181   7.905 -0.0133  0.1397 -0.0169
  508loPI    C1 8113   3.680  15.253  10.103  0.0364 -0.2378  0.0037
  508loPI    C2 8114   3.921  15.134  10.398  0.1151  0.0247  0.0484
  508loPI    C3 8115   3.623  15.389  10.475 -0.0450 -0.1311 -0.0471
  508loPI   PO4 8116   3.745  15.067   9.956  0.0038  0.0584  0.1873
  508loPI   GL1 8117   3.474  14.882   9.735  0.2242  0.2453 -0.1157
  508loPI   GL2 8118   3.180  14.873   9.739 -0.1311 -0.3635  0.3004
  508loPI   C1A 8119   3.361  15.148   9.383 -0.2521 -0.1207  0.0130
  508loPI   C2A 8120   3.458  15.400   9.124 -0.3148 -0.1985 -0.1180
  508loPI   C3A 8121   3.490  15.496   8.688 -0.2025  0.2050 -0.2509
  508loPI   C4A 8122   3.550  15.448   8.290  0.1703  0.2213  0.3019
  508loPI   C5A 8123   3.649  15.664   7.850  0.0487 -0.2551 -0.2567
  508loPI   C6A 8124   3.258  15.882   7.834 -0.1920  0.5658  0.0430
  508loPI   C1B 8125   3.381  14.636   9.342  0.0405  0.0041 -0.1283
  508loPI   C2B 8126   3.432  14.793   8.907 -0.1047 -0.3679 -0.0646
  508loPI   C3B 8127   3.425  15.041   8.553 -0.1083 -0.1227 -0.2613
  508loPI   C4B 8128   3.340  14.983   8.198  0.0238  0.0414 -0.3082
  509loPI    C1 8129  10.314  14.641  10.279 -0.2250 -0.0412  0.2025
  509loPI    C2 8130  10.517  14.566  10.615 -0.1555 -0.1802  0.1306
  509loPI    C3 8131  10.152  14.413  10.565 -0.0252 -0.4527 -0.0040
  509loPI   PO4 8132  10.473  14.556  10.062  0.2391 -0.1476 -0.1562
  509loPI   GL1 8133  10.572  14.562   9.599  0.0862  0.2300 -0.0276
  509loPI   GL2 8134  10.728  14.881   9.725 -0.1316 -0.1270 -0.1162
  509loPI   C1A 8135  10.668  14.727   9.261 -0.0815 -0.2039  0.1079
  509loPI   C2A 8136  10.562  14.755   8.918  0.0235  0.0133 -0.0749
  509loPI   C3A 8137  10.524  14.570   8.565 -0.0098  0.2020  0.1641
  509loPI   C4A 8138  10.594  14.430   8.215 -0.0052  0.0169 -0.2186
  509loPI   C5A 8139  10.502  14.405   7.733  0.0268  0.1147  0.2269
  509loPI   C6A 8140  10.637  14.122   7.412 -0.3725 -0.0331  0.1173
  509loPI   C1B 8141  10.939  15.162   9.396 -0.0575 -0.3994  0.0181
  509loPI   C2B 8142  11.016  15.101   8.955 -0.2721  0.1726 -0.0201
  509loPI   C3B 8143  10.833  15.016   8.567 -0.1232  0.1415  0.2186
  509loPI   C4B 8144  10.456  14.963   8.154  0.2448 -0.1346 -0.0681
  510loPI    C1 8145   0.316  17.486  10.162 -0.1733 -0.2137 -0.2749
  510loPI    C2 8146   0.215  17.123  10.295 -0.1059 -0.1830 -0.1384
  510loPI    C3 8147   0.283  17.419  10.555 -0.2436 -0.0500 -0.2522
  510loPI   PO4 8148   0.500  17.460  10.024  0.1590 -0.2685 -0.1237
  510loPI   GL1 8149   0.629  17.250   9.608 -0.0694 -0.2886  0.3620
  510loPI   GL2 8150   0.884  17.257   9.651  0.1209  0.2092  0.0537
  510loPI   C1A 8151   0.568  17.417   9.166  0.2606 -0.3046  0.3592
  510loPI   C2A 8152   0.571  17.487   8.752  0.2881  0.1411  0.3361
  510loPI   C3A 8153   0.337  17.639   8.421 -0.0874  0.0396  0.2303
  510loPI   C4A 8154  -0.038  17.812   8.099 -0.2147  0.0009  0.2607
  510loPI   C5A 8155  -0.337  17.565   7.847 -0.0012  0.1993  0.1581
  510loPI   C6A 8156  -0.223  17.163   7.855  0.2609  0.0610  0.0597
  510loPI   C1B 8157   1.032  17.126   9.218 -0.1652  0.1699  0.0732
  510loPI   C2B 8158   0.939  17.094   8.735  0.3399 -0.0172 -0.2283
  510loPI   C3B 8159   0.785  17.264   8.296  0.1026 -0.2048 -0.1070
  510loPI   C4B 8160   1.137  17.414   7.893  0.0677 -0.3218 -0.3334
  511loPI    C1 8161  14.796  16.797  10.321  0.1897 -0.2594  0.1268
  511loPI    C2 8162  14.658  16.889  10.685  0.0161  0.0445 -0.0117
  511loPI    C3 8163  14.498  16.583  10.482  0.0600 -0.0763  0.1332
  511loPI   PO4 8164  14.820  17.038  10.204 -0.1872 -0.3133 -0.2024
  511loPI   GL1 8165  14.803  17.295   9.806 -0.0924  0.1285  0.0912
  511loPI   GL2 8166  14.686  17.573   9.771  0.3375  0.0908 -0.0781
  511loPI   C1A 8167  14.812  17.195   9.348 -0.2182 -0.0710  0.0976
  511loPI   C2A 8168  15.010  17.215   8.906 -0.1637  0.1256 -0.1974
  511loPI   C3A 8169  14.945  17.150   8.498  0.2488 -0.0390 -0.0146
  511loPI   C4A 8170  15.077  17.143   8.045  0.1612  0.0500  0.2795
  511loPI   C5A 8171  14.986  16.744   7.948  0.1315 -0.1590 -0.1271
  511loPI   C6A 8172  14.846  16.525   7.560  0.2030  0.0848  0.2919
  511loPI   C1B 8173  14.572  17.758   9.459 -0.0983 -0.2290  0.0362
  511loPI   C2B 8174  14.730  17.565   9.054  0.1769  0.1260 -0.0791
  511loPI   C3B 8175  14.713  17.627   8.637 -0.4856 -0.3069 -0.1887
  511loPI   C4B 8176  14.596  17.473   8.302 -0.2504  0.0188  0.0420
  512loPI    C1 8177  16.639   4.325  10.144  0.1133  0.1138  0.0891
  512loPI    C2 8178  16.417   4.021  10.011  0.1374  0.1343  0.0016
  512loPI    C3 8179  16.282   4.250  10.310  0.1128  0.0469  0.0579
  512loPI   PO4 8180  16.713   4.474   9.885  0.0155  0.0579  0.1497
  512loPI   GL1 8181  16.688   4.345   9.512 -0.1262 -0.0056  0.2510
  512loPI   GL2 8182  16.654   4.053   9.465  0.0243  0.3100 -0.2530
  512loPI   C1A 8183  16.296   4.573   9.216  0.1410  0.1459  0.2326
  512loPI   C2A 8184  16.181   4.581   8.837  0.1850 -0.3235 -0.3801
  512loPI   C3A 8185  16.304   4.416   8.400 -0.1388  0.1464  0.1066
  512loPI   C4A 8186  16.469   4.449   7.963 -0.2845  0.2136 -0.3686
  512loPI   C5A 8187  16.484   4.284   7.623  0.0117  0.0808 -0.2558
  512loPI   C6A 8188  16.531   4.084   7.251 -0.1493 -0.1162  0.0068
  512loPI   C1B 8189  16.499   4.017   9.178 -0.0908  0.0088  0.0727
  512loPI   C2B 8190  16.554   4.175   8.747  0.1876 -0.2002 -0.2918
  512loPI   C3B 8191  16.765   4.202   8.365  0.0511 -0.2185 -0.4178
  512loPI   C4B 8192  16.954   3.986   8.087  0.0537 -0.2818 -0.1588
  513loPI    C1 8193  17.418  17.277  10.083  0.1234  0.0952  0.0155
  513loPI    C2 8194  17.183  17.115  10.364  0.0351  0.0741 -0.0698
  513loPI    C3 8195  17.569  17.187  10.443  0.0674 -0.1473 -0.0200
  513loPI   PO4 8196  17.186  17.527   9.904 -0.2082  0.1801  0.1700
  513loPI   GL1 8197  17.289  17.711   9.564  0.0288 -0.0056 -0.0748
  513loPI   GL2 8198  16.985  17.913   9.395 -0.0345 -0.3239 -0.4186
  513loPI   C1A 8199  17.259  17.619   9.187 -0.2010 -0.0082  0.0935
  513loPI   C2A 8200  17.194  17.545   8.738  0.0255 -0.0663  0.1778
  513loPI   C3A 8201  17.097  17.692   8.377  0.0121 -0.0385 -0.0257
  513loPI   C4A 8202  16.901  18.067   8.278 -0.0349 -0.1993  0.0661
  513loPI   C5A 8203  16.781  18.222   7.858  0.3283  0.0232 -0.0741
  513loPI   C6A 8204  16.622  18.394   7.550 -0.1614  0.0986 -0.0903
  513loPI   C1B 8205  16.652  17.923   9.012 -0.2523 -0.2271  0.1020
  513loPI   C2B 8206  16.646  17.690   8.697  0.1356 -0.1672 -0.0166
  513loPI   C3B 8207  16.504  17.546   8.281  0.4334 -0.0798 -0.2463
  513loPI   C4B 8208  16.860  17.408   8.029  0.1155 -0.0213 -0.0382
  514loPI    C1 8209   3.467  17.951  10.061 -0.0079  0.1174 -0.0024
  514loPI    C2 8210   3.736  18.248  10.055  0.0372  0.0747 -0.1418
  514loPI    C3 8211   3.844  17.883  10.177 -0.0194  0.1157  0.0336
  514loPI   PO4 8212   3.417  17.884   9.836 -0.0791 -0.0924  0.1658
  514loPI   GL1 8213   3.453  18.056   9.406  0.2046 -0.1471 -0.0206
  514loPI   GL2 8214   3.667  18.248   9.554  0.0193  0.0126 -0.4936
  514loPI   C1A 8215   3.571  18.304   9.080 -0.0832  0.1133  0.3564
  514loPI   C2A 8216   3.615  18.109   8.646  0.0292  0.2048 -0.4902
  514loPI   C3A 8217   3.523  17.988   8.184  0.2412 -0.2810 -0.0838
  514loPI   C4A 8218   3.337  18.092   7.903 -0.1889 -0.0852 -0.0536
  514loPI   C5A 8219   2.998  18.140   7.639  0.0528  0.1709 -0.1419
  514loPI   C6A 8220   2.584  18.113   7.602 -0.1066  0.0841 -0.0029
  514loPI   C1B 8221   3.928  17.930   9.343 -0.0842  0.1913 -0.0250
  514loPI   C2B 8222   3.861  17.706   8.926  0.0519 -0.2796 -0.0179
  514loPI   C3B 8223   3.683  17.544   8.491  0.1142  0.1088  0.0215
  514loPI   C4B 8224   3.981  17.551   8.205  0.3029 -0.1196 -0.2496
  515loPI    C1 8225   2.095  16.991  10.779 -0.1623 -0.1404 -0.0799
  515loPI    C2 8226   2.299  17.026  11.121  0.0717 -0.2078 -0.2101
  515loPI    C3 8227   1.931  16.870  11.123  0.0326 -0.1171  0.0228
  515loPI   PO4 8228   2.275  16.993  10.589  0.0828 -0.3757  0.2822
  515loPI   GL1 8229   2.305  17.173  10.115 -0.0614  0.3523  0.0719
  515loPI   GL2 8230   2.225  17.114   9.797 -0.1564  0.1406  0.0302
  515loPI   C1A 8231   2.771  17.089   9.913  0.0332 -0.0960  0.3998
  515loPI   C2A 8232   2.963  17.376   9.601 -0.0639  0.2176  0.0723
  515loPI   C3A 8233   3.173  17.556   9.316  0.2106 -0.2183 -0.1710
  515loPI   C4A 8234   3.421  17.611   9.055 -0.1615  0.1171  0.0728
  515loPI   C5A 8235   3.220  17.707   8.628 -0.1420  0.2246 -0.1880
  515loPI   C6A 8236   3.007  17.893   8.349 -0.2059 -0.0107 -0.1499
  515loPI   C1B 8237   2.597  17.035   9.458 -0.3135 -0.1253  0.1914
  515loPI   C2B 8238   2.613  16.939   8.938  0.2091 -0.2080  0.1776
  515loPI   C3B 8239   2.354  17.111   8.615  0.0311 -0.1477 -0.0414
  515loPI   C4B 8240   2.322  17.354   8.226 -0.0081 -0.0089 -0.0091
  516loPI    C1 8241  16.411  14.860  10.048 -0.1715  0.0667 -0.0592
  516loPI    C2 8242  16.322  15.223   9.906 -0.2406  0.1184  0.1131
  516loPI    C3 8243  16.474  15.184  10.274  0.4008  0.0275 -0.1473
  516loPI   PO4 8244  16.635  14.726   9.899 -0.0680  0.0051  0.1157
  516loPI   GL1 8245  16.675  14.629   9.533  0.1082  0.2024 -0.0618
  516loPI   GL2 8246  17.040  14.707   9.585 -0.1272 -0.0498  0.0756
  516loPI   C1A 8247  16.524  14.582   9.216 -0.0738 -0.1072 -0.2091
  516loPI   C2A 8248  16.400  14.611   8.785 -0.3289 -0.0043 -0.0638
  516loPI   C3A 8249  16.453  14.760   8.354  0.0458 -0.1838  0.0085
  516loPI   C4A 8250  16.520  14.670   7.892  0.3589 -0.1655 -0.0812
  516loPI   C5A 8251  16.494  14.753   7.474 -0.3553 -0.2375 -0.1608
  516loPI   C6A 8252  16.279  14.676   7.147  0.2396  0.0063 -0.2051
  516loPI   C1B 8253  16.958  14.872   9.171  0.0830 -0.0689 -0.2386
  516loPI   C2B 8254  17.065  14.824   8.686 -0.0679  0.0707 -0.1409
  516loPI   C3B 8255  17.109  14.683   8.339 -0.1671 -0.0114  0.0933
  516loPI   C4B 8256  17.010  14.607   7.949  0.0106 -0.1887 -0.3694
  517loPI    C1 8257  17.687   1.714  10.201 -0.1184  0.0783 -0.0795
  517loPI    C2 8258  17.522   1.704  10.565 -0.0604 -0.0898 -0.0569
  517loPI    C3 8259  17.819   1.960  10.487 -0.1865  0.0651 -0.0364
  517loPI   PO4 8260  17.469   1.840  10.074  0.2618  0.2736  0.0995
  517loPI   GL1 8261  17.388   1.705   9.612 -0.1123 -0.0080  0.2263
  517loPI   GL2 8262  17.151   1.499   9.562 -0.1586  0.2664  0.1997
  517loPI   C1A 8263  17.369   1.900   9.160  0.2135 -0.0314 -0.0586
  517loPI   C2A 8264  17.236   1.826   8.744 -0.3971 -0.2373 -0.0612
  517loPI   C3A 8265  17.186   1.554   8.193 -0.0555 -0.2747  0.0356
  517loPI   C4A 8266  17.073   1.182   7.984  0.2016  0.2342 -0.1591
  517loPI   C5A 8267  17.273   0.979   7.588  0.0540 -0.0437  0.2410
  517loPI   C6A 8268  17.075   0.604   7.180 -0.2477 -0.1086  0.0667
  517loPI   C1B 8269  16.884   1.391   9.194  0.0665  0.1061 -0.1512
  517loPI   C2B 8270  16.711   1.354   8.788 -0.1475  0.2205  0.0886
  517loPI   C3B 8271  16.661   1.276   8.300  0.2513 -0.1166 -0.2544
  517loPI   C4B 8272  16.635   1.309   7.817  0.0274 -0.1388 -0.0193
  518loPI    C1 8273   6.108   8.328  10.290 -0.1694 -0.0415 -0.0895
  518loPI    C2 8274   5.876   8.043  10.449 -0.2009  0.0287 -0.0091
  518loPI    C3 8275   6.031   8.329  10.683 -0.0086 -0.0351 -0.0571
  518loPI   PO4 8276   5.964   8.477  10.148  0.1615  0.0050  0.0230
  518loPI   GL1 8277   5.796   8.485   9.766 -0.1996 -0.1845 -0.1147
  518loPI   GL2 8278   5.918   8.822   9.802 -0.0486 -0.0520  0.1630
  518loPI   C1A 8279   5.546   8.504   9.345  0.2134 -0.1051  0.0754
  518loPI   C2A 8280   5.764   8.285   8.908  0.2653  0.1899 -0.1460
  518loPI   C3A 8281   5.736   8.159   8.409 -0.6044 -0.1221 -0.0293
  518loPI   C4A 8282   5.685   8.101   7.962  0.3420 -0.2155 -0.3363
  518loPI   C5A 8283   5.367   8.229   7.688  0.0756  0.1947  0.3407
  518loPI   C6A 8284   5.311   8.243   7.332  0.0429 -0.1809  0.1779
  518loPI   C1B 8285   6.088   8.809   9.440  0.2624 -0.0450  0.0947
  518loPI   C2B 8286   6.334   8.733   9.128 -0.0378  0.0237  0.0068
  518loPI   C3B 8287   6.496   8.766   8.778 -0.1623 -0.3255  0.1896
  518loPI   C4B 8288   6.320   8.857   8.355  0.1347  0.1906 -0.1232
  519loPI    C1 8289   8.706  15.188  10.442  0.0112  0.0791  0.1825
  519loPI    C2 8290   8.827  14.841  10.601  0.3134  0.2005  0.2250
  519loPI    C3 8291   8.741  15.151  10.839 -0.1617  0.0962  0.2001
  519loPI   PO4 8292   8.565  15.141  10.242  0.3229  0.1830 -0.2386
  519loPI   GL1 8293   8.682  15.154   9.812  0.0831  0.1556  0.0894
  519loPI   GL2 8294   8.626  15.516   9.744  0.1759  0.1005  0.3231
  519loPI   C1A 8295   8.689  15.150   9.361 -0.1495  0.0284 -0.0225
  519loPI   C2A 8296   8.636  15.274   8.943  0.0864  0.1940 -0.0924
  519loPI   C3A 8297   8.679  15.316   8.585  0.0670 -0.1492 -0.1124
  519loPI   C4A 8298   8.448  15.328   8.226  0.1044 -0.3023  0.0526
  519loPI   C5A 8299   8.645  15.362   7.818 -0.1800 -0.1150  0.2561
  519loPI   C6A 8300   8.721  15.548   7.483 -0.2728 -0.2300 -0.1149
  519loPI   C1B 8301   8.473  15.624   9.336 -0.0885 -0.1238  0.0574
  519loPI   C2B 8302   8.476  15.799   9.011 -0.1601  0.2933 -0.0718
  519loPI   C3B 8303   8.324  15.694   8.607  0.2626 -0.2028 -0.0084
  519loPI   C4B 8304   8.347  15.816   8.193  0.0236  0.0711 -0.1322
  520loPI    C1 8305  13.073  13.733  10.155 -0.2149 -0.0532 -0.1809
  520loPI    C2 8306  12.806  13.435  10.167 -0.1903 -0.0667  0.0716
  520loPI    C3 8307  12.885  13.647  10.497 -0.0455  0.0771 -0.0537
  520loPI   PO4 8308  13.109  13.766   9.974 -0.1983 -0.2404 -0.1044
  520loPI   GL1 8309  12.828  13.740   9.664  0.0570  0.0450 -0.1042
  520loPI   GL2 8310  12.663  13.780   9.541  0.3159 -0.3421  0.1778
  520loPI   C1A 8311  12.864  13.413   9.323  0.0273 -0.1167  0.2011
  520loPI   C2A 8312  13.027  13.390   8.931 -0.2645 -0.1724  0.0378
  520loPI   C3A 8313  13.081  13.498   8.436 -0.0565 -0.2079  0.2465
  520loPI   C4A 8314  13.146  13.272   8.067  0.0897 -0.2152 -0.2975
  520loPI   C5A 8315  13.535  13.341   7.839 -0.4860 -0.1961 -0.0367
  520loPI   C6A 8316  13.701  13.163   7.401  0.0361 -0.0381 -0.0365
  520loPI   C1B 8317  12.783  13.852   9.142  0.2410 -0.5366 -0.0452
  520loPI   C2B 8318  12.871  13.870   8.719  0.0571 -0.1861  0.1092
  520loPI   C3B 8319  13.019  14.020   8.214  0.0363  0.2029 -0.2879
  520loPI   C4B 8320  13.272  14.203   7.984 -0.1717 -0.0439 -0.0343
  521loPI    C1 8321   0.635  12.900  10.571  0.2414 -0.0170 -0.0064
  521loPI    C2 8322   0.497  13.161  10.840  0.0656 -0.0147 -0.0971
  521loPI    C3 8323   0.626  12.801  10.958  0.2980  0.1064  0.0270
  521loPI   PO4 8324   0.437  12.940  10.393 -0.0463  0.0002  0.0620
  521loPI   GL1 8325   0.305  12.719  10.011 -0.1469 -0.3439 -0.2410
  521loPI   GL2 8326   0.382  12.473   9.948 -0.0873  0.1325 -0.0169
  521loPI   C1A 8327   0.310  12.867   9.599  0.0779 -0.0811  0.2516
  521loPI   C2A 8328   0.385  13.235   9.358 -0.0986  0.0923 -0.1451
  521loPI   C3A 8329   0.354  13.284   8.867 -0.0418  0.1709  0.1375
  521loPI   C4A 8330   0.119  13.366   8.449 -0.1405 -0.0397  0.2775
  521loPI   C5A 8331   0.060  13.473   8.015  0.2147 -0.0373 -0.0818
  521loPI   C6A 8332   0.041  13.535   7.645 -0.1293 -0.1680  0.1500
  521loPI   C1B 8333   0.393  12.387   9.595  0.1214 -0.1184 -0.1514
  521loPI   C2B 8334   0.387  12.328   9.213 -0.0473  0.0593  0.2543
  521loPI   C3B 8335   0.413  12.148   8.776 -0.5171 -0.2428 -0.0945
  521loPI   C4B 8336   0.299  12.056   8.333  0.0392  0.0874  0.1060
  522loPI    C1 8337  15.108   7.110   9.959 -0.1099  0.0103  0.2180
  522loPI    C2 8338  15.128   6.926  10.313 -0.2349 -0.2907  0.0715
  522loPI    C3 8339  15.181   6.717   9.976  0.1379  0.0392 -0.0813
  522loPI   PO4 8340  14.990   7.289   9.987 -0.0714 -0.2342 -0.0750
  522loPI   GL1 8341  14.863   7.405   9.573 -0.0954  0.1403  0.0644
  522loPI   GL2 8342  14.707   7.623   9.670 -0.0252 -0.2485  0.2872
  522loPI   C1A 8343  14.819   7.292   9.136  0.1304 -0.4962  0.3260
  522loPI   C2A 8344  14.546   7.446   8.855 -0.0635  0.0101 -0.1401
  522loPI   C3A 8345  14.424   7.622   8.437 -0.1747  0.1676  0.1457
  522loPI   C4A 8346  14.288   7.594   8.108 -0.0822 -0.1899  0.0872
  522loPI   C5A 8347  14.090   7.536   7.778  0.2056  0.0365  0.1091
  522loPI   C6A 8348  13.882   7.487   7.390  0.0011  0.2816 -0.0210
  522loPI   C1B 8349  14.732   7.786   9.170 -0.3101  0.0897  0.2333
  522loPI   C2B 8350  14.662   7.984   8.741 -0.1635 -0.1927  0.0784
  522loPI   C3B 8351  14.541   8.005   8.183 -0.3080 -0.3679 -0.0664
  522loPI   C4B 8352  14.314   8.049   7.888  0.0578  0.0396  0.2351
  523loPI    C1 8353   1.873   7.813  10.035  0.1500 -0.0232 -0.1625
  523loPI    C2 8354   2.125   8.110   9.944  0.2575 -0.1278 -0.2079
  523loPI    C3 8355   2.172   7.906  10.285  0.0702  0.0297 -0.0859
  523loPI   PO4 8356   1.863   7.755   9.783  0.1463  0.0194  0.1585
  523loPI   GL1 8357   1.992   8.059   9.445 -0.1495  0.2788 -0.0778
  523loPI   GL2 8358   2.029   7.777   9.300  0.1299  0.2159 -0.3551
  523loPI   C1A 8359   2.161   8.115   8.977  0.5378 -0.1583 -0.1887
  523loPI   C2A 8360   2.135   7.947   8.600 -0.3074 -0.2370 -0.0934
  523loPI   C3A 8361   2.142   8.224   8.210 -0.3495  0.0201 -0.1070
  523loPI   C4A 8362   2.515   8.475   7.801  0.0155  0.0168  0.0414
  523loPI   C5A 8363   2.901   8.278   7.609 -0.1044 -0.0318  0.1540
  523loPI   C6A 8364   3.245   8.416   7.323 -0.0029 -0.0219  0.2428
  523loPI   C1B 8365   1.902   7.662   8.925 -0.2151  0.2520 -0.0501
  523loPI   C2B 8366   1.936   7.468   8.488 -0.1817 -0.1341 -0.2069
  523loPI   C3B 8367   1.816   7.251   8.119 -0.0253  0.0622  0.0672
  523loPI   C4B 8368   1.585   7.433   7.906 -0.0882 -0.1814 -0.0189
  524loPI    C1 8369   6.295   9.992  10.099 -0.2418  0.0035 -0.1133
  524loPI    C2 8370   6.288  10.321  10.326 -0.2896  0.0553 -0.1894
  524loPI    C3 8371   6.310   9.960  10.497  0.0053  0.1071 -0.1128
  524loPI   PO4 8372   6.169  10.044   9.833 -0.2935  0.2471 -0.0361
  524loPI   GL1 8373   6.145  10.167   9.375 -0.0013 -0.3779  0.1787
  524loPI   GL2 8374   6.290  10.389   9.314 -0.0821  0.2180 -0.2978
  524loPI   C1A 8375   6.052  10.044   9.008 -0.1515  0.4595 -0.0664
  524loPI   C2A 8376   6.155  10.028   8.612  0.3273 -0.3626  0.2725
  524loPI   C3A 8377   6.261  10.038   8.146  0.1625  0.1139 -0.0378
  524loPI   C4A 8378   6.366  10.236   7.715 -0.3456 -0.2717  0.1192
  524loPI   C5A 8379   6.786  10.308   7.509 -0.0157  0.2012  0.0589
  524loPI   C6A 8380   7.081  10.444   7.094 -0.1918 -0.0132 -0.2847
  524loPI   C1B 8381   6.207  10.515   8.763  0.0782  0.5885  0.0775
  524loPI   C2B 8382   5.963  10.496   8.340  0.1974 -0.1182  0.0534
  524loPI   C3B 8383   5.989  10.479   7.949 -0.3177  0.0124  0.3314
  524loPI   C4B 8384   5.816  10.689   7.634 -0.1747 -0.3662  0.1238
  525loPI    C1 8385   1.874   3.752  10.256 -0.0666  0.0525  0.0741
  525loPI    C2 8386   1.594   3.549  10.457  0.0962 -0.1367  0.1121
  525loPI    C3 8387   1.976   3.533  10.574  0.1454  0.0051 -0.0254
  525loPI   PO4 8388   1.755   3.666   9.918  0.0904 -0.1744 -0.0168
  525loPI   GL1 8389   1.640   3.700   9.440 -0.2494  0.2129  0.0211
  525loPI   GL2 8390   1.367   3.702   9.555 -0.3700 -0.2376  0.0335
  525loPI   C1A 8391   1.391   3.445   9.119  0.0725 -0.1255 -0.2492
  525loPI   C2A 8392   1.492   3.464   8.593  0.1516 -0.0394  0.5574
  525loPI   C3A 8393   1.648   3.534   8.182  0.3378 -0.1677 -0.1447
  525loPI   C4A 8394   1.997   3.693   8.072 -0.0763 -0.2338  0.1257
  525loPI   C5A 8395   2.342   3.603   7.774 -0.1852  0.0000 -0.2134
  525loPI   C6A 8396   2.398   3.564   7.355  0.4772  0.0292 -0.0364
  525loPI   C1B 8397   1.205   3.889   9.287 -0.0352 -0.2886  0.0597
  525loPI   C2B 8398   1.296   3.842   8.831  0.1841  0.0393 -0.1400
  525loPI   C3B 8399   1.686   3.931   8.548  0.0306 -0.1267  0.0570
  525loPI   C4B 8400   2.095   3.966   8.460  0.1488 -0.1647  0.3404
  526loPI    C1 8401  18.456  17.058  10.145  0.0909 -0.1902  0.0783
  526loPI    C2 8402  18.174  17.151  10.414 -0.1758  0.0017 -0.2602
  526loPI    C3 8403  18.276  16.769  10.355 -0.3450 -0.0670 -0.1150
  526loPI   PO4 8404  18.683  17.353  10.161  0.0868 -0.1144 -0.0540
  526loPI   GL1 8405  18.797  17.594   9.711 -0.1161 -0.1868  0.0199
  526loPI   GL2 8406  18.871  17.977   9.543 -0.0512 -0.0671 -0.2965
  526loPI   C1A 8407  18.980  17.447   9.382 -0.0141  0.1976  0.0784
  526loPI   C2A 8408  19.029  17.171   8.920 -0.1662 -0.0101  0.1148
  526loPI   C3A 8409  19.178  17.096   8.503 -0.0832 -0.3534 -0.0475
  526loPI   C4A 8410  19.091  17.045   8.074  0.0502  0.1714  0.0028
  526loPI   C5A 8411  19.189  17.160   7.729  0.0217 -0.2538 -0.2574
  526loPI   C6A 8412  19.094  16.934   7.393  0.1497  0.2277 -0.2869
  526loPI   C1B 8413  18.930  18.105   9.144 -0.0798  0.2379  0.1985
  526loPI   C2B 8414  18.857  18.060   8.650 -0.0553  0.0080  0.2278
  526loPI   C3B 8415  18.978  18.367   8.344  0.4235  0.0061  0.2116
  526loPI   C4B 8416  19.251  18.496   8.167 -0.3164  0.0435 -0.0925
  527loPI    C1 8417  13.839  12.404  10.387 -0.1077 -0.1053  0.0098
  527loPI    C2 8418  14.156  12.566  10.569 -0.0633 -0.1967  0.0141
  527loPI    C3 8419  14.098  12.170  10.582 -0.2530 -0.1665  0.1321
  527loPI   PO4 8420  13.849  12.478  10.110  0.0997 -0.1397 -0.0667
  527loPI   GL1 8421  13.734  12.564   9.735 -0.0220 -0.0490 -0.0117
  527loPI   GL2 8422  14.021  12.374   9.574 -0.4597 -0.0284  0.0394
  527loPI   C1A 8423  13.713  12.731   9.294  0.0282 -0.0349  0.1069
  527loPI   C2A 8424  13.757  12.894   8.881  0.0765 -0.1492 -0.0438
  527loPI   C3A 8425  13.953  12.941   8.430 -0.1737 -0.1740 -0.0256
  527loPI   C4A 8426  14.122  13.110   7.994 -0.0548 -0.1880 -0.3011
  527loPI   C5A 8427  14.098  13.406   7.677 -0.1661 -0.1409  0.0244
  527loPI   C6A 8428  14.015  13.735   7.326 -0.3470 -0.0947  0.1346
  527loPI   C1B 8429  14.140  12.062   9.365 -0.1222  0.1183 -0.4529
  527loPI   C2B 8430  14.189  11.945   8.916  0.1914  0.2584  0.0638
  527loPI   C3B 8431  14.006  11.903   8.556 -0.2598  0.1353 -0.0105
  527loPI   C4B 8432  13.970  12.088   8.188  0.0512 -0.0704 -0.1541
  528loPI    C1 8433   5.220  15.866   9.960  0.0552  0.3763  0.2646
  528loPI    C2 8434   5.141  15.837  10.351 -0.0985  0.1585  0.2197
  528loPI    C3 8435   4.849  15.931  10.094 -0.0971 -0.1256  0.1110
  528loPI   PO4 8436   5.426  15.754   9.878 -0.1596 -0.1969  0.0274
  528loPI   GL1 8437   5.387  15.433   9.593  0.2033  0.1630  0.1684
  528loPI   GL2 8438   5.035  15.575   9.497 -0.1344 -0.1068 -0.2049
  528loPI   C1A 8439   5.663  15.531   9.166 -0.1464  0.1232  0.0399
  528loPI   C2A 8440   5.815  15.598   8.828 -0.0006  0.0152 -0.2740
  528loPI   C3A 8441   5.910  15.377   8.437  0.2420  0.0165 -0.0768
  528loPI   C4A 8442   5.937  15.180   8.049  0.0327  0.1618 -0.0208
  528loPI   C5A 8443   5.866  15.280   7.682 -0.1487  0.0489 -0.0440
  528loPI   C6A 8444   6.079  15.415   7.278 -0.0243 -0.0171  0.2024
  528loPI   C1B 8445   5.114  15.523   9.027 -0.0065 -0.1875 -0.0761
  528loPI   C2B 8446   5.052  15.552   8.643 -0.1750  0.0460 -0.0256
  528loPI   C3B 8447   5.048  15.673   8.151  0.1754  0.0028 -0.2081
  528loPI   C4B 8448   5.024  15.886   7.865 -0.3364 -0.1502 -0.0015
  529loPI    C1 8449   8.865  11.963   9.996 -0.0828 -0.1712 -0.2684
  529loPI    C2 8450   9.087  11.702  10.204 -0.2865  0.0687  0.2698
  529loPI    C3 8451   9.099  12.092  10.294 -0.3321  0.1912 -0.2228
  529loPI   PO4 8452   8.813  11.683   9.767 -0.1007  0.0977 -0.0716
  529loPI   GL1 8453   9.066  11.617   9.380 -0.0365 -0.2144 -0.1571
  529loPI   GL2 8454   9.221  11.544   9.146  0.0402  0.2985  0.0590
  529loPI   C1A 8455   8.742  11.949   9.095  0.2605  0.2264 -0.3670
  529loPI   C2A 8456   8.572  12.223   8.819 -0.2535 -0.1306  0.2119
  529loPI   C3A 8457   8.341  12.443   8.521 -0.0496  0.0047  0.2052
  529loPI   C4A 8458   8.368  12.686   8.169 -0.2186 -0.4615  0.0121
  529loPI   C5A 8459   8.111  12.761   7.885 -0.0068  0.0904 -0.0791
  529loPI   C6A 8460   7.757  12.794   7.530  0.1361  0.1576 -0.4094
  529loPI   C1B 8461   9.304  11.518   8.729  0.0383  0.1119 -0.1663
  529loPI   C2B 8462   9.308  11.430   8.260  0.1347  0.0496  0.0880
  529loPI   C3B 8463   9.465  11.202   7.895  0.2575 -0.0235  0.0418
  529loPI   C4B 8464   9.681  11.309   7.604  0.0138 -0.1134 -0.0075
  530loPI    C1 8465  13.505  15.770  10.204 -0.0349  0.0630  0.0087
  530loPI    C2 8466  13.781  15.491  10.282  0.1430  0.2245 -0.0375
  530loPI    C3 8467  13.790  15.841  10.476  0.0606  0.2881 -0.1480
  530loPI   PO4 8468  13.396  15.570   9.964 -0.1520 -0.1103  0.0668
  530loPI   GL1 8469  13.328  15.357   9.526 -0.1428 -0.1036 -0.1464
  530loPI   GL2 8470  13.098  15.271   9.464  0.1056 -0.0918 -0.0915
  530loPI   C1A 8471  13.568  15.270   9.156 -0.0444 -0.0048  0.1006
  530loPI   C2A 8472  13.617  15.537   8.725 -0.0199 -0.2860 -0.2021
  530loPI   C3A 8473  13.542  15.600   8.225  0.1617 -0.0072  0.1070
  530loPI   C4A 8474  13.525  15.805   7.861 -0.1591 -0.0742 -0.1903
  530loPI   C5A 8475  13.206  15.777   7.587  0.0026 -0.0394  0.2053
  530loPI   C6A 8476  12.892  15.716   7.237  0.0886  0.2177  0.3233
  530loPI   C1B 8477  13.130  15.157   8.973 -0.1789 -0.0393 -0.0727
  530loPI   C2B 8478  13.335  15.088   8.623  0.5264  0.1555  0.0896
  530loPI   C3B 8479  13.290  15.150   8.159  0.3766 -0.0898  0.1064
  530loPI   C4B 8480  13.214  15.286   7.733  0.0643 -0.1421  0.1491
  531loPI    C1 8481   1.174   4.793   9.861 -0.1039  0.1321 -0.0604
  531loPI    C2 8482   1.056   4.424   9.963  0.1627  0.0960  0.1285
  531loPI    C3 8483   0.784   4.706   9.881 -0.0427 -0.1781 -0.1572
  531loPI   PO4 8484   1.426   4.797   9.835  0.2221  0.0133  0.0853
  531loPI   GL1 8485   1.609   4.872   9.485  0.3106 -0.0027 -0.2474
  531loPI   GL2 8486   1.342   5.059   9.328  0.0603  0.1996  0.2942
  531loPI   C1A 8487   1.538   4.611   9.110 -0.5417 -0.4802  0.0992
  531loPI   C2A 8488   1.598   4.462   8.729  0.1314  0.0706 -0.1395
  531loPI   C3A 8489   1.875   4.387   8.434 -0.3264  0.0898  0.0710
  531loPI   C4A 8490   1.886   4.264   8.008 -0.4398 -0.2165  0.4019
  531loPI   C5A 8491   1.735   4.066   7.673  0.2081 -0.0048  0.1721
  531loPI   C6A 8492   1.826   3.846   7.319  0.1741  0.0418 -0.0668
  531loPI   C1B 8493   1.438   5.112   8.932  0.0227  0.2417 -0.0723
  531loPI   C2B 8494   1.351   5.213   8.565  0.0205 -0.0062 -0.1267
  531loPI   C3B 8495   1.442   5.290   8.199  0.0796 -0.1567  0.1358
  531loPI   C4B 8496   1.280   5.272   7.731  0.0126 -0.2895 -0.3164
  532loPI    C1 8497   8.652  18.696  10.785 -0.1324  0.3201  0.1331
  532loPI    C2 8498   9.014  18.833  10.887 -0.0043  0.0525  0.0477
  532loPI    C3 8499   8.870  18.500  11.057 -0.0539 -0.0467 -0.1840
  532loPI   PO4 8500   8.749  18.709  10.385  0.1308 -0.0368  0.0924
  532loPI   GL1 8501   8.611  18.529  10.076  0.0386 -0.3208 -0.0378
  532loPI   GL2 8502   8.461  18.294  10.037 -0.3567 -0.1180 -0.0346
  532loPI   C1A 8503   8.679  18.661   9.617  0.0602 -0.2139 -0.0871
  532loPI   C2A 8504   8.650  18.915   9.311  0.1572  0.0265 -0.0122
  532loPI   C3A 8505   8.635  18.925   8.890  0.3398  0.2797  0.1916
  532loPI   C4A 8506   8.540  18.808   8.544 -0.0364  0.1248 -0.1190
  532loPI   C5A 8507   8.518  18.609   8.155 -0.0313  0.1925 -0.1694
  532loPI   C6A 8508   8.199  18.307   8.026 -0.0510  0.2094  0.0082
  532loPI   C1B 8509   8.639  18.137   9.622  0.1859  0.1702  0.0107
  532loPI   C2B 8510   8.589  18.083   9.163  0.0408  0.1624  0.4099
  532loPI   C3B 8511   8.563  17.998   8.789 -0.3192  0.2978  0.3078
  532loPI   C4B 8512   8.658  17.862   8.302 -0.1593 -0.0651 -0.0982
  533loPI    C1 8513   2.008  15.263  10.287 -0.0463  0.1200 -0.1977
  533loPI    C2 8514   1.711  15.391  10.522  0.1975 -0.0609  0.2204
  533loPI    C3 8515   2.077  15.546  10.560  0.3040 -0.2917  0.1553
  533loPI   PO4 8516   1.920  15.276  10.074  0.0766  0.2306 -0.0540
  533loPI   GL1 8517   2.025  15.293   9.624 -0.1638  0.0530 -0.0417
  533loPI   GL2 8518   1.876  15.574   9.692 -0.0653 -0.2091 -0.0410
  533loPI   C1A 8519   2.002  15.023   9.293  0.4030 -0.1748 -0.0372
  533loPI   C2A 8520   2.126  15.005   8.928  0.0661 -0.0891  0.0070
  533loPI   C3A 8521   2.258  14.732   8.622  0.1677  0.1872  0.1401
  533loPI   C4A 8522   2.289  14.785   8.173 -0.0424  0.3759  0.0028
  533loPI   C5A 8523   2.383  14.792   7.746 -0.2340  0.2702  0.1835
  533loPI   C6A 8524   2.586  14.724   7.473  0.0102 -0.3523  0.1898
  533loPI   C1B 8525   2.139  15.719   9.290 -0.1457  0.1235 -0.3290
  533loPI   C2B 8526   2.201  15.815   8.832 -0.2103  0.0112 -0.3255
  533loPI   C3B 8527   2.555  15.965   8.589  0.1909  0.2016  0.1448
  533loPI   C4B 8528   2.551  16.193   8.172 -0.2136 -0.0360  0.0191
  534loPI    C1 8529   6.714  16.532  10.829  0.1457 -0.0867 -0.1277
  534loPI    C2 8530   6.671  16.923  10.901  0.2946 -0.1114  0.1089
  534loPI    C3 8531   6.387  16.666  11.017  0.0254 -0.0409 -0.3659
  534loPI   PO4 8532   6.795  16.601  10.507  0.2644  0.1709 -0.0876
  534loPI   GL1 8533   7.022  16.875  10.142  0.0489  0.1744  0.0779
  534loPI   GL2 8534   6.958  17.154   9.997  0.1312  0.0005 -0.0078
  534loPI   C1A 8535   6.790  16.776   9.737  0.0931 -0.1178  0.0527
  534loPI   C2A 8536   6.850  16.558   9.293 -0.2345  0.1855  0.4477
  534loPI   C3A 8537   6.802  16.529   8.797 -0.0677  0.1772 -0.1766
  534loPI   C4A 8538   6.749  16.617   8.449 -0.0339 -0.1798  0.0750
  534loPI   C5A 8539   6.913  16.713   7.964  0.5279 -0.0760 -0.0299
  534loPI   C6A 8540   7.290  16.681   7.694 -0.3490 -0.2612 -0.3077
  534loPI   C1B 8541   7.119  17.140   9.564  0.0545  0.0794 -0.1718
  534loPI   C2B 8542   7.111  17.015   9.071 -0.2712  0.1131 -0.1154
  534loPI   C3B 8543   7.006  17.065   8.687  0.1900  0.1199  0.1352
  534loPI   C4B 8544   7.030  17.079   8.278  0.2308  0.0519  0.0724
  535loPI    C1 8545   6.407   2.129  10.284 -0.0438  0.1096  0.0620
  535loPI    C2 8546   6.656   1.822  10.224  0.0127  0.1022  0.3225
  535loPI    C3 8547   6.504   1.888  10.588 -0.1495  0.2709  0.2258
  535loPI   PO4 8548   6.601   2.301  10.013  0.0736  0.0715 -0.2353
  535loPI   GL1 8549   6.408   2.394   9.569  0.0495 -0.1685  0.2052
  535loPI   GL2 8550   6.625   2.159   9.472 -0.2186 -0.2907 -0.1666
  535loPI   C1A 8551   6.101   2.154   9.309 -0.0566 -0.2594 -0.0256
  535loPI   C2A 8552   6.116   2.128   8.892  0.0629 -0.0765 -0.1280
  535loPI   C3A 8553   6.145   2.144   8.422  0.1298  0.0629 -0.2262
  535loPI   C4A 8554   6.143   2.340   8.045 -0.2148 -0.0951 -0.2267
  535loPI   C5A 8555   6.365   2.672   7.727  0.0410 -0.1411 -0.1232
  535loPI   C6A 8556   6.237   3.057   7.641  0.2354 -0.3776  0.0519
  535loPI   C1B 8557   6.596   2.181   9.052 -0.2865 -0.2003  0.3089
  535loPI   C2B 8558   6.611   2.230   8.672 -0.1204  0.0240 -0.0930
  535loPI   C3B 8559   6.723   2.207   8.247  0.2851  0.2115  0.3626
  535loPI   C4B 8560   6.581   2.202   7.817 -0.0988  0.0140  0.3366
  536loPI    C1 8561   5.784   4.180  10.484 -0.0280  0.0408  0.0623
  536loPI    C2 8562   5.909   4.031  10.833 -0.0723 -0.1383  0.0028
  536loPI    C3 8563   5.584   4.265  10.820 -0.0266 -0.0691  0.0911
  536loPI   PO4 8564   5.742   3.904  10.308  0.0324  0.1414  0.1161
  536loPI   GL1 8565   5.749   3.714   9.815 -0.1390 -0.0101 -0.3359
  536loPI   GL2 8566   5.625   3.921   9.599 -0.3445  0.5223  0.0907
  536loPI   C1A 8567   5.508   3.424   9.499 -0.2053 -0.2139  0.1278
  536loPI   C2A 8568   5.367   3.586   9.009 -0.1633 -0.1652  0.1973
  536loPI   C3A 8569   5.509   3.330   8.653  0.1340  0.2173  0.1296
  536loPI   C4A 8570   5.589   3.200   8.208  0.2095 -0.2041 -0.0322
  536loPI   C5A 8571   5.399   3.195   7.780 -0.3541  0.0249  0.2832
  536loPI   C6A 8572   5.159   3.491   7.538 -0.1021 -0.3533 -0.2418
  536loPI   C1B 8573   5.596   3.978   9.173 -0.1998 -0.2119  0.0466
  536loPI   C2B 8574   5.574   3.992   8.702  0.1205 -0.2380  0.0492
  536loPI   C3B 8575   5.603   4.083   8.306 -0.2595  0.1401  0.0386
  536loPI   C4B 8576   5.674   4.196   7.882 -0.0291 -0.0173  0.1099
  537loPI    C1 8577  11.969  15.591  10.202 -0.0694  0.1234  0.1432
  537loPI    C2 8578  12.154  15.405  10.504  0.2238 -0.0762 -0.1516
  537loPI    C3 8579  12.096  15.801  10.518  0.2297 -0.0840  0.1650
  537loPI   PO4 8580  12.060  15.430   9.952 -0.3088  0.2573 -0.4079
  537loPI   GL1 8581  11.758  15.348   9.570 -0.1697  0.3958 -0.3728
  537loPI   GL2 8582  11.466  15.352   9.512 -0.2457 -0.0247 -0.1932
  537loPI   C1A 8583  11.752  15.066   9.250  0.0170  0.0805  0.3023
  537loPI   C2A 8584  11.500  15.103   8.953 -0.0382  0.1768 -0.1453
  537loPI   C3A 8585  11.373  14.931   8.623  0.0341 -0.1174 -0.1535
  537loPI   C4A 8586  11.409  14.906   8.170 -0.0562  0.0197  0.0670
  537loPI   C5A 8587  11.604  14.797   7.693 -0.2018  0.2667  0.1151
  537loPI   C6A 8588  12.021  14.449   7.688  0.0601 -0.0829  0.0784
  537loPI   C1B 8589  11.307  15.503   9.108 -0.1138  0.0580 -0.2609
  537loPI   C2B 8590  11.355  15.461   8.670  0.0598 -0.0326  0.0893
  537loPI   C3B 8591  11.490  15.376   8.274 -0.2210 -0.0655  0.1472
  537loPI   C4B 8592  11.761  15.616   7.954 -0.2785 -0.0935 -0.2027
  538loPI    C1 8593  13.271   0.703  10.318  0.1667 -0.1099  0.1642
  538loPI    C2 8594  13.473   0.933  10.060 -0.2233  0.2075  0.1325
  538loPI    C3 8595  13.603   0.892  10.436  0.0673  0.1552  0.0281
  538loPI   PO4 8596  13.202   0.557  10.147 -0.0953  0.2851 -0.2452
  538loPI   GL1 8597  13.026   0.376   9.873 -0.1796 -0.1525 -0.0393
  538loPI   GL2 8598  12.796   0.637   9.653 -0.0976  0.0698  0.2289
  538loPI   C1A 8599  12.904   0.183   9.572  0.1110  0.1148 -0.1395
  538loPI   C2A 8600  12.901   0.047   9.096  0.0842 -0.1494 -0.2544
  538loPI   C3A 8601  12.871  -0.019   8.702 -0.0886  0.1432  0.0105
  538loPI   C4A 8602  12.803   0.093   8.267  0.3934  0.0378 -0.0121
  538loPI   C5A 8603  12.621   0.192   7.868  0.1153  0.0031 -0.0803
  538loPI   C6A 8604  12.527   0.125   7.356  0.1841 -0.0966 -0.4697
  538loPI   C1B 8605  12.648   0.478   9.208 -0.0765  0.0414 -0.1420
  538loPI   C2B 8606  12.603   0.394   8.686  0.3273 -0.4597  0.1597
  538loPI   C3B 8607  12.544   0.569   8.234  0.1635 -0.1389  0.1024
  538loPI   C4B 8608  12.459   0.784   7.859 -0.4239 -0.0409 -0.0324
  539loPI    C1 8609   4.596  10.611   9.882 -0.2082 -0.1642 -0.1190
  539loPI    C2 8610   4.605  10.654  10.279  0.0369  0.2672 -0.1653
  539loPI    C3 8611   4.258  10.585  10.094 -0.0599 -0.0779  0.1326
  539loPI   PO4 8612   4.751  10.419   9.804 -0.0346  0.1998 -0.0116
  539loPI   GL1 8613   4.591  10.281   9.343  0.1209 -0.0467 -0.0447
  539loPI   GL2 8614   4.297  10.143   9.326 -0.1313  0.1478 -0.0614
  539loPI   C1A 8615   4.660  10.389   8.985  0.1285  0.3511 -0.0944
  539loPI   C2A 8616   4.817  10.382   8.558 -0.0780  0.0658  0.2446
  539loPI   C3A 8617   4.796  10.352   8.157 -0.1742 -0.1731 -0.0457
  539loPI   C4A 8618   4.801  10.352   7.763 -0.4003 -0.4018 -0.1049
  539loPI   C5A 8619   5.221  10.480   7.455  0.1387 -0.0800 -0.0749
  539loPI   C6A 8620   5.606  10.740   7.177 -0.0597  0.1457 -0.1976
  539loPI   C1B 8621   4.145  10.045   8.883  0.1754  0.0586 -0.1851
  539loPI   C2B 8622   4.316  10.272   8.467  0.3375 -0.0027 -0.2177
  539loPI   C3B 8623   4.219  10.218   7.971 -0.0246 -0.1511  0.0846
  539loPI   C4B 8624   4.139   9.841   7.764  0.2519  0.0150  0.2908
  540loPI    C1 8625   9.460   3.365  10.349  0.1567  0.1579  0.0532
  540loPI    C2 8626   9.849   3.343  10.257  0.1521 -0.1186  0.0920
  540loPI    C3 8627   9.719   3.211  10.612  0.0454  0.1325  0.1487
  540loPI   PO4 8628   9.387   3.550  10.185  0.2010 -0.0785  0.0241
  540loPI   GL1 8629   9.171   3.611   9.831  0.0640 -0.3576 -0.1624
  540loPI   GL2 8630   9.410   3.362   9.723  0.1913 -0.1222 -0.1498
  540loPI   C1A 8631   9.094   3.623   9.351  0.0853  0.1208  0.0431
  540loPI   C2A 8632   9.233   3.542   8.926 -0.0643  0.0240 -0.2175
  540loPI   C3A 8633   9.526   3.576   8.641 -0.1558  0.1864 -0.0498
  540loPI   C4A 8634   9.627   3.562   8.193 -0.2183 -0.2516 -0.0770
  540loPI   C5A 8635   9.924   3.471   7.929  0.0405  0.1895 -0.0332
  540loPI   C6A 8636  10.100   3.297   7.641  0.3204  0.0761  0.0072
  540loPI   C1B 8637   9.331   3.156   9.321 -0.0045 -0.2114  0.3474
  540loPI   C2B 8638   9.254   3.038   8.820 -0.1766 -0.1575 -0.0177
  540loPI   C3B 8639   9.212   3.108   8.430 -0.1345  0.2074  0.0957
  540loPI   C4B 8640   9.166   2.863   7.942 -0.0152  0.1771  0.2173
  541loPI    C1 8641   5.912   5.825  10.354 -0.0679  0.1722  0.1094
  541loPI    C2 8642   6.226   5.585  10.415 -0.0262  0.1727 -0.0960
  541loPI    C3 8643   5.876   5.504  10.590 -0.0483 -0.1134 -0.2664
  541loPI   PO4 8644   5.856   5.921  10.020 -0.2573 -0.0332  0.1211
  541loPI   GL1 8645   5.702   5.945   9.594 -0.0724 -0.2231 -0.1550
  541loPI   GL2 8646   5.579   5.674   9.485 -0.0470 -0.0674 -0.1472
  541loPI   C1A 8647   5.893   6.195   9.276  0.3397 -0.0964  0.2274
  541loPI   C2A 8648   6.042   6.326   8.905 -0.2614 -0.2585 -0.3039
  541loPI   C3A 8649   6.398   6.252   8.604 -0.1946 -0.2316 -0.3161
  541loPI   C4A 8650   6.179   6.221   8.222 -0.0559 -0.1172 -0.1635
  541loPI   C5A 8651   6.190   5.969   7.795 -0.0037  0.0625  0.1426
  541loPI   C6A 8652   5.897   5.848   7.405  0.2424  0.4363  0.2836
  541loPI   C1B 8653   5.581   5.387   9.187  0.2101  0.0143  0.1260
  541loPI   C2B 8654   5.788   5.410   8.728  0.1275  0.2264  0.1268
  541loPI   C3B 8655   6.252   5.395   8.520  0.0129  0.1313  0.0754
  541loPI   C4B 8656   6.383   5.416   8.173  0.2326  0.0195 -0.0265
  542loPI    C1 8657  14.408   4.739   9.980 -0.2227  0.0632  0.2415
  542loPI    C2 8658  14.203   4.408  10.069 -0.1591 -0.0979 -0.1851
  542loPI    C3 8659  14.590   4.436  10.167 -0.2580  0.0115  0.1927
  542loPI   PO4 8660  14.129   4.874  10.062 -0.0303 -0.2313  0.1605
  542loPI   GL1 8661  14.029   5.237   9.883 -0.2660 -0.2486  0.2255
  542loPI   GL2 8662  14.203   5.091   9.610  0.0260  0.0080 -0.0997
  542loPI   C1A 8663  14.004   5.547   9.552  0.1775 -0.0278  0.1381
  542loPI   C2A 8664  13.879   5.667   9.103 -0.3627  0.0806  0.3576
  542loPI   C3A 8665  13.800   5.615   8.720  0.0267 -0.1071 -0.2075
  542loPI   C4A 8666  13.637   5.521   8.362  0.1825 -0.2504  0.1026
  542loPI   C5A 8667  13.537   5.727   8.000 -0.1068  0.2523  0.0608
  542loPI   C6A 8668  13.674   5.653   7.638 -0.1358  0.0535 -0.3897
  542loPI   C1B 8669  14.152   5.194   9.257  0.0633  0.0213 -0.2544
  542loPI   C2B 8670  14.126   5.203   8.840  0.1712 -0.2362 -0.0312
  542loPI   C3B 8671  14.043   5.287   8.427  0.0203 -0.0457  0.4395
  542loPI   C4B 8672  13.799   5.130   8.038 -0.0263 -0.1387  0.1320
  543loPI    C1 8673   8.828   0.791  10.344  0.0799  0.0049 -0.1288
  543loPI    C2 8674   8.965   0.776  10.719  0.1349  0.2143 -0.1392
  543loPI    C3 8675   8.916   1.129  10.538 -0.0251  0.1210 -0.2809
  543loPI   PO4 8676   8.733   0.498  10.352 -0.4128  0.2595  0.1174
  543loPI   GL1 8677   8.572   0.176   9.988 -0.0639 -0.0642 -0.4541
  543loPI   GL2 8678   8.347   0.127   9.957 -0.0511 -0.0475  0.2219
  543loPI   C1A 8679   8.799   0.397   9.667 -0.3890  0.0603  0.0389
  543loPI   C2A 8680   8.921   0.533   9.265 -0.2466  0.0738 -0.0630
  543loPI   C3A 8681   8.903   0.489   8.863 -0.1012  0.0646 -0.3327
  543loPI   C4A 8682   8.627   0.475   8.531 -0.0770  0.1375 -0.3496
  543loPI   C5A 8683   8.650   0.366   8.080  0.1520 -0.2519 -0.0126
  543loPI   C6A 8684   9.059   0.469   7.866 -0.0661 -0.1455  0.2717
  543loPI   C1B 8685   8.230  -0.255   9.767 -0.0318  0.1404  0.4214
  543loPI   C2B 8686   8.351  -0.415   9.360 -0.0551 -0.0642 -0.1751
  543loPI   C3B 8687   8.292  -0.370   8.937 -0.1674 -0.0407 -0.1069
  543loPI   C4B 8688   8.284  -0.504   8.523  0.0892  0.0576  0.2213
  544loPI    C1 8689   3.510   5.149  10.161  0.0699 -0.0240 -0.0096
  544loPI    C2 8690   3.889   5.028  10.122  0.1219  0.0776  0.1639
  544loPI    C3 8691   3.810   5.395  10.258 -0.0396  0.0610  0.1178
  544loPI   PO4 8692   3.415   5.062   9.919  0.4023 -0.0934 -0.2011
  544loPI   GL1 8693   3.109   4.978   9.548 -0.0470 -0.1245 -0.1133
  544loPI   GL2 8694   2.963   4.984   9.303  0.0465 -0.0101 -0.2330
  544loPI   C1A 8695   3.403   4.765   9.296  0.1090 -0.2123  0.0938
  544loPI   C2A 8696   3.629   4.872   8.902 -0.3692  0.1907  0.0345
  544loPI   C3A 8697   3.472   5.076   8.498 -0.0243 -0.0694 -0.1987
  544loPI   C4A 8698   3.374   5.317   8.118  0.0533  0.1341  0.0255
  544loPI   C5A 8699   3.557   5.696   7.882 -0.1450  0.1476 -0.2074
  544loPI   C6A 8700   3.242   5.955   7.724 -0.1237  0.0886 -0.1774
  544loPI   C1B 8701   3.179   4.993   8.929 -0.2288  0.1729 -0.2864
  544loPI   C2B 8702   3.219   4.639   8.646 -0.3648  0.3775 -0.0035
  544loPI   C3B 8703   3.458   4.324   8.409 -0.2672  0.0943 -0.4384
  544loPI   C4B 8704   3.765   4.009   8.351 -0.0150 -0.0202 -0.0769
  545loPI    C1 8705  11.642   7.092  10.427 -0.0623 -0.0197 -0.0210
  545loPI    C2 8706  12.009   6.938  10.386  0.0861  0.3285 -0.0344
  545loPI    C3 8707  11.792   6.855  10.712  0.0983 -0.0310 -0.1136
  545loPI   PO4 8708  11.533   7.264  10.297 -0.2237 -0.1917  0.2662
  545loPI   GL1 8709  11.699   7.253   9.891  0.0388  0.0782 -0.3579
  545loPI   GL2 8710  11.845   6.875   9.942 -0.3011 -0.1533  0.4271
  545loPI   C1A 8711  11.707   7.407   9.483 -0.2740  0.0200  0.2276
  545loPI   C2A 8712  11.755   7.696   9.113  0.0119 -0.0474  0.0319
  545loPI   C3A 8713  12.131   7.691   8.800  0.1034 -0.4335  0.3604
  545loPI   C4A 8714  12.193   7.866   8.421 -0.2786 -0.2539  0.1615
  545loPI   C5A 8715  12.505   8.010   8.051  0.1188 -0.1294 -0.2207
  545loPI   C6A 8716  12.739   8.079   7.653 -0.1805 -0.2074 -0.0607
  545loPI   C1B 8717  12.035   6.915   9.578  0.0892 -0.2414  0.1523
  545loPI   C2B 8718  12.288   6.849   9.192 -0.1213 -0.0513 -0.1452
  545loPI   C3B 8719  12.504   6.913   8.903  0.1173 -0.0093  0.1184
  545loPI   C4B 8720  12.678   6.920   8.554  0.1274  0.1966  0.4186
  546loPI    C1 8721   3.372   7.474  10.355 -0.1965 -0.1637  0.2331
  546loPI    C2 8722   3.103   7.746  10.474 -0.1030  0.0281  0.0148
  546loPI    C3 8723   3.494   7.817  10.521 -0.0798 -0.1013  0.0220
  546loPI   PO4 8724   3.279   7.395  10.061 -0.2787 -0.0182 -0.0061
  546loPI   GL1 8725   3.461   7.132   9.690 -0.2462 -0.3365  0.1792
  546loPI   GL2 8726   3.456   7.562   9.617  0.2624 -0.0939  0.1179
  546loPI   C1A 8727   3.497   7.130   9.289 -0.1374  0.0917 -0.0260
  546loPI   C2A 8728   3.430   7.102   8.864  0.3823 -0.0633  0.0791
  546loPI   C3A 8729   3.350   6.873   8.444 -0.1705 -0.1196  0.1599
  546loPI   C4A 8730   3.174   6.929   8.064  0.3006  0.2222  0.2610
  546loPI   C5A 8731   3.048   7.021   7.643  0.1799 -0.1903  0.1031
  546loPI   C6A 8732   2.874   6.887   7.230 -0.0291  0.0249  0.0205
  546loPI   C1B 8733   3.342   7.571   9.126 -0.0917  0.0790  0.1264
  546loPI   C2B 8734   3.138   7.542   8.800 -0.1181  0.1415 -0.0007
  546loPI   C3B 8735   2.872   7.673   8.520  0.2323  0.0858 -0.2460
  546loPI   C4B 8736   2.632   7.868   8.298 -0.0584 -0.0134  0.0876
  547loPI    C1 8737  15.622   3.880  10.423  0.0583  0.0435 -0.1328
  547loPI    C2 8738  15.382   4.166  10.569 -0.0588 -0.0737 -0.0937
  547loPI    C3 8739  15.748   4.113  10.723 -0.1410 -0.1258  0.0865
  547loPI   PO4 8740  15.391   3.853  10.164 -0.1076 -0.3112  0.0538
  547loPI   GL1 8741  15.460   3.996   9.741  0.0117 -0.2892  0.1775
  547loPI   GL2 8742  15.152   3.849   9.619  0.0591 -0.0744 -0.0254
  547loPI   C1A 8743  15.459   4.329   9.529  0.0786 -0.2627  0.1125
  547loPI   C2A 8744  15.255   4.466   9.102  0.1310  0.1365 -0.0679
  547loPI   C3A 8745  15.230   4.508   8.730 -0.2986 -0.3092  0.1495
  547loPI   C4A 8746  15.248   4.274   8.369 -0.2340  0.1445  0.2750
  547loPI   C5A 8747  15.489   4.063   8.070  0.0580  0.1497  0.2782
  547loPI   C6A 8748  15.713   3.654   7.837 -0.3004  0.2127 -0.1702
  547loPI   C1B 8749  15.152   3.960   9.239  0.1734  0.1006 -0.0912
  547loPI   C2B 8750  15.134   3.962   8.832  0.1260 -0.0605  0.0486
  547loPI   C3B 8751  15.157   3.760   8.523 -0.1149 -0.1873  0.6628
  547loPI   C4B 8752  15.181   3.718   8.037 -0.2468 -0.1700 -0.1082
  548loPI    C1 8753   4.535  15.574  10.179  0.0815 -0.0403 -0.1468
  548loPI    C2 8754   4.528  15.228  10.381  0.1148  0.0473  0.0059
  548loPI    C3 8755   4.815  15.497  10.455 -0.0561  0.2146  0.0681
  548loPI   PO4 8756   4.525  15.545   9.967 -0.1530  0.0668  0.0390
  548loPI   GL1 8757   4.361  15.579   9.673 -0.4042  0.1273 -0.0898
  548loPI   GL2 8758   4.017  15.542   9.783 -0.0536 -0.2878  0.0548
  548loPI   C1A 8759   4.393  15.559   9.206  0.1837 -0.1663 -0.0441
  548loPI   C2A 8760   4.574  15.679   8.860 -0.0127 -0.1662  0.2974
  548loPI   C3A 8761   4.609  15.675   8.353 -0.0130  0.0084 -0.0646
  548loPI   C4A 8762   4.566  15.539   7.959 -0.1022  0.1375  0.1427
  548loPI   C5A 8763   4.769  15.479   7.621 -0.0210 -0.2588  0.0280
  548loPI   C6A 8764   4.937  15.368   7.208  0.2770 -0.0443  0.0428
  548loPI   C1B 8765   3.894  15.627   9.342 -0.0820  0.0312  0.0369
  548loPI   C2B 8766   3.952  15.662   8.920  0.0646 -0.0835 -0.1910
  548loPI   C3B 8767   4.139  15.701   8.595 -0.2758 -0.0093 -0.1203
  548loPI   C4B 8768   4.008  15.880   8.193 -0.3855  0.0207  0.0242
  549loPI    C1 8769  10.232  15.457  10.237  0.1208 -0.1765 -0.0472
  549loPI    C2 8770  10.021  15.354  10.561 -0.0685  0.0499 -0.0962
  549loPI    C3 8771  10.364  15.555  10.602 -0.1027  0.0964 -0.0366
  549loPI   PO4 8772   9.998  15.504  10.088 -0.2146 -0.3073  0.2196
  549loPI   GL1 8773   9.744  15.354   9.823 -0.0941 -0.1662  0.0864
  549loPI   GL2 8774   9.564  15.450   9.773 -0.2463 -0.0710  0.4339
  549loPI   C1A 8775   9.676  15.021   9.508 -0.0584 -0.3483  0.0328
  549loPI   C2A 8776   9.607  14.790   9.193 -0.2239 -0.1896  0.1770
  549loPI   C3A 8777   9.773  14.410   9.101  0.3720  0.3580  0.2228
  549loPI   C4A 8778   9.840  14.216   8.649 -0.0049  0.0705  0.0521
  549loPI   C5A 8779   9.695  13.938   8.299 -0.1008 -0.0721 -0.3316
  549loPI   C6A 8780   9.325  13.665   8.363 -0.1408 -0.0425  0.1329
  549loPI   C1B 8781   9.607  15.450   9.325 -0.0583  0.2172  0.0362
  549loPI   C2B 8782   9.461  15.711   8.956 -0.0691 -0.0339 -0.3048
  549loPI   C3B 8783   9.412  15.778   8.468 -0.0046  0.1449  0.0327
  549loPI   C4B 8784   9.344  15.743   8.028  0.1455 -0.0344 -0.2761
  550loPI    C1 8785  17.014  18.215  10.301 -0.3671  0.2943 -0.2665
  550loPI    C2 8786  16.715  18.358  10.524 -0.1628  0.0132  0.2020
  550loPI    C3 8787  17.089  18.358  10.667  0.0035  0.0003 -0.2203
  550loPI   PO4 8788  17.123  18.395  10.044 -0.4655  0.1223 -0.2956
  550loPI   GL1 8789  17.055  18.416   9.598  0.0269  0.2231 -0.0179
  550loPI   GL2 8790  17.377  18.281   9.584 -0.3526  0.0154 -0.1934
  550loPI   C1A 8791  17.170  18.342   9.164  0.2851  0.0633  0.0844
  550loPI   C2A 8792  17.112  18.022   8.801  0.5850 -0.3175  0.0572
  550loPI   C3A 8793  17.366  18.104   8.397 -0.3089 -0.0627 -0.0683
  550loPI   C4A 8794  17.260  18.239   7.971  0.0341  0.0772  0.0432
  550loPI   C5A 8795  17.155  18.445   7.633 -0.0695 -0.2080 -0.2201
  550loPI   C6A 8796  17.057  18.906   7.795 -0.1169 -0.1601  0.0609
  550loPI   C1B 8797  17.600  18.003   9.176  0.1832  0.0094 -0.0107
  550loPI   C2B 8798  17.664  17.852   8.801  0.0387  0.2756 -0.1859
  550loPI   C3B 8799  17.598  17.696   8.440  0.0410  0.0998  0.0808
  550loPI   C4B 8800  18.001  17.532   8.080 -0.6167  0.2278 -0.1148
  551loPI    C1 8801  18.129   7.112  10.100 -0.0387  0.0151 -0.3622
  551loPI    C2 8802  17.868   6.829   9.993 -0.1165  0.0296 -0.2128
  551loPI    C3 8803  17.789   7.065  10.306 -0.0099  0.1568 -0.2813
  551loPI   PO4 8804  18.230   7.218   9.820 -0.2187  0.1135  0.0043
  551loPI   GL1 8805  18.086   7.081   9.472  0.0123 -0.1279  0.0591
  551loPI   GL2 8806  17.885   6.797   9.479  0.5236 -0.0988  0.0010
  551loPI   C1A 8807  17.745   7.135   9.156  0.1777 -0.2022 -0.0822
  551loPI   C2A 8808  17.651   6.762   8.919 -0.1248 -0.0137  0.0009
  551loPI   C3A 8809  17.692   6.542   8.609 -0.2384 -0.2745  0.0194
  551loPI   C4A 8810  17.745   6.396   8.174 -0.0002  0.0361 -0.1076
  551loPI   C5A 8811  17.809   6.184   7.851 -0.2201 -0.0346 -0.1691
  551loPI   C6A 8812  17.728   5.791   7.713  0.3865 -0.1238  0.0694
  551loPI   C1B 8813  18.102   6.652   9.172 -0.3421  0.0478  0.0628
  551loPI   C2B 8814  18.194   6.571   8.757  0.0304  0.2568  0.1153
  551loPI   C3B 8815  18.162   6.599   8.370  0.3465 -0.0161  0.3191
  551loPI   C4B 8816  18.022   6.730   7.873 -0.1889  0.1818  0.0603
  552loPI    C1 8817   7.362  14.754  10.254  0.0645  0.0695 -0.0809
  552loPI    C2 8818   7.642  14.743  10.539 -0.0378  0.1440  0.0231
  552loPI    C3 8819   7.414  15.069  10.494 -0.1044  0.0859 -0.0643
  552loPI   PO4 8820   7.459  14.720  10.081 -0.2466  0.0716  0.1138
  552loPI   GL1 8821   7.356  14.843   9.760 -0.0434 -0.2562  0.2433
  552loPI   GL2 8822   7.181  14.512   9.728  0.0343 -0.0631  0.0324
  552loPI   C1A 8823   7.335  14.873   9.370 -0.0028 -0.0134 -0.1478
  552loPI   C2A 8824   7.374  14.859   8.934 -0.0667  0.2748  0.1063
  552loPI   C3A 8825   7.201  14.884   8.480  0.0011  0.0736  0.1938
  552loPI   C4A 8826   7.035  14.940   8.190 -0.1953  0.0617 -0.0216
  552loPI   C5A 8827   6.996  15.154   7.879  0.4242 -0.3333  0.0527
  552loPI   C6A 8828   7.085  15.296   7.539  0.3433 -0.0410  0.1445
  552loPI   C1B 8829   7.442  14.404   9.320  0.1126  0.3301  0.1286
  552loPI   C2B 8830   7.568  14.417   8.993 -0.1926  0.3114 -0.1940
  552loPI   C3B 8831   7.440  14.397   8.585 -0.1058  0.0711  0.1273
  552loPI   C4B 8832   7.508  14.013   8.240  0.2910 -0.0807 -0.0513
  553loPI    C1 8833   2.094   2.712  10.431 -0.2286 -0.2801 -0.0567
  553loPI    C2 8834   1.886   2.566  10.739 -0.1234 -0.1664  0.0697
  553loPI    C3 8835   2.246   2.415  10.651 -0.1618 -0.2121 -0.0105
  553loPI   PO4 8836   1.999   2.748  10.274  0.3348  0.1399  0.0431
  553loPI   GL1 8837   2.110   2.804   9.842  0.1675  0.2821  0.0640
  553loPI   GL2 8838   2.361   3.005   9.592  0.0788  0.1561  0.0902
  553loPI   C1A 8839   2.023   2.729   9.418 -0.1635  0.2078  0.1440
  553loPI   C2A 8840   2.221   2.905   9.070  0.1262  0.0140 -0.4464
  553loPI   C3A 8841   2.382   3.142   8.804  0.1378  0.2435 -0.0339
  553loPI   C4A 8842   2.523   3.326   8.435 -0.0100 -0.2120 -0.1438
  553loPI   C5A 8843   2.784   3.354   8.171 -0.1549  0.1318  0.0915
  553loPI   C6A 8844   2.811   3.399   7.626 -0.0472 -0.0745  0.3142
  553loPI   C1B 8845   2.578   2.653   9.312  0.2096 -0.0218  0.3568
  553loPI   C2B 8846   2.906   2.506   9.128 -0.0451  0.0042  0.0057
  553loPI   C3B 8847   3.096   2.619   8.904 -0.0080  0.1988 -0.0523
  553loPI   C4B 8848   3.342   2.912   8.690 -0.0403  0.2409 -0.1047
  554loPI    C1 8849  12.934  14.209  10.351  0.0937 -0.1544 -0.2430
  554loPI    C2 8850  13.088  14.072  10.694 -0.1705  0.1781  0.0145
  554loPI    C3 8851  12.839  14.386  10.697 -0.2967  0.0901 -0.4679
  554loPI   PO4 8852  13.033  14.248  10.216  0.2601 -0.0090 -0.0045
  554loPI   GL1 8853  12.878  14.189   9.798 -0.0206 -0.1829 -0.2832
  554loPI   GL2 8854  13.199  14.308   9.731 -0.2774  0.1089  0.1911
  554loPI   C1A 8855  12.851  14.361   9.389  0.2750  0.0249 -0.1682
  554loPI   C2A 8856  13.065  14.273   8.992  0.1427  0.0174 -0.3003
  554loPI   C3A 8857  13.170  14.313   8.554 -0.1396 -0.4018  0.2167
  554loPI   C4A 8858  13.211  14.644   8.279  0.2723  0.1030  0.0443
  554loPI   C5A 8859  13.077  14.682   7.861  0.1545  0.2620 -0.1632
  554loPI   C6A 8860  13.009  14.808   7.399  0.5687 -0.1570  0.2066
  554loPI   C1B 8861  13.525  14.305   9.321 -0.0722 -0.2775 -0.0843
  554loPI   C2B 8862  13.575  14.186   8.875 -0.1161 -0.1015 -0.3487
  554loPI   C3B 8863  13.715  14.234   8.516  0.0031  0.0996  0.0085
  554loPI   C4B 8864  13.927  14.086   8.209  0.0565 -0.1998  0.2670
  555loPI    C1 8865  14.512   4.842  10.468 -0.0722  0.2218 -0.0634
  555loPI    C2 8866  14.532   5.035  10.818 -0.1485 -0.1952  0.1770
  555loPI    C3 8867  14.606   4.642  10.801  0.1317 -0.1301 -0.3249
  555loPI   PO4 8868  14.692   5.000  10.331  0.5170 -0.0069 -0.2957
  555loPI   GL1 8869  14.596   5.281  10.034 -0.0474  0.1058 -0.1799
  555loPI   GL2 8870  14.759   5.039   9.845  0.1152 -0.1560 -0.3688
  555loPI   C1A 8871  14.499   5.492   9.663  0.0707 -0.1387  0.0522
  555loPI   C2A 8872  14.475   5.675   9.247  0.2529  0.2911 -0.1054
  555loPI   C3A 8873  14.354   5.674   8.712  0.1958  0.0125 -0.1405
  555loPI   C4A 8874  14.214   5.721   8.314  0.2603  0.3699 -0.3744
  555loPI   C5A 8875  14.104   5.710   7.920 -0.1032  0.3207 -0.0004
  555loPI   C6A 8876  14.210   5.771   7.501  0.1446 -0.2070 -0.1642
  555loPI   C1B 8877  14.583   4.823   9.439  0.3319 -0.2533  0.0319
  555loPI   C2B 8878  14.452   4.799   9.069 -0.0316 -0.2377  0.1703
  555loPI   C3B 8879  14.361   4.711   8.533 -0.1168 -0.2338 -0.2930
  555loPI   C4B 8880  14.418   4.958   8.130 -0.2014 -0.1345  0.1413
  556loPI    C1 8881  15.222   4.896  10.254  0.0806  0.2726 -0.0379
  556loPI    C2 8882  15.383   4.645  10.522  0.1119  0.2709 -0.0581
  556loPI    C3 8883  15.024   4.566  10.363  0.0247  0.3497  0.0967
  556loPI   PO4 8884  15.474   4.933  10.056  0.2148 -0.1062  0.0788
  556loPI   GL1 8885  15.607   4.967   9.655  0.1637  0.0323  0.2111
  556loPI   GL2 8886  15.858   4.905   9.362 -0.3946 -0.1507  0.0892
  556loPI   C1A 8887  15.115   4.827   9.462 -0.0471  0.2574 -0.0009
  556loPI   C2A 8888  14.972   4.881   9.061 -0.0370 -0.3922  0.1144
  556loPI   C3A 8889  14.828   4.807   8.627  0.2828 -0.3210 -0.3287
  556loPI   C4A 8890  14.861   4.738   8.272 -0.1380 -0.2220  0.0606
  556loPI   C5A 8891  14.795   4.825   7.840 -0.1281  0.0902  0.3999
  556loPI   C6A 8892  14.544   4.884   7.575 -0.1039 -0.0850 -0.2840
  556loPI   C1B 8893  15.532   4.893   8.967 -0.0466  0.2491  0.2273
  556loPI   C2B 8894  15.446   4.908   8.477 -0.0941 -0.1465 -0.0841
  556loPI   C3B 8895  15.211   5.026   8.062  0.0993  0.2387 -0.0447
  556loPI   C4B 8896  15.106   5.155   7.572 -0.0267  0.2400 -0.0637
  557loPI    C1 8897   5.364   9.832  10.225  0.0434  0.1681 -0.0606
  557loPI    C2 8898   5.082   9.827  10.508  0.0322 -0.2514 -0.0731
  557loPI    C3 8899   5.465   9.774  10.608  0.0493 -0.2090 -0.1156
  557loPI   PO4 8900   5.272   9.644  10.004  0.1461 -0.0390  0.2359
  557loPI   GL1 8901   5.113   9.505   9.536  0.3626 -0.3762 -0.1464
  557loPI   GL2 8902   5.355   9.773   9.490 -0.0456 -0.0288 -0.0376
  557loPI   C1A 8903   5.219   9.514   9.153  0.2767  0.0166  0.1477
  557loPI   C2A 8904   5.497   9.501   8.673  0.0727 -0.1355 -0.1909
  557loPI   C3A 8905   5.458   9.696   8.233  0.1789  0.0926 -0.2608
  557loPI   C4A 8906   5.440   9.665   7.837 -0.2397  0.0254  0.0665
  557loPI   C5A 8907   5.558   9.513   7.406  0.1495 -0.2707 -0.0082
  557loPI   C6A 8908   5.205   9.600   7.112  0.1091 -0.0656 -0.1182
  557loPI   C1B 8909   5.713   9.716   9.186 -0.1838 -0.0048  0.0172
  557loPI   C2B 8910   5.968   9.559   8.904  0.1194  0.2937 -0.1101
  557loPI   C3B 8911   6.393   9.649   8.914 -0.2774  0.0237  0.1487
  557loPI   C4B 8912   6.500   9.681   8.463  0.0248  0.3538  0.1629
  558loPI    C1 8913  18.562  14.010  10.137 -0.1279  0.0470 -0.0744
  558loPI    C2 8914  18.462  14.366  10.288  0.0113  0.1178 -0.1465
  558loPI    C3 8915  18.788  14.177  10.421 -0.0507  0.0267 -0.1234
  558loPI   PO4 8916  18.536  14.074   9.853  0.3932  0.0146  0.2069
  558loPI   GL1 8917  18.701  13.869   9.534 -0.2208 -0.0507  0.2209
  558loPI   GL2 8918  18.998  14.055   9.585  0.1480  0.0953  0.0214
  558loPI   C1A 8919  18.604  13.882   9.042 -0.4089  0.4112  0.3528
  558loPI   C2A 8920  18.613  13.995   8.605  0.1066 -0.0512  0.1290
  558loPI   C3A 8921  18.534  14.357   8.398  0.3263  0.0739  0.1102
  558loPI   C4A 8922  18.523  14.647   8.052  0.1241 -0.0087 -0.2420
  558loPI   C5A 8923  18.469  14.843   7.663 -0.1499  0.3089  0.0673
  558loPI   C6A 8924  18.313  15.130   7.489 -0.0473 -0.4094 -0.0424
  558loPI   C1B 8925  19.289  14.213   9.208  0.0235 -0.0908  0.3351
  558loPI   C2B 8926  19.380  14.251   8.759 -0.2980  0.0324 -0.2917
  558loPI   C3B 8927  19.539  14.594   8.528 -0.1344 -0.1058 -0.1005
  558loPI   C4B 8928  19.442  14.822   8.253  0.2663  0.1696  0.4112
  559loPI    C1 8929   0.373   5.469  10.236  0.0616 -0.2376  0.1021
  559loPI    C2 8930   0.250   5.796  10.432 -0.1299 -0.1709 -0.1237
  559loPI    C3 8931   0.534   5.562  10.590 -0.0538  0.0557  0.0805
  559loPI   PO4 8932   0.197   5.484  10.034  0.4959 -0.0093  0.0873
  559loPI   GL1 8933   0.046   5.787   9.663  0.0427 -0.0914  0.2358
  559loPI   GL2 8934   0.353   5.535   9.576  0.1807 -0.0028 -0.1770
  559loPI   C1A 8935   0.081   5.733   9.205  0.0173  0.3098  0.2356
  559loPI   C2A 8936   0.041   5.784   8.801 -0.1207  0.1043 -0.2989
  559loPI   C3A 8937   0.014   5.822   8.399 -0.1146 -0.0277  0.0364
  559loPI   C4A 8938  -0.054   6.024   8.029 -0.1391 -0.2354  0.0468
  559loPI   C5A 8939  -0.083   6.042   7.654  0.0683  0.1650 -0.2192
  559loPI   C6A 8940   0.087   6.047   7.257  0.4080  0.1644  0.0580
  559loPI   C1B 8941   0.482   5.410   9.251  0.0615  0.0869  0.0249
  559loPI   C2B 8942   0.413   5.431   8.850 -0.1288  0.1317 -0.0955
  559loPI   C3B 8943   0.392   5.457   8.479 -0.2368 -0.0045  0.2438
  559loPI   C4B 8944   0.512   5.645   8.153  0.3680 -0.0477  0.0032
  560loPI    C1 8945   1.793   4.767  10.133  0.1459 -0.1884  0.0075
  560loPI    C2 8946   1.734   4.372  10.119  0.0222 -0.1683 -0.0525
  560loPI    C3 8947   1.464   4.608  10.297  0.0372 -0.0988 -0.1218
  560loPI   PO4 8948   1.928   4.779   9.894  0.0431 -0.2884  0.0855
  560loPI   GL1 8949   2.158   4.863   9.575 -0.1112  0.2199  0.3572
  560loPI   GL2 8950   2.175   5.107   9.399  0.0351  0.1590 -0.0940
  560loPI   C1A 8951   2.191   4.549   9.251 -0.4221  0.1503 -0.0275
  560loPI   C2A 8952   2.117   4.736   8.817 -0.1442 -0.2918  0.1863
  560loPI   C3A 8953   2.199   4.804   8.446 -0.0798  0.0497  0.1031
  560loPI   C4A 8954   2.150   4.791   7.956 -0.1187 -0.0054 -0.0051
  560loPI   C5A 8955   1.869   4.659   7.650  0.0915  0.0800 -0.1894
  560loPI   C6A 8956   1.555   4.401   7.353  0.0797 -0.2333 -0.2857
  560loPI   C1B 8957   1.880   5.058   9.079 -0.0429 -0.1185  0.1471
  560loPI   C2B 8958   1.733   4.899   8.598  0.0953 -0.0404 -0.3173
  560loPI   C3B 8959   1.629   4.796   8.052  0.1574 -0.0465  0.1526
  560loPI   C4B 8960   1.328   4.573   7.823  0.1888 -0.4660 -0.1159
  561loPI    C1 8961  10.012   7.956  10.381 -0.1979  0.1717 -0.0347
  561loPI    C2 8962  10.368   8.050  10.537 -0.0996 -0.1573 -0.0535
  561loPI    C3 8963  10.079   7.904  10.772 -0.1304 -0.1494 -0.0863
  561loPI   PO4 8964  10.045   7.822  10.106 -0.2971  0.0663  0.2028
  561loPI   GL1 8965   9.911   7.915   9.699 -0.1544 -0.2113 -0.1747
  561loPI   GL2 8966   9.676   8.106   9.724  0.1931  0.1055 -0.1161
  561loPI   C1A 8967   9.830   7.628   9.406 -0.2658 -0.0459  0.0482
  561loPI   C2A 8968   9.830   7.506   9.050  0.0039  0.0005  0.1103
  561loPI   C3A 8969   9.880   7.526   8.575 -0.1420  0.3327  0.2018
  561loPI   C4A 8970   9.764   7.719   8.144  0.3266  0.0209 -0.0867
  561loPI   C5A 8971  10.125   7.837   7.894 -0.0501  0.1418  0.3090
  561loPI   C6A 8972  10.393   8.048   7.527 -0.0203  0.2399 -0.0088
  561loPI   C1B 8973   9.778   8.110   9.271  0.4108 -0.0326 -0.0621
  561loPI   C2B 8974   9.759   8.049   8.920 -0.1991  0.1314 -0.1086
  561loPI   C3B 8975   9.863   8.036   8.570 -0.1791 -0.0979  0.1106
  561loPI   C4B 8976  10.165   8.152   8.300  0.0243  0.2432  0.0207
  562loPI    C1 8977   9.350   8.897  10.248 -0.0291 -0.1293  0.1738
  562loPI    C2 8978   9.403   8.622  10.534 -0.1191 -0.0309  0.2864
  562loPI    C3 8979   9.274   8.989  10.630  0.2666  0.1403  0.1723
  562loPI   PO4 8980   9.519   8.752  10.054  0.0659 -0.0443  0.1883
  562loPI   GL1 8981   9.562   8.587   9.592 -0.0216  0.1660  0.3873
  562loPI   GL2 8982   9.534   8.941   9.464 -0.0686  0.1284  0.2783
  562loPI   C1A 8983   9.641   8.544   9.162  0.2675 -0.0317 -0.0284
  562loPI   C2A 8984   9.751   8.699   8.717  0.4118 -0.0107 -0.1001
  562loPI   C3A 8985   9.727   8.405   8.287 -0.1836 -0.2032  0.3663
  562loPI   C4A 8986   9.823   8.248   7.918  0.1867 -0.0663  0.3646
  562loPI   C5A 8987  10.041   8.485   7.499  0.2375  0.0325  0.0154
  562loPI   C6A 8988   9.807   8.553   7.138 -0.0944  0.0829  0.3285
  562loPI   C1B 8989   9.582   9.107   9.082 -0.0282 -0.2394  0.3045
  562loPI   C2B 8990   9.707   9.235   8.663 -0.2686  0.2636  0.4229
  562loPI   C3B 8991   9.691   8.966   8.219 -0.0355 -0.4042  0.0739
  562loPI   C4B 8992   9.801   8.805   7.823 -0.2821  0.3305  0.0366
  563loPI    C1 8993   6.847   9.376   9.903 -0.1491  0.0117  0.0614
  563loPI    C2 8994   6.954   9.683   9.670 -0.4046 -0.1196 -0.2368
  563loPI    C3 8995   6.861   9.746  10.054  0.0262  0.0982 -0.1616
  563loPI   PO4 8996   6.958   9.178   9.777 -0.0022  0.0082 -0.0628
  563loPI   GL1 8997   7.017   8.934   9.512 -0.0314 -0.1157 -0.0435
  563loPI   GL2 8998   6.814   8.841   9.406 -0.1896  0.0176  0.2035
  563loPI   C1A 8999   7.280   9.037   9.082  0.1372 -0.0938 -0.2641
  563loPI   C2A 9000   7.405   9.074   8.683 -0.2268 -0.1124 -0.3302
  563loPI   C3A 9001   7.242   8.986   8.279 -0.1360 -0.1053  0.0913
  563loPI   C4A 9002   7.239   9.014   7.763 -0.4849 -0.0427 -0.1772
  563loPI   C5A 9003   6.961   9.174   7.431 -0.4068 -0.5117 -0.2536
  563loPI   C6A 9004   6.757   9.358   7.092  0.1800 -0.1460 -0.1051
  563loPI   C1B 9005   6.926   8.696   9.048 -0.3772  0.4166  0.1372
  563loPI   C2B 9006   6.988   8.636   8.567 -0.1379  0.3373 -0.0677
  563loPI   C3B 9007   6.836   8.693   8.100  0.2564 -0.0483 -0.0359
  563loPI   C4B 9008   6.875   8.654   7.589  0.1369  0.1155 -0.3103
  564loPI    C1 9009  11.832   5.680  10.740 -0.0210  0.1216  0.0014
  564loPI    C2 9010  11.485   5.879  10.740 -0.1109 -0.0294 -0.2940
  564loPI    C3 9011  11.813   6.049  10.891 -0.2379  0.2497 -0.3264
  564loPI   PO4 9012  11.706   5.531  10.423  0.0839 -0.0770 -0.4713
  564loPI   GL1 9013  11.722   5.377  10.015  0.0327 -0.0771  0.2581
  564loPI   GL2 9014  11.636   5.765   9.920 -0.0462 -0.1685  0.1402
  564loPI   C1A 9015  11.783   5.329   9.581 -0.0356  0.0711  0.1500
  564loPI   C2A 9016  11.785   5.447   9.198 -0.1755  0.0674  0.3278
  564loPI   C3A 9017  11.624   5.468   8.722 -0.2453 -0.1529  0.0415
  564loPI   C4A 9018  11.450   5.459   8.344  0.2945 -0.0322 -0.0327
  564loPI   C5A 9019  11.508   5.597   7.946 -0.2909  0.0143 -0.1116
  564loPI   C6A 9020  11.309   5.674   7.497  0.1597 -0.1344  0.2299
  564loPI   C1B 9021  11.628   5.916   9.441  0.1133  0.0267 -0.2805
  564loPI   C2B 9022  11.518   5.860   8.983 -0.3097  0.1506 -0.1724
  564loPI   C3B 9023  11.308   5.874   8.571 -0.2324 -0.0664 -0.2695
  564loPI   C4B 9024  11.339   6.100   8.220  0.0830  0.1479 -0.0314
  565loPI    C1 9025   8.229   7.891  10.216  0.1190  0.0677 -0.3058
  565loPI    C2 9026   8.054   7.632   9.966 -0.1497  0.0879 -0.1425
  565loPI    C3 9027   8.073   7.551  10.358 -0.2578  0.3246 -0.0863
  565loPI   PO4 9028   8.512   8.025  10.007 -0.0440 -0.1498  0.4002
  565loPI   GL1 9029   8.666   8.114   9.634  0.0699 -0.0516 -0.0546
  565loPI   GL2 9030   8.674   8.323   9.445  0.0731  0.0690 -0.2695
  565loPI   C1A 9031   9.125   8.153   9.448 -0.0108  0.2332 -0.1512
  565loPI   C2A 9032   9.249   8.201   9.086  0.2892  0.1174 -0.0426
  565loPI   C3A 9033   9.360   8.319   8.688  0.4129  0.0856 -0.1090
  565loPI   C4A 9034   9.367   8.084   8.410 -0.2391  0.0173 -0.0275
  565loPI   C5A 9035   9.415   7.908   7.928 -0.3270 -0.0843 -0.1322
  565loPI   C6A 9036   9.263   7.878   7.601  0.3989  0.0775  0.1158
  565loPI   C1B 9037   8.746   8.499   9.070 -0.0360 -0.3788 -0.2259
  565loPI   C2B 9038   8.812   8.575   8.713  0.2825  0.1311  0.3357
  565loPI   C3B 9039   8.878   8.494   8.284 -0.2834 -0.2945  0.0272
  565loPI   C4B 9040   9.145   8.318   7.971 -0.3487 -0.0052  0.2049
  566loPI    C1 9041  14.908  13.400  10.341 -0.1593 -0.0063 -0.0067
  566loPI    C2 9042  14.626  13.279  10.599 -0.0354  0.1037  0.1828
  566loPI    C3 9043  14.997  13.353  10.729  0.1381 -0.2390 -0.0993
  566loPI   PO4 9044  14.951  13.165  10.112  0.1034 -0.5059  0.2959
  566loPI   GL1 9045  15.011  13.196   9.676  0.2728 -0.1941  0.1023
  566loPI   GL2 9046  14.851  13.529   9.693  0.3689 -0.1187  0.0963
  566loPI   C1A 9047  14.841  12.910   9.403 -0.1497  0.1220 -0.2002
  566loPI   C2A 9048  14.920  12.709   9.056  0.2109  0.2435 -0.0877
  566loPI   C3A 9049  14.917  12.570   8.620 -0.3675 -0.0733  0.0217
  566loPI   C4A 9050  14.980  12.530   8.169 -0.2446 -0.0314 -0.0312
  566loPI   C5A 9051  15.023  12.577   7.748  0.0127  0.0058 -0.1006
  566loPI   C6A 9052  15.413  12.476   7.484 -0.0422 -0.1766 -0.1503
  566loPI   C1B 9053  15.055  13.427   9.231  0.2921 -0.0549 -0.1208
  566loPI   C2B 9054  15.172  13.659   8.919 -0.0323  0.0391  0.2155
  566loPI   C3B 9055  15.238  13.590   8.545 -0.1543  0.1402 -0.0496
  566loPI   C4B 9056  15.216  13.610   8.165 -0.0730  0.1064  0.2836
  567loPI    C1 9057  10.121  17.226  10.102 -0.0427  0.2073  0.1321
  567loPI    C2 9058  10.043  16.854   9.976  0.0532  0.1956  0.1058
  567loPI    C3 9059   9.814  17.022  10.258  0.1018  0.0595  0.2280
  567loPI   PO4 9060  10.107  17.345   9.925  0.0628  0.3056 -0.2057
  567loPI   GL1 9061  10.052  17.121   9.541  0.3054  0.1299 -0.1328
  567loPI   GL2 9062   9.870  17.476   9.542 -0.1794 -0.1165 -0.1754
  567loPI   C1A 9063  10.229  16.963   9.215 -0.0606 -0.2965 -0.1184
  567loPI   C2A 9064  10.428  16.622   8.917 -0.2067 -0.0454 -0.1070
  567loPI   C3A 9065  10.535  16.533   8.638  0.0104  0.1761  0.1753
  567loPI   C4A 9066  10.456  16.426   8.183  0.1416 -0.0530  0.3110
  567loPI   C5A 9067  10.584  16.313   7.789 -0.1000 -0.0291 -0.3820
  567loPI   C6A 9068  10.876  16.165   7.493 -0.1624  0.2224  0.0066
  567loPI   C1B 9069   9.921  17.353   9.161 -0.2380 -0.3178 -0.1974
  567loPI   C2B 9070  10.160  17.075   8.775 -0.2503 -0.2543  0.2263
  567loPI   C3B 9071  10.332  16.931   8.352  0.0410 -0.2958  0.0756
  567loPI   C4B 9072  10.471  16.899   7.895 -0.3162  0.3249  0.3357
  568loPI    C1 9073  15.754   3.333   9.855 -0.1303  0.1950 -0.0961
  568loPI    C2 9074  15.798   3.475  10.227  0.2208  0.0654 -0.0845
  568loPI    C3 9075  15.665   3.102  10.170 -0.0470  0.1609 -0.0974
  568loPI   PO4 9076  15.687   3.541   9.730 -0.1551 -0.2449  0.0368
  568loPI   GL1 9077  15.600   3.646   9.383  0.0248 -0.3092  0.1396
  568loPI   GL2 9078  15.321   3.470   9.346  0.0938  0.0026 -0.2636
  568loPI   C1A 9079  15.615   3.869   8.989  0.1751 -0.0621  0.2911
  568loPI   C2A 9080  15.622   3.922   8.587 -0.0475 -0.1405 -0.3696
  568loPI   C3A 9081  15.605   3.633   8.361  0.2826  0.5810  0.1861
  568loPI   C4A 9082  15.622   3.173   8.010  0.1126  0.0994  0.1728
  568loPI   C5A 9083  15.490   2.796   8.114  0.1178  0.1755 -0.0757
  568loPI   C6A 9084  15.189   2.752   8.403  0.1201 -0.0701  0.2468
  568loPI   C1B 9085  15.101   3.470   8.966  0.0860 -0.0499 -0.2784
  568loPI   C2B 9086  14.755   3.509   8.692 -0.1268  0.0150 -0.1118
  568loPI   C3B 9087  14.718   3.436   8.334  0.0447  0.5341  0.0354
  568loPI   C4B 9088  14.688   3.405   7.884  0.0904  0.0682 -0.2628
  569loPI    C1 9089  16.887  15.683  10.232 -0.0360  0.1127 -0.0601
  569loPI    C2 9090  16.787  15.421  10.517 -0.0872 -0.0554 -0.2311
  569loPI    C3 9091  16.705  15.809  10.565  0.0203 -0.0643  0.0391
  569loPI   PO4 9092  17.091  15.705  10.179  0.3116  0.0129 -0.0023
  569loPI   GL1 9093  17.240  15.900   9.835  0.1041 -0.2437 -0.2262
  569loPI   GL2 9094  17.526  15.871   9.971  0.0007 -0.0731  0.0388
  569loPI   C1A 9095  17.239  16.142   9.415 -0.1846 -0.1394 -0.2006
  569loPI   C2A 9096  17.222  16.165   8.950  0.0003  0.1008 -0.0803
  569loPI   C3A 9097  17.130  16.120   8.580 -0.1735 -0.0231  0.3072
  569loPI   C4A 9098  17.142  16.132   8.169  0.1593  0.1678  0.1628
  569loPI   C5A 9099  17.035  16.287   7.803 -0.0970  0.1330 -0.0065
  569loPI   C6A 9100  16.936  16.406   7.464  0.0132  0.1801  0.0365
  569loPI   C1B 9101  17.654  16.012   9.579  0.1435 -0.0527 -0.0574
  569loPI   C2B 9102  17.675  16.187   9.123  0.1519  0.3136 -0.1724
  569loPI   C3B 9103  17.617  16.342   8.702 -0.2215 -0.0172  0.0148
  569loPI   C4B 9104  17.583  16.209   8.356 -0.1926  0.0603 -0.1243
  570loPI    C1 9105   5.752  10.445   9.721 -0.1385  0.0108  0.0395
  570loPI    C2 9106   5.515  10.485  10.040 -0.0491  0.0352  0.1032
  570loPI    C3 9107   5.880  10.325  10.080 -0.1003 -0.1134 -0.0150
  570loPI   PO4 9108   5.576  10.236   9.573  0.2398 -0.1498  0.0905
  570loPI   GL1 9109   5.562  10.187   9.112  0.2480 -0.0804 -0.0276
  570loPI   GL2 9110   5.404  10.473   9.124  0.1039  0.0250 -0.0158
  570loPI   C1A 9111   5.585  10.036   8.792 -0.1805 -0.1124 -0.0558
  570loPI   C2A 9112   5.723  10.100   8.336  0.0586  0.0677 -0.0595
  570loPI   C3A 9113   5.786  10.013   7.893  0.0095 -0.0911  0.2850
  570loPI   C4A 9114   5.929   9.745   7.666 -0.1775  0.2288 -0.1104
  570loPI   C5A 9115   6.021   9.326   7.506 -0.0608 -0.3181  0.0374
  570loPI   C6A 9116   6.418   9.197   7.535  0.1243 -0.2194  0.3169
  570loPI   C1B 9117   5.291  10.500   8.708 -0.0917 -0.0483  0.0798
  570loPI   C2B 9118   5.401  10.554   8.236 -0.2706  0.1024 -0.2420
  570loPI   C3B 9119   5.474  10.386   7.866 -0.1909 -0.4804  0.0342
  570loPI   C4B 9120   5.566  10.043   7.447  0.0783  0.3234  0.0366
  571loPI    C1 9121  18.508   3.113  10.315 -0.1792  0.0551  0.0236
  571loPI    C2 9122  18.313   2.776  10.410  0.0410 -0.1225 -0.1423
  571loPI    C3 9123  18.120   3.074  10.224 -0.2379 -0.0195  0.2960
  571loPI   PO4 9124  18.748   3.033  10.206  0.0112  0.3061 -0.0387
  571loPI   GL1 9125  18.855   3.086   9.664  0.2150 -0.1120 -0.1109
  571loPI   GL2 9126  19.258   3.269   9.745 -0.1759  0.0934  0.0646
  571loPI   C1A 9127  18.648   3.271   9.221  0.0554  0.0842  0.0333
  571loPI   C2A 9128  18.565   3.204   8.776 -0.1940  0.0424  0.1404
  571loPI   C3A 9129  18.378   3.131   8.412 -0.2808  0.1913  0.3219
  571loPI   C4A 9130  18.303   3.022   7.988  0.2838 -0.1377 -0.0530
  571loPI   C5A 9131  18.287   2.666   7.763  0.0026  0.0115 -0.0140
  571loPI   C6A 9132  18.290   2.318   7.501  0.1374  0.1390 -0.0043
  571loPI   C1B 9133  19.273   3.142   9.309  0.0552  0.2945 -0.0611
  571loPI   C2B 9134  19.200   3.231   8.794  0.0327  0.1207 -0.1812
  571loPI   C3B 9135  18.976   3.009   8.503 -0.3193 -0.0505  0.0872
  571loPI   C4B 9136  18.652   2.729   8.239  0.3992 -0.3320 -0.2123
  572loPI    C1 9137  18.345  13.000  10.275 -0.0085  0.1792  0.0217
  572loPI    C2 9138  17.999  12.834  10.160  0.1124 -0.1478  0.1197
  572loPI    C3 9139  17.999  13.131  10.428 -0.1039 -0.0180 -0.0216
  572loPI   PO4 9140  18.561  13.002  10.056 -0.0792  0.2020 -0.0771
  572loPI   GL1 9141  18.501  13.032   9.675  0.0886 -0.0767  0.0640
  572loPI   GL2 9142  18.225  12.808   9.644 -0.0375  0.3101  0.3170
  572loPI   C1A 9143  18.752  13.210   9.352 -0.2856 -0.0718  0.3283
  572loPI   C2A 9144  18.652  13.254   8.896  0.0512  0.0904 -0.0045
  572loPI   C3A 9145  18.391  13.086   8.589  0.0475 -0.2996 -0.0517
  572loPI   C4A 9146  18.425  12.658   8.416  0.0572  0.0315 -0.1604
  572loPI   C5A 9147  18.543  12.574   7.922 -0.3076 -0.1466  0.1721
  572loPI   C6A 9148  18.434  12.670   7.486  0.0661 -0.0567  0.0321
  572loPI   C1B 9149  18.255  12.517   9.271 -0.2957 -0.2818 -0.2315
  572loPI   C2B 9150  18.132  12.520   8.794  0.2204  0.1051 -0.1466
  572loPI   C3B 9151  17.934  12.712   8.400 -0.1271  0.0045 -0.2209
  572loPI   C4B 9152  18.192  12.953   8.154 -0.1479 -0.1854  0.1635
  573loPI    C1 9153  18.748  10.798  10.239  0.2896 -0.3092 -0.0336
  573loPI    C2 9154  18.925  10.943  10.567 -0.0641  0.0740 -0.0034
  573loPI    C3 9155  19.106  10.659  10.351  0.4329  0.2228  0.2014
  573loPI   PO4 9156  18.614  10.948  10.077  0.0434  0.1405 -0.3191
  573loPI   GL1 9157  18.585  10.958   9.571  0.1736 -0.1592  0.1033
  573loPI   GL2 9158  18.744  10.685   9.373  0.0483 -0.1005 -0.1526
  573loPI   C1A 9159  18.426  11.178   9.248  0.0267  0.2260 -0.2892
  573loPI   C2A 9160  18.479  11.527   8.965 -0.0629 -0.0295  0.2331
  573loPI   C3A 9161  18.319  11.741   8.657 -0.2859  0.0058  0.1692
  573loPI   C4A 9162  18.252  11.717   8.266 -0.0381 -0.2576  0.1342
  573loPI   C5A 9163  18.706  11.596   8.147 -0.4300 -0.2268 -0.1813
  573loPI   C6A 9164  18.869  11.249   7.875 -0.2817  0.0585 -0.0739
  573loPI   C1B 9165  18.704  10.582   8.958  0.2698  0.0404 -0.0182
  573loPI   C2B 9166  18.829  10.489   8.500  0.0416 -0.1866 -0.0200
  573loPI   C3B 9167  18.677  10.289   8.096  0.0142  0.0531  0.0337
  573loPI   C4B 9168  18.646  10.049   7.877  0.0937 -0.1660  0.2715
  574loPI    C1 9169  16.380  16.183  10.233 -0.1273  0.2990 -0.1224
  574loPI    C2 9170  16.045  16.140  10.447  0.2308 -0.4339  0.3325
  574loPI    C3 9171  16.358  16.334  10.603  0.1355 -0.0180  0.0271
  574loPI   PO4 9172  16.247  16.147   9.916  0.1885 -0.0611 -0.0386
  574loPI   GL1 9173  16.532  16.126   9.532  0.4373  0.0796  0.1510
  574loPI   GL2 9174  16.136  16.113   9.432  0.0553  0.0238  0.3284
  574loPI   C1A 9175  16.849  15.815   9.327 -0.3479 -0.1906  0.0736
  574loPI   C2A 9176  16.930  15.722   8.894  0.1668  0.2430  0.0403
  574loPI   C3A 9177  17.032  15.674   8.431  0.1020 -0.3921  0.0358
  574loPI   C4A 9178  16.928  15.668   8.040 -0.1310 -0.1961  0.1292
  574loPI   C5A 9179  17.245  15.863   7.678 -0.0311  0.0227 -0.0874
  574loPI   C6A 9180  17.514  16.307   7.889 -0.0288  0.2725  0.0093
  574loPI   C1B 9181  15.785  16.462   9.232 -0.1689 -0.0184  0.1285
  574loPI   C2B 9182  15.569  16.336   8.848 -0.2654 -0.2092  0.3138
  574loPI   C3B 9183  15.618  16.337   8.373 -0.0003  0.1593  0.1996
  574loPI   C4B 9184  15.574  16.433   7.956  0.0410 -0.0647  0.1339
  575loPI    C1 9185   0.103   9.100  10.265 -0.0165  0.3321 -0.0861
  575loPI    C2 9186   0.267   9.056  10.627 -0.2320 -0.2570 -0.0496
  575loPI    C3 9187  -0.084   9.243  10.589 -0.0715  0.0617  0.0044
  575loPI   PO4 9188   0.264   9.201  10.080  0.0493 -0.1396  0.1657
  575loPI   GL1 9189   0.200   9.103   9.719  0.1982  0.0191 -0.0734
  575loPI   GL2 9190  -0.038   9.121   9.497 -0.2315  0.1299  0.0467
  575loPI   C1A 9191   0.420   9.169   9.311  0.0633  0.0013  0.2656
  575loPI   C2A 9192   0.427   9.320   8.912 -0.0932 -0.0313  0.0956
  575loPI   C3A 9193   0.374   9.398   8.494  0.0571  0.0722  0.0924
  575loPI   C4A 9194   0.745   9.314   8.285 -0.1652  0.1558  0.1189
  575loPI   C5A 9195   1.027   9.177   8.039 -0.0121 -0.1911 -0.1482
  575loPI   C6A 9196   1.372   9.090   8.092  0.2311 -0.0212 -0.1731
  575loPI   C1B 9197  -0.007   8.940   9.097  0.0990  0.1631  0.1378
  575loPI   C2B 9198   0.122   8.958   8.718 -0.1177  0.2587 -0.0030
  575loPI   C3B 9199   0.207   8.966   8.283  0.0367  0.0371  0.2701
  575loPI   C4B 9200   0.290   9.148   7.973  0.0948 -0.2940  0.1394
  576loPI    C1 9201   1.901   5.263   9.815  0.0347  0.0481 -0.1502
  576loPI    C2 9202   2.032   5.223  10.191 -0.0321  0.4686 -0.0770
  576loPI    C3 9203   2.287   5.184   9.886 -0.0297 -0.1510 -0.0101
  576loPI   PO4 9204   1.868   5.487   9.740  0.1333 -0.0613 -0.2395
  576loPI   GL1 9205   1.997   5.590   9.304  0.0581 -0.0661 -0.0996
  576loPI   GL2 9206   1.602   5.492   9.215 -0.1855  0.1486  0.3308
  576loPI   C1A 9207   1.935   5.572   8.888  0.1813 -0.0649  0.1101
  576loPI   C2A 9208   1.950   5.369   8.497  0.0024  0.0278  0.1991
  576loPI   C3A 9209   2.050   5.357   8.171  0.2581  0.1723  0.0413
  576loPI   C4A 9210   2.122   5.204   7.743 -0.3731 -0.1416  0.2826
  576loPI   C5A 9211   2.381   5.126   7.411  0.1807  0.0144  0.2886
  576loPI   C6A 9212   2.200   5.172   6.951  0.1484  0.1591  0.3237
  576loPI   C1B 9213   1.460   5.728   8.731  0.2402 -0.0811  0.1691
  576loPI   C2B 9214   1.563   5.727   8.323 -0.0492 -0.1633 -0.2855
  576loPI   C3B 9215   1.785   5.609   7.888 -0.1273  0.1844 -0.1266
  576loPI   C4B 9216   1.702   5.497   7.505 -0.0370 -0.1515 -0.4164
  577loPI    C1 9217   9.177  13.561  10.296  0.0067 -0.1567  0.0739
  577loPI    C2 9218   9.450  13.727  10.536  0.0164 -0.0987  0.0230
  577loPI    C3 9219   9.086  13.640  10.677 -0.0137  0.0357  0.0298
  577loPI   PO4 9220   9.147  13.746  10.008  0.2048  0.0528  0.0590
  577loPI   GL1 9221   9.167  13.901   9.622  0.1349  0.1842  0.0581
  577loPI   GL2 9222   9.093  14.246   9.626  0.0159 -0.2663 -0.2061
  577loPI   C1A 9223   9.437  14.000   9.283  0.0940 -0.3300  0.0659
  577loPI   C2A 9224   9.492  13.865   8.831 -0.2176 -0.0619  0.4245
  577loPI   C3A 9225   9.311  14.162   8.458 -0.0890  0.0008  0.3074
  577loPI   C4A 9226   9.161  14.166   8.041  0.2106  0.5098 -0.0420
  577loPI   C5A 9227   8.745  14.122   7.935 -0.0658 -0.1783  0.0944
  577loPI   C6A 9228   8.570  13.954   7.511 -0.0291  0.0030  0.2371
  577loPI   C1B 9229   9.166  14.520   9.280 -0.1375 -0.3038 -0.0855
  577loPI   C2B 9230   9.330  14.453   8.843  0.3002 -0.0363  0.0288
  577loPI   C3B 9231   9.577  14.817   8.691  0.1541  0.0059  0.2620
  577loPI   C4B 9232   9.818  15.129   8.893  0.3599  0.1542  0.3366
  578loPI    C1 9233  13.966   0.067  10.249  0.2999  0.2274 -0.1629
  578loPI    C2 9234  14.074   0.437  10.356  0.1907  0.1475  0.2386
  578loPI    C3 9235  14.264   0.121  10.511  0.0163  0.0274  0.2106
  578loPI   PO4 9236  13.992   0.105   9.912  0.1393 -0.0030  0.0986
  578loPI   GL1 9237  14.127   0.264   9.543 -0.0485 -0.0851 -0.0452
  578loPI   GL2 9238  13.963   0.577   9.512 -0.0308 -0.3390  0.0726
  578loPI   C1A 9239  14.287   0.123   9.202  0.4465 -0.1395 -0.0149
  578loPI   C2A 9240  14.457   0.130   8.762 -0.1880 -0.1808  0.0851
  578loPI   C3A 9241  14.740   0.443   8.496  0.1510 -0.1496  0.2767
  578loPI   C4A 9242  14.786   0.481   8.048  0.1505  0.1575  0.1976
  578loPI   C5A 9243  14.908   0.387   7.535  0.2591 -0.1128 -0.2519
  578loPI   C6A 9244  15.053   0.367   7.065 -0.1742  0.1450  0.0702
  578loPI   C1B 9245  13.717   0.335   9.221 -0.0815 -0.0929 -0.1955
  578loPI   C2B 9246  13.637   0.378   8.737 -0.0816  0.4036 -0.0809
  578loPI   C3B 9247  13.605   0.398   8.409 -0.1307 -0.0421 -0.1698
  578loPI   C4B 9248  13.496   0.575   8.006 -0.2626 -0.2243 -0.1188
  579loPI    C1 9249   9.367   4.143  10.124  0.1174  0.1483  0.0258
  579loPI    C2 9250   9.488   3.939  10.446  0.2631  0.1929 -0.0000
  579loPI    C3 9251   9.099   4.007  10.387  0.2259  0.0634  0.0934
  579loPI   PO4 9252   9.400   4.195   9.923 -0.1048  0.0287  0.1468
  579loPI   GL1 9253   9.298   3.988   9.530 -0.0566  0.0333 -0.2219
  579loPI   GL2 9254   9.588   3.871   9.604  0.1526  0.1103  0.1903
  579loPI   C1A 9255   9.341   4.092   9.104 -0.0155  0.0954  0.0932
  579loPI   C2A 9256   9.411   4.397   8.773 -0.0429 -0.1426 -0.1443
  579loPI   C3A 9257   9.331   4.772   8.637  0.1602 -0.2193  0.0654
  579loPI   C4A 9258   9.363   5.115   8.258 -0.4898  0.1796 -0.1385
  579loPI   C5A 9259   9.336   5.431   7.948  0.1320  0.2812  0.1273
  579loPI   C6A 9260   9.236   5.874   7.918  0.1647 -0.3010  0.1409
  579loPI   C1B 9261   9.600   3.628   9.237  0.1589 -0.0593 -0.2726
  579loPI   C2B 9262   9.730   3.320   8.982  0.2687  0.2525  0.0630
  579loPI   C3B 9263   9.732   3.158   8.498 -0.1143  0.1390  0.0007
  579loPI   C4B 9264   9.624   3.042   8.084  0.1322 -0.2667 -0.2867
  580loPI    C1 9265  17.684   3.862   9.710 -0.0052 -0.0194  0.1908
  580loPI    C2 9266  18.021   4.067   9.782 -0.0005 -0.0497  0.2551
  580loPI    C3 9267  17.949   3.725   9.977  0.0198 -0.1410  0.1041
  580loPI   PO4 9268  17.478   4.017   9.744 -0.0573  0.4318  0.1709
  580loPI   GL1 9269  17.178   4.079   9.325  0.0396 -0.0031  0.1351
  580loPI   GL2 9270  17.188   3.836   9.390  0.2166  0.0692 -0.0777
  580loPI   C1A 9271  17.455   4.254   9.092 -0.0537 -0.0353 -0.0040
  580loPI   C2A 9272  17.502   4.442   8.846 -0.0124 -0.4331 -0.2384
  580loPI   C3A 9273  17.262   4.645   8.483 -0.1885  0.2399 -0.0329
  580loPI   C4A 9274  17.017   4.979   8.187  0.2150 -0.0702 -0.2682
  580loPI   C5A 9275  17.003   5.380   8.364  0.0251  0.1103 -0.0130
  580loPI   C6A 9276  17.120   5.784   8.520  0.1831  0.2623 -0.0377
  580loPI   C1B 9277  17.355   3.391   9.283 -0.0890  0.0397  0.0453
  580loPI   C2B 9278  17.392   2.980   8.999  0.1608 -0.1401  0.1135
  580loPI   C3B 9279  17.401   2.923   8.599 -0.2340 -0.0441  0.1291
  580loPI   C4B 9280  17.335   3.051   8.233  0.0856 -0.2205 -0.1366
  581loPI    C1 9281   3.863   7.292  10.422  0.0370 -0.1062 -0.2031
  581loPI    C2 9282   4.068   7.634  10.459 -0.1723  0.0011 -0.0138
  581loPI    C3 9283   4.166   7.317  10.682 -0.1390  0.0164 -0.0066
  581loPI   PO4 9284   3.826   7.284  10.134  0.4526  0.0847  0.1952
  581loPI   GL1 9285   3.889   7.414   9.709  0.2205  0.1264 -0.0570
  581loPI   GL2 9286   4.101   7.577   9.859  0.0403  0.0096 -0.4441
  581loPI   C1A 9287   3.917   7.398   9.256  0.0403 -0.0515 -0.0058
  581loPI   C2A 9288   3.874   7.532   8.897  0.1742  0.4849 -0.0577
  581loPI   C3A 9289   3.624   7.460   8.577 -0.0022  0.1262 -0.0975
  581loPI   C4A 9290   3.296   7.380   8.305 -0.0074 -0.1430 -0.0861
  581loPI   C5A 9291   3.270   7.474   7.830  0.2225 -0.3023  0.4052
  581loPI   C6A 9292   2.973   7.745   7.585 -0.0173 -0.0691 -0.0299
  581loPI   C1B 9293   4.291   7.718   9.469 -0.0957  0.3039  0.1245
  581loPI   C2B 9294   4.331   7.595   8.993 -0.2048  0.1853  0.0855
  581loPI   C3B 9295   4.276   7.507   8.600  0.1291 -0.2244 -0.0201
  581loPI   C4B 9296   4.182   7.563   8.212 -0.0691  0.1613  0.1792
  582loPI    C1 9297   6.468   0.372  10.697 -0.1516 -0.0160 -0.1800
  582loPI    C2 9298   6.518   0.622  11.006 -0.1461 -0.0273 -0.1717
  582loPI    C3 9299   6.187   0.399  10.980 -0.2807  0.1864 -0.3250
  582loPI   PO4 9300   6.535   0.541  10.474  0.0358  0.0527  0.2360
  582loPI   GL1 9301   6.736   0.457  10.064  0.1374  0.1580 -0.1040
  582loPI   GL2 9302   7.144   0.193  10.035  0.1466 -0.2399 -0.2319
  582loPI   C1A 9303   6.624   0.554   9.698 -0.0948 -0.1697 -0.2428
  582loPI   C2A 9304   6.696   0.361   9.293  0.1860 -0.0775 -0.2116
  582loPI   C3A 9305   6.702   0.463   8.888 -0.1773 -0.0623 -0.0066
  582loPI   C4A 9306   6.662   0.380   8.584  0.1754 -0.0957 -0.0759
  582loPI   C5A 9307   6.658   0.462   8.095  0.2008  0.1795  0.1458
  582loPI   C6A 9308   6.779   0.130   7.813 -0.1629  0.0726 -0.1311
  582loPI   C1B 9309   7.453   0.019   9.655  0.1414 -0.0203 -0.2838
  582loPI   C2B 9310   7.579  -0.016   9.252 -0.2525 -0.5966 -0.1172
  582loPI   C3B 9311   7.476  -0.003   8.901  0.1720  0.0758  0.0377
  582loPI   C4B 9312   7.431  -0.068   8.413  0.0723  0.2408 -0.2493
  583loPI    C1 9313   3.200  13.509  10.203 -0.0401 -0.1487  0.0185
  583loPI    C2 9314   2.828  13.635  10.128 -0.0429 -0.1183  0.0829
  583loPI    C3 9315   2.892  13.358  10.408 -0.0211 -0.1519  0.0447
  583loPI   PO4 9316   3.284  13.419   9.978  0.0974  0.0842 -0.0028
  583loPI   GL1 9317   3.373  13.617   9.611 -0.0212  0.3501  0.0386
  583loPI   GL2 9318   3.451  13.896   9.510 -0.4139 -0.0995  0.1082
  583loPI   C1A 9319   3.435  13.492   9.206  0.1851 -0.5665  0.1265
  583loPI   C2A 9320   3.271  13.414   8.938  0.0623 -0.2731 -0.1232
  583loPI   C3A 9321   3.081  13.552   8.607 -0.1809  0.1477 -0.2160
  583loPI   C4A 9322   3.117  13.629   8.102  0.1315  0.0979 -0.0391
  583loPI   C5A 9323   2.993  13.421   7.680  0.1724  0.0469 -0.0634
  583loPI   C6A 9324   2.703  13.203   7.415  0.0112  0.1284  0.1911
  583loPI   C1B 9325   3.436  14.156   9.170 -0.0203  0.1568 -0.0398
  583loPI   C2B 9326   3.499  14.308   8.821 -0.3051  0.0096 -0.2484
  583loPI   C3B 9327   3.870  14.161   8.626 -0.1388  0.1250  0.0553
  583loPI   C4B 9328   4.246  14.340   8.451 -0.3518  0.1411  0.2141
  584loPI    C1 9329   8.720   3.669  10.227  0.0593 -0.2255 -0.0656
  584loPI    C2 9330   8.972   3.499  10.487  0.0362 -0.1537  0.0039
  584loPI    C3 9331   8.605   3.605  10.605  0.0423 -0.0769 -0.0451
  584loPI   PO4 9332   8.747   3.556  10.037 -0.0127 -0.0412 -0.2319
  584loPI   GL1 9333   8.622   3.555   9.674 -0.0236 -0.1753  0.3041
  584loPI   GL2 9334   8.852   3.242   9.653  0.0109  0.2635  0.3620
  584loPI   C1A 9335   8.538   3.643   9.245  0.0016 -0.1250  0.0393
  584loPI   C2A 9336   8.730   3.823   8.936  0.0431  0.1290  0.2785
  584loPI   C3A 9337   9.062   4.017   8.722 -0.2728 -0.0784  0.0322
  584loPI   C4A 9338   9.070   4.404   8.415 -0.2382  0.2986  0.1773
  584loPI   C5A 9339   9.088   4.725   8.112  0.0150 -0.1724 -0.0351
  584loPI   C6A 9340   9.436   4.807   7.835  0.1067  0.0416 -0.3284
  584loPI   C1B 9341   8.815   3.184   9.238  0.1065  0.2060  0.2489
  584loPI   C2B 9342   8.741   3.187   8.797 -0.3389 -0.0492  0.2000
  584loPI   C3B 9343   8.726   3.034   8.387  0.2692 -0.0412  0.0424
  584loPI   C4B 9344   8.940   3.311   8.072 -0.0072  0.2957  0.0630
  585loPI    C1 9345   6.063   2.821  10.383 -0.3210 -0.2534 -0.1045
  585loPI    C2 9346   6.242   2.682  10.053 -0.0301 -0.0904 -0.0186
  585loPI    C3 9347   6.375   2.573  10.414  0.0177  0.1783  0.0473
  585loPI   PO4 9348   5.851   2.816  10.274  0.0220  0.3074  0.0818
  585loPI   GL1 9349   5.628   2.470   9.991 -0.4432 -0.1694 -0.2385
  585loPI   GL2 9350   5.904   2.284   9.801  0.1051 -0.1050  0.3443
  585loPI   C1A 9351   5.524   2.424   9.537  0.1359 -0.1358  0.0298
  585loPI   C2A 9352   5.697   2.394   9.131  0.3646  0.1373 -0.0366
  585loPI   C3A 9353   5.707   2.381   8.686  0.1540 -0.2865  0.0732
  585loPI   C4A 9354   5.643   2.183   8.231 -0.1426 -0.1678 -0.1132
  585loPI   C5A 9355   5.605   2.317   7.875  0.0658  0.1613 -0.0369
  585loPI   C6A 9356   5.603   2.462   7.363  0.1158 -0.3995 -0.0844
  585loPI   C1B 9357   6.024   2.662   9.542  0.1235  0.1181 -0.1280
  585loPI   C2B 9358   6.182   2.636   9.135  0.2527  0.0581 -0.0101
  585loPI   C3B 9359   6.350   2.619   8.768  0.0572  0.1713  0.1238
  585loPI   C4B 9360   6.329   2.651   8.392 -0.0344  0.2915 -0.0958
  586loPI    C1 9361   3.473   9.765   9.826 -0.0851 -0.1903  0.0120
  586loPI    C2 9362   3.343  10.141   9.862 -0.0747 -0.1766 -0.0906
  586loPI    C3 9363   3.255   9.872  10.144 -0.3869 -0.1854 -0.1929
  586loPI   PO4 9364   3.412   9.702   9.620 -0.4057  0.2500  0.0072
  586loPI   GL1 9365   3.660   9.616   9.219  0.1283 -0.3667  0.0394
  586loPI   GL2 9366   3.748   9.842   9.057 -0.0793 -0.1332 -0.1275
  586loPI   C1A 9367   3.822   9.347   8.826  0.2682  0.0097  0.0779
  586loPI   C2A 9368   3.833   9.383   8.311 -0.1288 -0.3052  0.1322
  586loPI   C3A 9369   4.058   9.128   8.057  0.1176 -0.1236  0.3104
  586loPI   C4A 9370   4.318   8.779   8.028  0.1343 -0.1316  0.1813
  586loPI   C5A 9371   4.394   8.346   7.894 -0.0561  0.0699  0.0911
  586loPI   C6A 9372   4.106   7.967   7.994  0.0655 -0.0118 -0.0150
  586loPI   C1B 9373   3.502   9.785   8.773 -0.0862  0.2207  0.3874
  586loPI   C2B 9374   3.205   9.601   8.519 -0.4649  0.3528  0.1157
  586loPI   C3B 9375   3.381   9.483   8.126 -0.0842 -0.0427 -0.0081
  586loPI   C4B 9376   3.650   9.239   7.749  0.1265  0.1508  0.1287
  587loPI    C1 9377   8.249   1.852  10.713  0.0410 -0.1786  0.1427
  587loPI    C2 9378   8.106   1.737  11.069 -0.0492  0.2933  0.2651
  587loPI    C3 9379   8.490   1.844  11.032  0.0446 -0.0698  0.1428
  587loPI   PO4 9380   8.203   1.617  10.443 -0.0416 -0.1029 -0.0663
  587loPI   GL1 9381   8.068   1.567   9.983  0.1191 -0.1014 -0.0753
  587loPI   GL2 9382   8.372   1.403   9.975  0.2122 -0.2639 -0.0286
  587loPI   C1A 9383   8.156   1.399   9.551 -0.1549 -0.2759  0.2552
  587loPI   C2A 9384   8.275   1.287   9.030 -0.0755 -0.0730  0.2184
  587loPI   C3A 9385   8.209   1.286   8.647  0.1449 -0.3168 -0.2374
  587loPI   C4A 9386   8.159   1.326   8.242  0.1810  0.0906  0.0306
  587loPI   C5A 9387   8.104   1.150   7.881 -0.1745 -0.0010 -0.1098
  587loPI   C6A 9388   7.945   1.067   7.491  0.1957 -0.3635  0.0699
  587loPI   C1B 9389   8.644   1.407   9.475  0.1257 -0.1396  0.1686
  587loPI   C2B 9390   8.833   1.313   9.060 -0.0619 -0.1408 -0.2767
  587loPI   C3B 9391   8.792   1.399   8.662 -0.2516  0.0423  0.0014
  587loPI   C4B 9392   8.681   1.366   8.325  0.0611 -0.0415 -0.1692
  588loPI    C1 9393   2.926  16.486  10.434  0.0342 -0.0266  0.0216
  588loPI    C2 9394   2.893  16.329  10.801  0.0854 -0.0153  0.0311
  588loPI    C3 9395   3.246  16.466  10.673  0.0768 -0.0571 -0.0379
  588loPI   PO4 9396   2.857  16.308  10.258 -0.1465 -0.1018  0.1566
  588loPI   GL1 9397   2.781  16.273   9.896  0.0202  0.0238 -0.2070
  588loPI   GL2 9398   2.743  16.044   9.597 -0.2685  0.1101  0.1553
  588loPI   C1A 9399   2.853  16.554   9.516  0.1028  0.0436  0.0460
  588loPI   C2A 9400   2.872  16.614   9.105  0.1965  0.4719  0.0789
  588loPI   C3A 9401   3.100  16.748   8.709 -0.0333  0.1046  0.0879
  588loPI   C4A 9402   2.968  16.992   8.237 -0.3654  0.3635  0.2858
  588loPI   C5A 9403   2.846  17.232   7.910  0.1628  0.3212 -0.1315
  588loPI   C6A 9404   2.663  17.630   7.886 -0.0860 -0.1470  0.2415
  588loPI   C1B 9405   2.559  16.121   9.138  0.2019 -0.0131 -0.0114
  588loPI   C2B 9406   2.541  16.455   8.749 -0.1054 -0.3242  0.2294
  588loPI   C3B 9407   2.581  16.684   8.344  0.2252  0.0256 -0.4562
  588loPI   C4B 9408   2.653  16.612   7.878 -0.0871  0.0699 -0.0128
  589loPI    C1 9409   6.885   8.633   9.921 -0.2094 -0.0797 -0.2951
  589loPI    C2 9410   7.257   8.553   9.796 -0.1091 -0.1235  0.0225
  589loPI    C3 9411   7.198   8.811  10.095 -0.3355 -0.1189 -0.0240
  589loPI   PO4 9412   6.749   8.442   9.692 -0.1630 -0.2453 -0.0337
  589loPI   GL1 9413   6.631   8.379   9.365  0.1284  0.0478  0.3494
  589loPI   GL2 9414   6.686   7.969   9.266 -0.0079 -0.1512  0.1932
  589loPI   C1A 9415   6.540   8.315   8.894 -0.0328  0.0660  0.2020
  589loPI   C2A 9416   6.552   8.239   8.430  0.1488 -0.0432  0.0035
  589loPI   C3A 9417   6.652   8.087   8.144  0.0713  0.2934  0.0703
  589loPI   C4A 9418   6.507   8.297   7.798 -0.3140  0.0536  0.1937
  589loPI   C5A 9419   6.465   8.474   7.368  0.0191 -0.0556 -0.1904
  589loPI   C6A 9420   6.240   8.770   7.092  0.2411 -0.1828  0.1252
  589loPI   C1B 9421   6.747   7.722   8.886  0.1854 -0.1836 -0.0833
  589loPI   C2B 9422   6.591   7.749   8.569 -0.0190 -0.0522 -0.0761
  589loPI   C3B 9423   6.550   7.574   8.254 -0.2816  0.0603 -0.1792
  589loPI   C4B 9424   6.491   7.609   7.724  0.1024 -0.0046  0.4285
  590loPI    C1 9425  13.284  11.884  10.397  0.0025 -0.3411 -0.2364
  590loPI    C2 9426  13.182  11.583  10.639 -0.0277 -0.1530 -0.0116
  590loPI    C3 9427  13.291  11.935  10.794 -0.0047 -0.0437 -0.2721
  590loPI   PO4 9428  13.071  11.914  10.200  0.2252  0.2613 -0.0923
  590loPI   GL1 9429  12.724  11.776  10.016 -0.1385  0.0671 -0.2029
  590loPI   GL2 9430  12.797  11.598   9.867  0.1615 -0.2448 -0.2688
  590loPI   C1A 9431  12.753  12.011   9.604  0.1972  0.1512  0.3070
  590loPI   C2A 9432  12.927  11.976   9.157  0.3185 -0.0716 -0.0080
  590loPI   C3A 9433  13.022  12.010   8.777  0.5087 -0.2272  0.1686
  590loPI   C4A 9434  12.988  12.025   8.348 -0.0397  0.3768 -0.2431
  590loPI   C5A 9435  13.250  11.900   8.012  0.0006 -0.0646 -0.0361
  590loPI   C6A 9436  13.689  11.837   7.884 -0.4097  0.2431 -0.0962
  590loPI   C1B 9437  12.754  11.532   9.429  0.1385 -0.2969  0.0533
  590loPI   C2B 9438  13.162  11.527   9.039  0.0340 -0.1284 -0.2796
  590loPI   C3B 9439  13.353  11.599   8.636 -0.0191  0.1569 -0.2057
  590loPI   C4B 9440  13.517  12.015   8.535  0.2276  0.1538 -0.0913
  591POPI    C1 9441  13.927   7.586  10.398 -0.0898  0.0514  0.0870
  591POPI    C2 9442  13.645   7.667  10.670  0.0457 -0.1042  0.2761
  591POPI    C3 9443  14.000   7.850  10.690  0.0738 -0.1539  0.2342
  591POPI   PO4 9444  13.786   7.386  10.256  0.0770 -0.2000  0.0234
  591POPI   GL1 9445  13.933   7.222   9.842 -0.0043  0.0596 -0.1591
  591POPI   GL2 9446  13.805   7.477   9.679  0.0769 -0.1286 -0.0913
  591POPI   C1A 9447  13.767   6.997   9.543  0.2073  0.0251  0.1079
  591POPI   D2A 9448  13.749   6.726   9.201  0.1275  0.1420 -0.2272
  591POPI   C3A 9449  13.744   6.499   8.782 -0.2711  0.2444  0.0386
  591POPI   C4A 9450  13.510   6.459   8.446 -0.3272  0.0429  0.1438
  591POPI   C1B 9451  13.859   7.484   9.237  0.1866  0.0535 -0.3502
  591POPI   C2B 9452  13.606   7.631   8.902 -0.1186 -0.1866  0.1935
  591POPI   C3B 9453  13.441   7.445   8.421 -0.0109 -0.1291 -0.3866
  591POPI   C4B 9454  13.202   7.356   8.020 -0.0736 -0.2497  0.0314
  592POPI    C1 9455   6.256   7.580   9.806 -0.1120  0.2373 -0.0342
  592POPI    C2 9456   6.111   7.807  10.102 -0.1033  0.1113  0.0676
  592POPI    C3 9457   6.217   7.428  10.174  0.1060  0.1466 -0.0473
  592POPI   PO4 9458   6.120   7.690   9.617 -0.2084 -0.0865 -0.0125
  592POPI   GL1 9459   6.266   7.683   9.187 -0.1999  0.3896  0.1162
  592POPI   GL2 9460   6.385   7.334   9.259  0.1935 -0.1679  0.1953
  592POPI   C1A 9461   6.244   7.519   8.822 -0.0483 -0.2174  0.0224
  592POPI   D2A 9462   6.171   7.328   8.408  0.1771  0.1499  0.1739
  592POPI   C3A 9463   6.203   7.175   8.017 -0.3118 -0.1594  0.0001
  592POPI   C4A 9464   6.112   6.845   7.686 -0.0270  0.0964 -0.0207
  592POPI   C1B 9465   6.209   7.066   9.010 -0.3581 -0.0386  0.0349
  592POPI   C2B 9466   6.303   6.884   8.638 -0.0899 -0.1962  0.2184
  592POPI   C3B 9467   6.335   6.728   8.295  0.2724 -0.0259  0.1607
  592POPI   C4B 9468   6.545   6.735   7.944 -0.1127 -0.0600  0.1960
  593POPI    C1 9469  16.363   5.488  10.212 -0.1221 -0.0295 -0.3958
  593POPI    C2 9470  16.325   5.170  10.452 -0.3601  0.1986 -0.1225
  593POPI    C3 9471  16.688   5.293  10.339 -0.2603 -0.0859 -0.1192
  593POPI   PO4 9472  16.197   5.513  10.015  0.1856  0.0257 -0.0232
  593POPI   GL1 9473  16.047   5.458   9.656 -0.4599  0.1042 -0.2429
  593POPI   GL2 9474  15.841   5.741   9.609 -0.1076 -0.0927 -0.0423
  593POPI   C1A 9475  15.945   5.415   9.265 -0.0556  0.0233  0.2153
  593POPI   D2A 9476  15.718   5.368   8.812  0.0404 -0.0729  0.4222
  593POPI   C3A 9477  16.077   5.462   8.533  0.0344 -0.1067 -0.3160
  593POPI   C4A 9478  16.311   5.764   8.267 -0.1242  0.1739 -0.1958
  593POPI   C1B 9479  15.442   5.396   9.409  0.3280  0.1860 -0.2037
  593POPI   C2B 9480  15.283   5.425   9.043 -0.2033  0.0556  0.1471
  593POPI   C3B 9481  15.090   5.227   8.740 -0.0990  0.0855  0.1161
  593POPI   C4B 9482  15.248   5.406   8.425  0.1410  0.2088  0.0354
  594POPI    C1 9483   2.540  17.602  10.110 -0.0841 -0.0505 -0.0844
  594POPI    C2 9484   2.698  17.716  10.460  0.1218 -0.1984 -0.1273
  594POPI    C3 9485   2.634  17.328  10.387 -0.2476 -0.1427 -0.1185
  594POPI   PO4 9486   2.326  17.949  10.096 -0.0819  0.1965  0.2374
  594POPI   GL1 9487   2.320  18.195   9.700 -0.1345 -0.0293 -0.0104
  594POPI   GL2 9488   2.339  18.421   9.398  0.0544 -0.1614 -0.1570
  594POPI   C1A 9489   2.477  17.912   9.336 -0.0169 -0.2415  0.0294
  594POPI   D2A 9490   2.581  17.512   9.131 -0.1574 -0.0246  0.1905
  594POPI   C3A 9491   2.267  17.236   9.193  0.2378 -0.2176 -0.0628
  594POPI   C4A 9492   1.968  17.256   9.330 -0.2018 -0.0969  0.3051
  594POPI   C1B 9493   2.164  18.629   9.083 -0.1128 -0.0166 -0.0156
  594POPI   C2B 9494   1.911  18.782   8.717 -0.0215  0.1719  0.1895
  594POPI   C3B 9495   1.758  18.592   8.335  0.1578  0.1381 -0.0926
  594POPI   C4B 9496   1.876  18.818   8.021 -0.0589  0.2459 -0.1180
  595POPI    C1 9497  18.160  18.086   9.937 -0.1257 -0.3550  0.1126
  595POPI    C2 9498  18.309  18.076  10.308 -0.1945 -0.1158  0.1478
  595POPI    C3 9499  17.921  18.002  10.246 -0.1982 -0.0830  0.1321
  595POPI   PO4 9500  18.344  17.920   9.781  0.0841 -0.0164  0.1505
  595POPI   GL1 9501  18.189  17.717   9.491  0.0287  0.0586 -0.0665
  595POPI   GL2 9502  18.488  17.701   9.317 -0.1042  0.0880 -0.0656
  595POPI   C1A 9503  18.030  17.658   9.139  0.1571 -0.0257 -0.2459
  595POPI   D2A 9504  18.109  17.670   8.702  0.0516  0.0599  0.1666
  595POPI   C3A 9505  18.424  17.591   8.422 -0.2420 -0.0763 -0.1626
  595POPI   C4A 9506  18.790  17.343   8.334 -0.3219 -0.3731 -0.1121
  595POPI   C1B 9507  18.458  18.017   8.940 -0.0620  0.0533  0.0100
  595POPI   C2B 9508  18.403  18.063   8.409  0.1039 -0.3349  0.0910
  595POPI   C3B 9509  18.272  18.028   8.027 -0.0966  0.2080 -0.0431
  595POPI   C4B 9510  18.515  17.998   7.640 -0.0493  0.0997  0.1037
  596POPI    C1 9511  15.398  14.309  10.343 -0.0943  0.0435  0.1563
  596POPI    C2 9512  15.770  14.451  10.382 -0.1705  0.2474  0.1575
  596POPI    C3 9513  15.606  14.234  10.676  0.0292 -0.0408  0.0609
  596POPI   PO4 9514  15.357  14.185  10.099  0.0152 -0.0463 -0.1292
  596POPI   GL1 9515  15.286  14.034   9.705  0.3984  0.1357 -0.1612
  596POPI   GL2 9516  15.300  13.736   9.517  0.0338 -0.2337 -0.0494
  596POPI   C1A 9517  15.204  14.155   9.253 -0.2812 -0.0008  0.1005
  596POPI   D2A 9518  15.001  14.476   9.045  0.0348 -0.2012  0.1505
  596POPI   C3A 9519  15.001  14.424   8.553  0.1061  0.0132  0.0295
  596POPI   C4A 9520  15.006  14.408   8.107  0.2677  0.1836  0.0879
  596POPI   C1B 9521  15.558  13.480   9.174  0.0109  0.0691  0.1383
  596POPI   C2B 9522  15.723  13.462   8.812 -0.3393 -0.0021  0.0773
  596POPI   C3B 9523  15.709  13.648   8.374 -0.2277  0.2752  0.1006
  596POPI   C4B 9524  15.710  13.728   7.936  0.1280 -0.1117 -0.1523
  597POPI    C1 9525  17.659   0.121   9.899 -0.1040 -0.0754 -0.0414
  597POPI    C2 9526  17.493   0.265  10.234  0.0904 -0.0084  0.0278
  597POPI    C3 9527  17.835   0.058  10.253  0.0915 -0.0225 -0.1276
  597POPI   PO4 9528  17.479  -0.115   9.781  0.0243 -0.0391 -0.0157
  597POPI   GL1 9529  17.469  -0.157   9.377 -0.3598 -0.3301 -0.2332
  597POPI   GL2 9530  17.460   0.193   9.411 -0.2647  0.1545  0.2500
  597POPI   C1A 9531  17.585  -0.207   9.040  0.1735  0.0740  0.2216
  597POPI   D2A 9532  17.350  -0.258   8.739 -0.1428 -0.0387 -0.2881
  597POPI   C3A 9533  17.166   0.160   8.542  0.0993  0.3351  0.1176
  597POPI   C4A 9534  17.396   0.166   8.112  0.1539 -0.0619  0.3020
  597POPI   C1B 9535  17.434   0.231   8.991  0.0122  0.2775 -0.0275
  597POPI   C2B 9536  17.711   0.222   8.732 -0.0195 -0.1058 -0.0760
  597POPI   C3B 9537  17.801  -0.094   8.526  0.1128  0.3038  0.0321
  597POPI   C4B 9538  17.566  -0.308   8.258  0.0016  0.0072  0.2388
  598POPI    C1 9539  16.465   0.168  10.286  0.1426  0.0836  0.0317
  598POPI    C2 9540  16.335   0.546  10.270 -0.0438  0.0157 -0.0853
  598POPI    C3 9541  16.480   0.399  10.613 -0.2718  0.0954  0.0476
  598POPI   PO4 9542  16.576   0.107  10.072  0.0338  0.0641 -0.0104
  598POPI   GL1 9543  16.681   0.193   9.720  0.1455  0.0175  0.0229
  598POPI   GL2 9544  16.928   0.082   9.602 -0.0652 -0.4120  0.0739
  598POPI   C1A 9545  16.602   0.275   9.249 -0.2485 -0.1036 -0.0033
  598POPI   D2A 9546  16.315   0.521   8.977 -0.0238  0.4398 -0.0490
  598POPI   C3A 9547  15.959   0.508   8.664 -0.0735  0.1728 -0.0594
  598POPI   C4A 9548  15.698   0.451   8.267 -0.3055  0.2372  0.0781
  598POPI   C1B 9549  17.039  -0.009   9.227 -0.1209 -0.2353 -0.0098
  598POPI   C2B 9550  16.814  -0.246   8.922  0.2305  0.2895 -0.1517
  598POPI   C3B 9551  16.651  -0.569   8.671 -0.3652  0.0585 -0.0894
  598POPI   C4B 9552  16.256  -0.840   8.643 -0.3119  0.0960 -0.0653
  599POPI    C1 9553  13.440  14.000  10.368  0.0605  0.0296 -0.0640
  599POPI    C2 9554  13.755  13.778  10.475  0.0304 -0.0208 -0.0795
  599POPI    C3 9555  13.384  13.647  10.548  0.0155  0.1570  0.1760
  599POPI   PO4 9556  13.474  14.061  10.062  0.2002 -0.0269  0.2124
  599POPI   GL1 9557  13.486  13.892   9.546  0.1051 -0.1791  0.1287
  599POPI   GL2 9558  13.179  13.946   9.386 -0.0506 -0.0225  0.1450
  599POPI   C1A 9559  13.808  13.919   9.227  0.1438 -0.2497  0.0366
  599POPI   D2A 9560  13.930  13.819   8.803 -0.0151 -0.2832  0.0239
  599POPI   C3A 9561  13.985  13.672   8.474  0.0470  0.1715 -0.1671
  599POPI   C4A 9562  13.897  13.568   8.092 -0.2236  0.1503 -0.1670
  599POPI   C1B 9563  13.287  13.811   8.950  0.0439  0.0412 -0.0301
  599POPI   C2B 9564  13.443  13.830   8.539 -0.3075  0.2248  0.0407
  599POPI   C3B 9565  13.509  13.788   8.159  0.3029 -0.0815 -0.1361
  599POPI   C4B 9566  13.274  13.746   7.742  0.1996 -0.1950  0.1625
  600POPI    C1 9567   3.712  13.607  10.036 -0.4320  0.0850 -0.3081
  600POPI    C2 9568   3.546  13.939  10.184 -0.1276  0.0055  0.2376
  600POPI    C3 9569   3.632  13.633  10.427  0.2180 -0.2085 -0.1418
  600POPI   PO4 9570   3.866  13.751   9.760 -0.1076 -0.1579 -0.2414
  600POPI   GL1 9571   3.896  13.656   9.359 -0.0952 -0.1781 -0.0148
  600POPI   GL2 9572   4.234  13.734   9.389  0.3720 -0.0140  0.4865
  600POPI   C1A 9573   3.753  13.804   8.988 -0.4194  0.4412  0.2135
  600POPI   D2A 9574   3.452  13.846   8.723 -0.1131  0.1366 -0.0674
  600POPI   C3A 9575   3.502  14.000   8.290 -0.0085  0.0986 -0.2508
  600POPI   C4A 9576   3.344  14.048   7.884 -0.0419  0.2941 -0.1309
  600POPI   C1B 9577   4.275  13.949   8.990 -0.1709 -0.1644 -0.0884
  600POPI   C2B 9578   4.483  13.875   8.525 -0.0127 -0.0511 -0.2935
  600POPI   C3B 9579   4.487  14.019   8.116  0.2714 -0.1550 -0.0360
  600POPI   C4B 9580   4.815  14.156   7.918 -0.2470  0.1459  0.0200
  601POPI    C1 9581  11.907  11.841  10.357 -0.0584 -0.1558  0.0021
  601POPI    C2 9582  11.642  12.136  10.407  0.0964 -0.0314  0.1007
  601POPI    C3 9583  11.582  11.781  10.582 -0.0205 -0.0149  0.0954
  601POPI   PO4 9584  11.937  11.864  10.075  0.1652 -0.1648  0.0934
  601POPI   GL1 9585  12.256  11.936   9.759  0.0861  0.0143  0.0140
  601POPI   GL2 9586  12.295  11.677   9.576  0.0913  0.2544 -0.2047
  601POPI   C1A 9587  12.131  12.195   9.385 -0.1183  0.0177 -0.0503
  601POPI   D2A 9588  12.045  12.215   8.970  0.0526 -0.2255  0.2238
  601POPI   C3A 9589  11.982  12.178   8.492 -0.2569  0.1273  0.2476
  601POPI   C4A 9590  11.817  12.135   8.069 -0.1916 -0.2862 -0.1255
  601POPI   C1B 9591  12.418  11.883   9.137  0.0142 -0.1674  0.0711
  601POPI   C2B 9592  12.500  12.079   8.646  0.0925  0.2749 -0.0330
  601POPI   C3B 9593  12.489  12.010   8.223 -0.0302 -0.0376 -0.1265
  601POPI   C4B 9594  12.559  11.503   8.074  0.2053 -0.2335  0.2217
  602POPI    C1 9595  14.910   3.747  10.207 -0.1190 -0.0916  0.0678
  602POPI    C2 9596  14.852   4.074  10.431 -0.0716 -0.0309 -0.0081
  602POPI    C3 9597  15.014   3.746  10.594 -0.0440  0.0106  0.0481
  602POPI   PO4 9598  14.781   3.695   9.932  0.0485  0.1135 -0.0807
  602POPI   GL1 9599  14.637   3.562   9.639  0.1882 -0.4945  0.1549
  602POPI   GL2 9600  14.864   3.388   9.521 -0.0333  0.0170  0.0810
  602POPI   C1A 9601  14.675   3.834   9.263 -0.1314 -0.1457  0.2787
  602POPI   D2A 9602  14.623   3.975   8.865 -0.2071 -0.0158  0.1025
  602POPI   C3A 9603  14.351   3.859   8.535  0.0826 -0.2422  0.1555
  602POPI   C4A 9604  14.238   3.759   8.166  0.1330 -0.1116  0.2073
  602POPI   C1B 9605  14.615   3.265   9.165 -0.0866 -0.0679  0.1690
  602POPI   C2B 9606  14.290   3.371   8.788  0.0779  0.1455  0.0848
  602POPI   C3B 9607  14.243   3.269   8.404 -0.0869  0.1024  0.0316
  602POPI   C4B 9608  14.234   3.300   7.857 -0.1017 -0.3995 -0.1486
  603POPI    C1 9609  17.417  12.955  10.162 -0.0334  0.2303 -0.1425
  603POPI    C2 9610  17.188  13.235  10.332  0.0812  0.2510 -0.0202
  603POPI    C3 9611  17.464  13.045  10.549 -0.0601 -0.0251 -0.0781
  603POPI   PO4 9612  17.534  13.033  10.001  0.2068 -0.1246  0.0563
  603POPI   GL1 9613  17.607  12.848   9.641 -0.0825  0.4204  0.4902
  603POPI   GL2 9614  17.756  12.576   9.761  0.0995  0.0388  0.1789
  603POPI   C1A 9615  17.896  12.837   9.176  0.0540  0.1634  0.1399
  603POPI   D2A 9616  18.266  13.018   9.055  0.2980  0.0608  0.0307
  603POPI   C3A 9617  18.593  12.722   8.940 -0.2091 -0.0574  0.0626
  603POPI   C4A 9618  18.866  12.382   8.902 -0.2370  0.1528  0.0645
  603POPI   C1B 9619  17.526  12.540   9.276 -0.2589  0.1181 -0.2374
  603POPI   C2B 9620  17.658  12.445   8.832  0.2834  0.0165 -0.0212
  603POPI   C3B 9621  17.564  12.402   8.322  0.0102 -0.1000 -0.1174
  603POPI   C4B 9622  17.741  12.472   7.929  0.0614  0.0675  0.3110
  604POPI    C1 9623   7.251   5.992  10.083 -0.2360 -0.1479 -0.1641
  604POPI    C2 9624   6.997   6.119  10.364  0.0083 -0.1990  0.0833
  604POPI    C3 9625   7.368   6.267  10.349  0.0348 -0.2845 -0.1392
  604POPI   PO4 9626   7.103   6.005   9.761 -0.0672  0.1055  0.1854
  604POPI   GL1 9627   6.724   5.848   9.590  0.0109 -0.0736  0.0533
  604POPI   GL2 9628   6.818   5.617   9.513 -0.1096 -0.0150 -0.0852
  604POPI   C1A 9629   6.924   5.981   9.195  0.0988  0.3050  0.0004
  604POPI   D2A 9630   6.822   6.137   8.815  0.1578  0.1723  0.1762
  604POPI   C3A 9631   7.034   5.885   8.530 -0.1483  0.2804 -0.3384
  604POPI   C4A 9632   7.212   5.868   8.134 -0.6109 -0.2513  0.1406
  604POPI   C1B 9633   6.796   5.493   9.132  0.1933  0.3640 -0.2686
  604POPI   C2B 9634   6.763   5.394   8.705 -0.3173  0.1023  0.1021
  604POPI   C3B 9635   6.875   5.469   8.272 -0.1013  0.0837  0.3750
  604POPI   C4B 9636   6.994   5.404   7.749 -0.1154  0.1403 -0.0821
  605POPI    C1 9637  17.886   9.359  10.353 -0.1669 -0.0522 -0.0531
  605POPI    C2 9638  17.921   8.966  10.418  0.2883 -0.0216 -0.0794
  605POPI    C3 9639  18.085   9.227  10.673 -0.1651  0.1612  0.0356
  605POPI   PO4 9640  17.837   9.360  10.020 -0.0046 -0.0764  0.1614
  605POPI   GL1 9641  18.003   9.217   9.683  0.2717  0.1706  0.1854
  605POPI   GL2 9642  18.276   9.155   9.694  0.3228  0.4371 -0.2733
  605POPI   C1A 9643  17.921   9.096   9.267  0.1784  0.1275 -0.0927
  605POPI   D2A 9644  17.692   9.299   8.999  0.1633  0.2006 -0.2219
  605POPI   C3A 9645  17.891   9.493   8.717  0.0470  0.0180  0.0335
  605POPI   C4A 9646  18.151   9.525   8.473  0.2149  0.0175 -0.0489
  605POPI   C1B 9647  18.323   9.504   9.355 -0.1282 -0.1082 -0.0632
  605POPI   C2B 9648  18.296   9.763   8.927  0.1503 -0.1396  0.0178
  605POPI   C3B 9649  18.179  10.013   8.666 -0.0898  0.0469  0.1622
  605POPI   C4B 9650  18.216  10.170   8.280  0.0431 -0.0853  0.1100
  606POPI    C1 9651  10.716  15.123  10.164 -0.0149 -0.2781 -0.1335
  606POPI    C2 9652  10.643  15.155  10.556  0.0591 -0.2930 -0.1183
  606POPI    C3 9653  10.843  14.839  10.415  0.1364 -0.2290 -0.1532
  606POPI   PO4 9654  10.451  15.097  10.083 -0.5494  0.2055  0.0836
  606POPI   GL1 9655  10.233  15.220   9.735 -0.3931  0.2855 -0.3712
  606POPI   GL2 9656  10.148  14.921   9.706 -0.0184 -0.1021 -0.0464
  606POPI   C1A 9657  10.432  15.296   9.485 -0.0739  0.3622  0.2345
  606POPI   D2A 9658  10.529  15.211   9.050 -0.3243 -0.2109 -0.1827
  606POPI   C3A 9659  10.233  15.109   8.653  0.2280 -0.3370 -0.1583
  606POPI   C4A 9660  10.002  15.184   8.336 -0.1328 -0.1354  0.2245
  606POPI   C1B 9661  10.169  14.920   9.208  0.0269  0.1558  0.1631
  606POPI   C2B 9662  10.081  14.661   8.865 -0.0159  0.0055  0.1198
  606POPI   C3B 9663   9.963  14.692   8.366  0.0187 -0.0925 -0.1185
  606POPI   C4B 9664  10.061  14.404   8.116  0.1978  0.0442 -0.1356
  607DPPI    C1 9665   1.793  17.022  10.068  0.1490 -0.0105 -0.1712
  607DPPI    C2 9666   1.837  17.259  10.387  0.5547 -0.2156 -0.0683
  607DPPI    C3 9667   1.677  16.895  10.430  0.3027 -0.1170 -0.1582
  607DPPI   PO4 9668   1.736  17.129   9.932  0.0889  0.2779  0.0611
  607DPPI   GL1 9669   1.373  17.059   9.624  0.0538  0.0929  0.1281
  607DPPI   GL2 9670   1.250  16.654   9.627 -0.1195 -0.2355  0.3187
  607DPPI   C1A 9671   1.599  16.981   9.152  0.1000  0.2047 -0.0887
  607DPPI   C2A 9672   1.871  17.187   8.809  0.0838  0.2217  0.1249
  607DPPI   C3A 9673   1.881  17.292   8.464 -0.0023  0.0372  0.1972
  607DPPI   C4A 9674   1.599  17.293   8.031 -0.2464  0.1402  0.2683
  607DPPI   C1B 9675   0.944  16.588   9.374 -0.1809  0.4846  0.0233
  607DPPI   C2B 9676   0.992  16.601   8.861  0.1075  0.0395 -0.1878
  607DPPI   C3B 9677   1.013  16.599   8.420  0.0014 -0.0985 -0.0372
  607DPPI   C4B 9678   1.139  16.333   8.116  0.1595  0.2619  0.0525
  608DPPI    C1 9679  15.578   8.053  10.565  0.0683 -0.0866  0.1433
  608DPPI    C2 9680  15.581   7.696  10.384  0.2008 -0.0714  0.1150
  608DPPI    C3 9681  15.268   7.804  10.607 -0.0237 -0.0377 -0.2095
  608DPPI   PO4 9682  15.643   8.192  10.411  0.0360 -0.0377 -0.1030
  608DPPI   GL1 9683  15.555   8.033   9.966  0.4260 -0.1230  0.0638
  608DPPI   GL2 9684  15.611   7.802   9.825 -0.2687  0.4547  0.0981
  608DPPI   C1A 9685  15.507   8.320   9.673  0.0954 -0.0577 -0.0874
  608DPPI   C2A 9686  15.576   8.326   9.249 -0.1232  0.2577 -0.1213
  608DPPI   C3A 9687  15.616   8.547   8.902 -0.0287  0.1841 -0.0996
  608DPPI   C4A 9688  15.475   8.470   8.485 -0.0504  0.6098 -0.1882
  608DPPI   C1B 9689  15.707   7.796   9.418  0.3883 -0.0045 -0.2368
  608DPPI   C2B 9690  15.726   7.821   9.004  0.2347 -0.0528  0.0121
  608DPPI   C3B 9691  15.520   7.792   8.603 -0.0431 -0.1535  0.2408
  608DPPI   C4B 9692  15.555   7.775   8.168 -0.2434  0.0313 -0.1356
  609DPPI    C1 9693   9.993   0.125  10.630 -0.0062  0.5204  0.1366
  609DPPI    C2 9694  10.018   0.359  10.954 -0.1052  0.1698  0.4032
  609DPPI    C3 9695  10.126  -0.026  10.976  0.1467  0.2077 -0.0544
  609DPPI   PO4 9696  10.099   0.203  10.362 -0.2314  0.0678 -0.1178
  609DPPI   GL1 9697   9.910   0.080   9.963 -0.1106 -0.1175  0.0933
  609DPPI   GL2 9698  10.052   0.368   9.800 -0.1098 -0.1006  0.0123
  609DPPI   C1A 9699   9.708   0.014   9.580 -0.2236 -0.1887  0.0417
  609DPPI   C2A 9700   9.745   0.118   9.205  0.1932  0.0752  0.1643
  609DPPI   C3A 9701   9.720   0.079   8.826 -0.0540 -0.2975 -0.2006
  609DPPI   C4A 9702   9.646   0.038   8.477 -0.1445 -0.2790  0.1931
  609DPPI   C1B 9703  10.253   0.770   9.563 -0.3893  0.2154  0.0489
  609DPPI   C2B 9704  10.345   0.869   9.122 -0.0568 -0.1182  0.1561
  609DPPI   C3B 9705  10.110   0.964   8.781  0.0777  0.0665 -0.0533
  609DPPI   C4B 9706   9.991   1.065   8.350 -0.3361 -0.1118 -0.2742
  610DPPI    C1 9707  14.829   3.170  10.052 -0.1248 -0.1169  0.0539
  610DPPI    C2 9708  15.140   3.057  10.277 -0.0025  0.0103 -0.0493
  610DPPI    C3 9709  14.844   3.271  10.439 -0.0452 -0.1249  0.0532
  610DPPI   PO4 9710  14.801   2.945   9.908  0.1915  0.3638 -0.0397
  610DPPI   GL1 9711  14.726   2.806   9.566 -0.1403  0.0882 -0.1022
  610DPPI   GL2 9712  15.058   2.692   9.483  0.0828 -0.1426  0.1268
  610DPPI   C1A 9713  14.674   2.762   9.155 -0.2910 -0.1401  0.1977
  610DPPI   C2A 9714  14.643   2.501   8.739  0.0416  0.2762 -0.1170
  610DPPI   C3A 9715  14.724   2.385   8.314  0.0009  0.2321 -0.1497
  610DPPI   C4A 9716  14.508   2.468   7.802 -0.0058 -0.3942  0.0138
  610DPPI   C1B 9717  15.046   2.455   9.060  0.1707  0.0473 -0.1290
  610DPPI   C2B 9718  15.426   2.465   8.831 -0.3194 -0.2407  0.1087
  610DPPI   C3B 9719  15.579   2.890   8.701 -0.2919 -0.1249 -0.0506
  610DPPI   C4B 9720  15.898   3.056   8.444 -0.0558 -0.0503  0.0251
  611DPPI    C1 9721  16.539   1.937  10.207  0.0788 -0.0042  0.0368
  611DPPI    C2 9722  16.670   1.735  10.526  0.2890  0.1613  0.0580
  611DPPI    C3 9723  16.507   1.539  10.218  0.4033 -0.0314  0.1180
  611DPPI   PO4 9724  16.649   2.104  10.149 -0.2693  0.0501 -0.1229
  611DPPI   GL1 9725  16.577   2.139   9.694 -0.1762 -0.1146 -0.0436
  611DPPI   GL2 9726  16.882   1.887   9.472  0.1865 -0.2050 -0.2782
  611DPPI   C1A 9727  16.411   2.091   9.347 -0.0195 -0.0351  0.1307
  611DPPI   C2A 9728  16.286   2.189   8.965 -0.1295 -0.1389 -0.1750
  611DPPI   C3A 9729  16.286   2.250   8.510  0.0801 -0.1571 -0.3034
  611DPPI   C4A 9730  16.327   2.075   8.240  0.0881  0.1305  0.1090
  611DPPI   C1B 9731  16.798   1.945   9.089 -0.2084 -0.1334  0.1231
  611DPPI   C2B 9732  16.814   2.208   8.734 -0.0982 -0.0577 -0.0755
  611DPPI   C3B 9733  16.750   2.342   8.355  0.1121  0.1563 -0.1526
  611DPPI   C4B 9734  16.747   2.247   7.919 -0.4858 -0.0954  0.1286
  612DPPI    C1 9735   1.377  16.155  10.140 -0.2696  0.0685  0.0915
  612DPPI    C2 9736   1.650  16.410  10.286 -0.0528 -0.1317  0.0430
  612DPPI    C3 9737   1.314  16.337  10.490 -0.0755  0.1239  0.0993
  612DPPI   PO4 9738   1.313  16.242   9.897  0.1138  0.1234 -0.2093
  612DPPI   GL1 9739   1.472  16.249   9.496 -0.2220  0.3152  0.1431
  612DPPI   GL2 9740   1.571  15.920   9.273  0.0903  0.3219 -0.0826
  612DPPI   C1A 9741   1.459  16.495   9.195  0.2471  0.1147 -0.0841
  612DPPI   C2A 9742   1.591  16.676   8.734 -0.1114  0.0384  0.1584
  612DPPI   C3A 9743   1.552  16.535   8.205 -0.1409 -0.3390  0.3223
  612DPPI   C4A 9744   1.682  16.752   7.931 -0.0888  0.2504  0.2352
  612DPPI   C1B 9745   1.690  16.041   8.889  0.1002 -0.0504  0.2175
  612DPPI   C2B 9746   1.835  15.831   8.512  0.1766  0.1959  0.0398
  612DPPI   C3B 9747   2.183  15.771   8.243 -0.0428 -0.1658  0.2750
  612DPPI   C4B 9748   2.277  15.854   7.833 -0.2185 -0.2737 -0.0757
  613DPPI    C1 9749   2.426   4.758  10.049 -0.2992  0.0268 -0.1276
  613DPPI    C2 9750   2.600   4.633  10.387 -0.0996  0.1942 -0.1662
  613DPPI    C3 9751   2.245   4.817  10.400 -0.2211 -0.0431 -0.0752
  613DPPI   PO4 9752   2.604   4.746   9.902  0.0143  0.0697 -0.0311
  613DPPI   GL1 9753   2.645   4.654   9.535 -0.2444  0.1301  0.1738
  613DPPI   GL2 9754   2.869   4.487   9.509 -0.1080  0.0412  0.0850
  613DPPI   C1A 9755   2.544   4.940   9.141 -0.0786  0.0239 -0.3387
  613DPPI   C2A 9756   2.396   5.195   8.808  0.0055  0.1345  0.2222
  613DPPI   C3A 9757   2.480   5.177   8.406  0.1525  0.0177 -0.0469
  613DPPI   C4A 9758   2.564   5.136   8.006 -0.4616  0.0606 -0.0052
  613DPPI   C1B 9759   2.895   4.599   9.062 -0.0392  0.1171 -0.0877
  613DPPI   C2B 9760   2.691   4.749   8.654  0.1800 -0.4181 -0.4268
  613DPPI   C3B 9761   2.664   4.705   8.203 -0.1564  0.1163 -0.2069
  613DPPI   C4B 9762   2.609   4.647   7.809 -0.2437  0.0898  0.3548
  614DPPI    C1 9763   7.891  11.128   9.920 -0.0039  0.3237  0.0583
  614DPPI    C2 9764   8.203  11.073  10.165  0.0034  0.0695 -0.0059
  614DPPI    C3 9765   7.901  10.811  10.163 -0.1465  0.2406 -0.0435
  614DPPI   PO4 9766   8.053  11.058   9.627 -0.1038  0.1025  0.1180
  614DPPI   GL1 9767   7.943  11.165   9.172 -0.0154  0.2110  0.0210
  614DPPI   GL2 9768   7.890  11.464   8.952 -0.1354 -0.1151 -0.1605
  614DPPI   C1A 9769   7.663  11.015   9.047  0.0584  0.0318  0.2401
  614DPPI   C2A 9770   7.395  10.916   8.807  0.2502  0.1879 -0.0297
  614DPPI   C3A 9771   7.208  10.609   8.788 -0.1504  0.2481 -0.3913
  614DPPI   C4A 9772   7.063  10.308   9.076 -0.1080  0.0275  0.0382
  614DPPI   C1B 9773   7.805  11.290   8.660 -0.1088  0.2927 -0.0981
  614DPPI   C2B 9774   7.607  11.103   8.345 -0.0670  0.1409  0.0791
  614DPPI   C3B 9775   7.570  10.689   8.280  0.0274  0.2641 -0.0243
  614DPPI   C4B 9776   7.475  10.415   8.009 -0.2466 -0.1703  0.3150
  615DPPI    C1 9777  11.717  17.720  10.510  0.0073  0.1883  0.0831
  615DPPI    C2 9778  11.456  17.445  10.639 -0.1640  0.1412 -0.3476
  615DPPI    C3 9779  11.839  17.345  10.580 -0.1853  0.0436 -0.3228
  615DPPI   PO4 9780  11.561  17.869  10.300  0.1469  0.1280  0.3276
  615DPPI   GL1 9781  11.681  17.836   9.866 -0.0936 -0.3101 -0.0340
  615DPPI   GL2 9782  11.916  18.060   9.657  0.1164 -0.2914  0.2360
  615DPPI   C1A 9783  11.502  17.628   9.546 -0.1999 -0.2851 -0.0776
  615DPPI   C2A 9784  11.525  17.504   9.111 -0.1613  0.0162  0.0741
  615DPPI   C3A 9785  11.528  17.592   8.695 -0.1275  0.0594 -0.2471
  615DPPI   C4A 9786  11.513  17.497   8.199 -0.0724 -0.0856  0.2470
  615DPPI   C1B 9787  11.608  18.061   9.370 -0.1006  0.0193  0.0663
  615DPPI   C2B 9788  11.756  18.063   8.892 -0.1693 -0.4690  0.2078
  615DPPI   C3B 9789  11.814  18.007   8.470  0.0870 -0.2453 -0.1878
  615DPPI   C4B 9790  11.854  18.139   8.143 -0.5517  0.0803 -0.1088
  616PYPI    C1 9791  15.915   0.218  10.200  0.0727  0.0043  0.1439
  616PYPI    C2 9792  16.042   0.155  10.574 -0.0635 -0.1470  0.1660
  616PYPI    C3 9793  15.789  -0.103  10.403 -0.0560 -0.0416 -0.0065
  616PYPI   PO4 9794  16.035   0.318   9.979  0.0514 -0.1648  0.0692
  616PYPI   GL1 9795  15.744   0.390   9.645  0.2192 -0.1913 -0.2061
  616PYPI   GL2 9796  16.129   0.224   9.501  0.0299  0.0794  0.0291
  616PYPI   C1A 9797  15.783   0.435   9.186  0.2133 -0.1117  0.0159
  616PYPI   C2A 9798  15.679   0.148   8.842  0.2495 -0.1919 -0.0390
  616PYPI   D3A 9799  15.440   0.012   8.374 -0.2510 -0.1927  0.1465
  616PYPI   C4A 9800  15.725  -0.023   8.062 -0.1966 -0.2023  0.2321
  616PYPI   C1B 9801  16.154  -0.002   9.134 -0.2763 -0.1181 -0.1389
  616PYPI   C2B 9802  16.443   0.026   8.794  0.2309 -0.2669  0.1849
  616PYPI   C3B 9803  16.707  -0.078   8.387 -0.0722 -0.0125 -0.3673
  616PYPI   C4B 9804  17.086  -0.226   8.281  0.0595 -0.0603 -0.3384
  617PYPI    C1 9805   7.874  14.260  10.599 -0.1112 -0.1749  0.2223
  617PYPI    C2 9806   7.995  13.885  10.533  0.0594 -0.1144  0.1856
  617PYPI    C3 9807   8.170  14.104  10.818  0.1862  0.0464 -0.0131
  617PYPI   PO4 9808   7.630  14.272  10.393 -0.2678  0.1492  0.1980
  617PYPI   GL1 9809   7.610  14.246   9.867  0.1910  0.1226 -0.1891
  617PYPI   GL2 9810   7.746  14.440   9.680  0.0232  0.0589  0.0511
  617PYPI   C1A 9811   7.770  13.918   9.668 -0.2042 -0.1561  0.1094
  617PYPI   C2A 9812   7.767  13.651   9.330 -0.3676 -0.0431 -0.0091
  617PYPI   D3A 9813   7.776  13.711   8.947  0.1221 -0.0824 -0.0035
  617PYPI   C4A 9814   7.742  14.028   8.690 -0.1197  0.1060 -0.1664
  617PYPI   C1B 9815   7.946  14.267   9.284 -0.0348  0.1243 -0.2162
  617PYPI   C2B 9816   8.055  14.408   8.875 -0.3527  0.0288  0.1560
  617PYPI   C3B 9817   8.016  14.389   8.417  0.0171  0.0858 -0.1212
  617PYPI   C4B 9818   8.352  14.474   8.094  0.0116 -0.1112  0.0816
  618PYPI    C1 9819   6.778  14.741  10.424 -0.0653  0.0356  0.1279
  618PYPI    C2 9820   7.037  14.487  10.592 -0.2326 -0.1976  0.0378
  618PYPI    C3 9821   6.644  14.448  10.661 -0.2696 -0.0427 -0.0803
  618PYPI   PO4 9822   6.829  14.688  10.106  0.0609 -0.3740  0.0790
  618PYPI   GL1 9823   6.764  14.728   9.641  0.0817  0.0171 -0.0444
  618PYPI   GL2 9824   6.792  14.992   9.586 -0.1134 -0.2234  0.4208
  618PYPI   C1A 9825   6.393  14.758   9.383 -0.2807  0.1027  0.1548
  618PYPI   C2A 9826   6.268  14.615   9.097 -0.2150  0.1566  0.0540
  618PYPI   D3A 9827   5.922  14.551   9.025 -0.0213  0.1522  0.0260
  618PYPI   C4A 9828   5.448  14.674   8.828 -0.0854  0.0670 -0.1095
  618PYPI   C1B 9829   6.887  14.786   9.178  0.1349 -0.4134  0.2001
  618PYPI   C2B 9830   6.766  14.760   8.702  0.1566  0.1000 -0.1648
  618PYPI   C3B 9831   6.329  14.859   8.607  0.0821 -0.1417  0.0522
  618PYPI   C4B 9832   5.851  14.878   8.668  0.2556 -0.1749 -0.1654
  619PYPI    C1 9833  10.806  10.066  10.281 -0.0755 -0.0552 -0.0532
  619PYPI    C2 9834  10.780  10.391  10.049 -0.0358  0.0170  0.0426
  619PYPI    C3 9835  10.470  10.283  10.278 -0.0433 -0.0037  0.0227
  619PYPI   PO4 9836  11.068   9.958  10.204  0.1394  0.1123 -0.3647
  619PYPI   GL1 9837  11.269  10.032   9.911  0.2216 -0.2074 -0.2443
  619PYPI   GL2 9838  11.132  10.257   9.738 -0.0112 -0.3167 -0.1546
  619PYPI   C1A 9839  11.347   9.900   9.455  0.2113 -0.3473 -0.6469
  619PYPI   C2A 9840  11.286   9.588   9.098  0.1638  0.1783  0.0108
  619PYPI   D3A 9841  11.200   9.574   8.638  0.0253  0.0312  0.0292
  619PYPI   C4A 9842  11.470   9.697   8.482 -0.1112 -0.1734  0.4955
  619PYPI   C1B 9843  11.185  10.390   9.398  0.0073 -0.3588  0.2154
  619PYPI   C2B 9844  11.309  10.324   9.066  0.2729 -0.2000 -0.3132
  619PYPI   C3B 9845  11.213  10.085   8.748  0.1268 -0.1550  0.2706
  619PYPI   C4B 9846  11.018   9.974   8.292 -0.0334 -0.0578 -0.1899
  620PYPI    C1 9847   0.202  17.969  10.023  0.0326  0.1194  0.2700
  620PYPI    C2 9848  -0.183  17.880  10.085 -0.0172  0.1813  0.0596
  620PYPI    C3 9849   0.083  17.838  10.381 -0.1409 -0.1028  0.1339
  620PYPI   PO4 9850   0.224  18.192   9.923  0.1079 -0.4917  0.2565
  620PYPI   GL1 9851   0.120  18.502   9.496 -0.4344 -0.2230  0.0506
  620PYPI   GL2 9852   0.469  18.432   9.509  0.0046 -0.0924 -0.2028
  620PYPI   C1A 9853   0.216  18.545   9.084  0.0706  0.0913 -0.1836
  620PYPI   C2A 9854   0.391  18.695   8.702  0.2804  0.0350 -0.0195
  620PYPI   D3A 9855   0.522  18.934   8.260  0.0730 -0.2417 -0.4307
  620PYPI   C4A 9856   0.768  18.733   7.955 -0.1518  0.0401  0.0043
  620PYPI   C1B 9857   0.694  18.339   9.091  0.0010  0.1529  0.2209
  620PYPI   C2B 9858   1.002  18.242   8.747 -0.0965  0.0958 -0.0822
  620PYPI   C3B 9859   1.309  18.080   8.505 -0.4362 -0.0223  0.0530
  620PYPI   C4B 9860   1.380  17.636   8.375  0.2529 -0.0902 -0.1604
  621PYPI    C1 9861   3.554   8.423  10.392 -0.2107 -0.2174 -0.1303
  621PYPI    C2 9862   3.401   8.269  10.728 -0.1409  0.0025  0.0043
  621PYPI    C3 9863   3.261   8.615  10.584 -0.0510 -0.0031 -0.0977
  621PYPI   PO4 9864   3.598   8.218  10.248 -0.0728 -0.1177 -0.3790
  621PYPI   GL1 9865   3.812   8.286   9.946  0.0807 -0.2338 -0.0488
  621PYPI   GL2 9866   3.589   8.179   9.635  0.0572 -0.2287 -0.1674
  621PYPI   C1A 9867   4.108   8.141   9.728  0.1461  0.1359  0.0377
  621PYPI   C2A 9868   4.110   8.358   9.381  0.1561 -0.2951 -0.1162
  621PYPI   D3A 9869   3.739   8.327   9.101  0.1577  0.0441  0.0694
  621PYPI   C4A 9870   3.945   8.362   8.715 -0.0677 -0.1590 -0.1578
  621PYPI   C1B 9871   3.794   7.874   9.429 -0.0011 -0.1972 -0.0927
  621PYPI   C2B 9872   4.038   7.964   9.052  0.1299  0.0912 -0.1065
  621PYPI   C3B 9873   4.363   8.018   8.709 -0.0816  0.1597  0.0223
  621PYPI   C4B 9874   4.449   8.005   8.298  0.1318  0.1207 -0.0525
  622ERGO   ROH 9875   8.699  13.677   9.674 -0.0474 -0.3253 -0.0476
  622ERGO    R1 9876   8.674  13.809   9.424 -0.0597 -0.1544  0.0421
  622ERGO    R2 9877   8.892  13.898   9.280 -0.0694 -0.0370  0.1016
  622ERGO    R3 9878   8.781  13.749   9.082 -0.0577  0.0920 -0.0028
  622ERGO    R4 9879   8.943  13.952   8.943  0.1429  0.0469  0.1459
  622ERGO    R5 9880   8.732  13.908   8.909  0.1289  0.1835  0.0216
  622ERGO    C1 9881   8.869  13.842   8.560  0.2774  0.2168  0.0735
  622ERGO    C2 9882   8.862  13.803   8.264 -0.0852  0.0716  0.0076
  623ERGO   ROH 9883   3.676  12.114   9.227  0.0693 -0.2790  0.0297
  623ERGO    R1 9884   3.583  11.969   9.003  0.0915 -0.1709 -0.0513
  623ERGO    R2 9885   3.457  12.090   8.789  0.0062 -0.0803  0.0439
  623ERGO    R3 9886   3.650  11.965   8.645  0.0373  0.0917 -0.0653
  623ERGO    R4 9887   3.434  12.012   8.453 -0.1314 -0.1508  0.0690
  623ERGO    R5 9888   3.530  11.821   8.495  0.0848 -0.0480  0.0334
  623ERGO    C1 9889   3.603  11.850   8.122 -0.1823 -0.0305 -0.0187
  623ERGO    C2 9890   3.553  11.890   7.762 -0.0819  0.0104 -0.0243
  624ERGO   ROH 9891   4.029  18.389   9.142  0.1426  0.2081  0.0285
  624ERGO    R1 9892   4.009  18.577   8.932  0.0839  0.0720 -0.0894
  624ERGO    R2 9893   3.952  18.504   8.671 -0.1563 -0.0827  0.0030
  624ERGO    R3 9894   3.752  18.685   8.698 -0.0390  0.0452  0.0318
  624ERGO    R4 9895   3.822  18.693   8.413 -0.2958 -0.2416 -0.0449
  624ERGO    R5 9896   3.812  18.863   8.549 -0.0813 -0.1145 -0.1820
  624ERGO    C1 9897   3.557  18.973   8.287 -0.2669 -0.2140 -0.0458
  624ERGO    C2 9898   3.508  18.990   7.944 -0.0615  0.2524 -0.1801
  625ERGO   ROH 9899  12.744   1.391   9.822  0.2075 -0.2478 -0.0138
  625ERGO    R1 9900  12.585   1.402   9.588  0.1637 -0.0602  0.0229
  625ERGO    R2 9901  12.626   1.588   9.388  0.2411 -0.0132  0.0822
  625ERGO    R3 9902  12.639   1.368   9.230  0.0656  0.0349 -0.0013
  625ERGO    R4 9903  12.551   1.584   9.051  0.2191  0.1697  0.0837
  625ERGO    R5 9904  12.452   1.391   9.081  0.0743  0.2319  0.0162
  625ERGO    C1 9905  12.519   1.374   8.706  0.0415  0.3213  0.0062
  625ERGO    C2 9906  12.611   1.558   8.552 -0.1956  0.2434 -0.0996
  626ERGO   ROH 9907   8.807  11.034   9.318 -0.3162  0.0197 -0.0882
  626ERGO    R1 9908   8.962  11.084   9.086 -0.2557  0.0418 -0.0437
  626ERGO    R2 9909   9.054  10.882   8.922 -0.0741  0.0447  0.0482
  626ERGO    R3 9910   8.928  11.026   8.728 -0.0866 -0.0826 -0.0397
  626ERGO    R4 9911   9.088  10.830   8.582 -0.0821 -0.1583  0.0777
  626ERGO    R5 9912   9.090  11.045   8.553 -0.0961 -0.1788 -0.0558
  626ERGO    C1 9913   8.989  10.934   8.202 -0.0984 -0.3962  0.0124
  626ERGO    C2 9914   9.012  10.869   7.864 -0.1579  0.3432  0.0846
  627ERGO   ROH 9915   5.421  17.947   9.606  0.0610 -0.0927 -0.2192
  627ERGO    R1 9916   5.370  18.019   9.337  0.1264  0.0044 -0.2065
  627ERGO    R2 9917   5.507  17.908   9.125  0.0118 -0.0984 -0.2291
  627ERGO    R3 9918   5.257  17.851   9.036 -0.0500  0.1659 -0.2325
  627ERGO    R4 9919   5.415  17.887   8.792  0.0420 -0.1893 -0.2316
  627ERGO    R5 9920   5.229  17.989   8.842  0.1602  0.0828 -0.3249
  627ERGO    C1 9921   5.126  17.822   8.515  0.0015  0.0060 -0.2365
  627ERGO    C2 9922   4.929  17.785   8.193 -0.0270  0.1873 -0.0049
  628ERGO   ROH 9923   2.553   8.622   9.325 -0.0180  0.0177  0.0800
  628ERGO    R1 9924   2.401   8.505   9.116 -0.1243  0.0673  0.1303
  628ERGO    R2 9925   2.139   8.577   9.065  0.0068  0.4360 -0.0279
  628ERGO    R3 9926   2.234   8.621   8.814  0.1684  0.0595 -0.0398
  628ERGO    R4 9927   1.942   8.611   8.782  0.1336  0.6428 -0.0946
  628ERGO    R5 9928   2.089   8.492   8.673 -0.0732  0.2489  0.0218
  628ERGO    C1 9929   1.917   8.671   8.383  0.3591  0.4098 -0.1446
  628ERGO    C2 9930   1.610   8.801   8.415  0.0303  0.3065 -0.0502
  629ERGO   ROH 9931  13.444   0.610   9.591  0.0843 -0.5968 -0.1262
  629ERGO    R1 9932  13.296   0.476   9.390 -0.1414 -0.1940 -0.2411
  629ERGO    R2 9933  13.115   0.606   9.227  0.1129  0.2563 -0.1876
  629ERGO    R3 9934  13.264   0.495   9.028 -0.0559  0.1115 -0.2342
  629ERGO    R4 9935  13.026   0.600   8.893 -0.0443  0.2346 -0.1454
  629ERGO    R5 9936  13.103   0.396   8.881 -0.1867  0.1845 -0.1362
  629ERGO    C1 9937  13.114   0.492   8.512 -0.2942  0.0860 -0.1646
  629ERGO    C2 9938  13.047   0.576   8.263 -0.0020 -0.1415  0.1422
  630ERGO   ROH 9939   1.145  10.760   9.569 -0.0152  0.1729  0.0336
  630ERGO    R1 9940   1.235  10.828   9.309 -0.0473  0.1576  0.0180
  630ERGO    R2 9941   1.162  11.062   9.183  0.1140  0.2542  0.1011
  630ERGO    R3 9942   1.431  11.094   9.158  0.1351  0.0240  0.0145
  630ERGO    R4 9943   1.315  11.300   8.983  0.2433  0.2493  0.1941
  630ERGO    R5 9944   1.463  11.150   8.927  0.0865  0.1467  0.0347
  630ERGO    C1 9945   1.656  11.468   8.844  0.3385  0.0304  0.1669
  630ERGO    C2 9946   1.635  11.804   8.723  0.3002  0.0893 -0.1624
  631ERGO   ROH 9947   9.176  13.428   9.672  0.0815  0.0370  0.0823
  631ERGO    R1 9948   9.063  13.452   9.413  0.1225  0.1297  0.0725
  631ERGO    R2 9949   9.193  13.580   9.205  0.2714 -0.0256  0.0675
  631ERGO    R3 9950   9.149  13.345   9.076  0.0332  0.0051  0.0892
  631ERGO    R4 9951   9.145  13.546   8.864  0.3512 -0.0210  0.0557
  631ERGO    R5 9952   8.991  13.399   8.905  0.1572  0.1698  0.0247
  631ERGO    C1 9953   9.076  13.306   8.545  0.1740  0.0105  0.0691
  631ERGO    C2 9954   8.997  13.259   8.217  0.2353  0.1844 -0.0069
  632ERGO   ROH 9955  17.843  18.675   7.275 -0.0288  0.1547  0.1072
  632ERGO    R1 9956  17.860  18.957   7.277  0.0158  0.1527  0.0051
  632ERGO    R2 9957  18.101  19.092   7.274  0.0380  0.1127 -0.0023
  632ERGO    R3 9958  17.993  19.215   7.057  0.0954  0.0498 -0.0681
  632ERGO    R4 9959  18.246  19.356   7.104  0.0407  0.1169  0.0055
  632ERGO    R5 9960  18.048  19.446   7.087  0.0280  0.0677 -0.0891
  632ERGO    C1 9961  18.228  19.626   6.802  0.0963  0.0604 -0.0518
  632ERGO    C2 9962  18.402  19.897   6.739 -0.2321  0.2240  0.0794
  633ERGO   ROH 9963   5.481  16.111   9.538  0.1979  0.0602 -0.0776
  633ERGO    R1 9964   5.361  16.065   9.285  0.0604  0.1251 -0.0240
  633ERGO    R2 9965   5.461  16.171   9.051  0.0694 -0.0076 -0.0756
  633ERGO    R3 9966   5.458  15.912   8.970 -0.1989 -0.0211 -0.0387
  633ERGO    R4 9967   5.493  16.066   8.723  0.2268 -0.0817 -0.0381
  633ERGO    R5 9968   5.340  15.916   8.762 -0.0148  0.1161 -0.1499
  633ERGO    C1 9969   5.509  15.761   8.456  0.0666 -0.1375  0.0185
  633ERGO    C2 9970   5.636  15.686   8.132 -0.1681 -0.2462 -0.1684
  634ERGO   ROH 9971  11.896   2.030   9.836  0.1174 -0.0457 -0.0613
  634ERGO    R1 9972  11.925   1.886   9.594 -0.0471 -0.0578 -0.0752
  634ERGO    R2 9973  11.709   1.804   9.443 -0.1445  0.1829 -0.0712
  634ERGO    R3 9974  11.838   1.937   9.245 -0.0126  0.0640 -0.0666
  634ERGO    R4 9975  11.629   1.784   9.107  0.0014  0.0730 -0.1002
  634ERGO    R5 9976  11.842   1.783   9.062  0.0227 -0.0113 -0.0031
  634ERGO    C1 9977  11.705   1.898   8.725  0.2102 -0.1026 -0.1127
  634ERGO    C2 9978  11.655   1.978   8.444 -0.1452  0.3905  0.2237
  635ERGO   ROH 9979   9.734   1.213   9.959  0.1914 -0.0744 -0.0963
  635ERGO    R1 9980   9.846   1.344   9.734  0.1047  0.0526 -0.0672
  635ERGO    R2 9981   9.984   1.207   9.536  0.2303  0.1931 -0.0800
  635ERGO    R3 9982   9.804   1.330   9.373  0.1419  0.0761 -0.0721
  635ERGO    R4 9983  10.032   1.269   9.200  0.1068  0.0883 -0.1179
  635ERGO    R5 9984   9.939   1.463   9.226  0.0530  0.0666 -0.1612
  635ERGO    C1 9985   9.892   1.420   8.850 -0.0482 -0.0826 -0.1325
  635ERGO    C2 9986   9.775   1.453   8.499 -0.3537  0.1141  0.1292
  636ERGO   ROH 9987  16.043   9.457  10.033  0.1997  0.0199  0.2142
  636ERGO    R1 9988  15.934   9.644   9.851  0.1075 -0.0638  0.1820
  636ERGO    R2 9989  16.080   9.856   9.751  0.0101 -0.0209  0.1299
  636ERGO    R3 9990  16.004   9.754   9.511  0.0398 -0.1030  0.1552
  636ERGO    R4 9991  16.002  10.044   9.472 -0.3765 -0.0967  0.1812
  636ERGO    R5 9992  15.838   9.907   9.431 -0.2097 -0.3197  0.2444
  636ERGO    C1 9993  15.885  10.058   9.084 -0.5739 -0.2179  0.2349
  636ERGO    C2 9994  16.107  10.161   8.775  0.0290 -0.1482 -0.3254
  637ERGO   ROH 9995  14.102   1.572   9.803  0.3350  0.0200 -0.0422
  637ERGO    R1 9996  14.152   1.493   9.536  0.0135  0.1077 -0.1316
  637ERGO    R2 9997  14.185   1.228   9.464  0.1298  0.1513 -0.2182
  637ERGO    R3 9998  13.986   1.286   9.287 -0.1792  0.0115  0.0698
  637ERGO    R4 9999  14.117   1.047   9.178  0.1010  0.3135 -0.3164
  637ERGO    R510000  14.081   1.235   9.073 -0.3311  0.3744 -0.0985
  637ERGO    C110001  13.891   0.995   8.845 -0.2059  0.2767 -0.1033
  637ERGO    C210002  13.797   0.798   8.541  0.3708 -0.0629 -0.3127
  638ERGO   ROH10003   3.702   0.662   9.487  0.0819 -0.0178 -0.2049
  638ERGO    R110004   3.563   0.761   9.262  0.0136  0.1411 -0.0976
  638ERGO    R210005   3.608   1.014   9.158  0.2037  0.1144 -0.1225
  638ERGO    R310006   3.649   0.876   8.928 -0.1050  0.0651 -0.1501
  638ERGO    R410007   3.582   1.147   8.840  0.3290  0.1649 -0.1104
  638ERGO    R510008   3.486   0.962   8.776  0.0015  0.3420 -0.0940
  638ERGO    C110009   3.605   1.094   8.439  0.1122  0.1482 -0.1292
  638ERGO    C210010   3.632   1.006   8.074 -0.0653  0.0205  0.1920
  639ERGO   ROH10011   6.151   3.870   9.549  0.2287 -0.5016  0.1654
  639ERGO    R110012   6.169   3.779   9.281  0.1007 -0.4577  0.1414
  639ERGO    R210013   6.033   3.556   9.190 -0.2386 -0.2309  0.0745
  639ERGO    R310014   5.940   3.729   9.003  0.0303 -0.0336  0.1168
  639ERGO    R410015   5.978   3.478   8.858 -0.1080  0.0163 -0.0079
  639ERGO    R510016   6.059   3.673   8.804  0.1013 -0.0221  0.1556
  639ERGO    C110017   5.858   3.596   8.489  0.2205  0.3453 -0.0159
  639ERGO    C210018   5.914   3.694   8.180  0.1585  0.1155 -0.1588
  640ERGO   ROH10019  13.923   4.693   9.650  0.2726 -0.0237 -0.1091
  640ERGO    R110020  14.018   4.665   9.385  0.1022 -0.0079 -0.1736
  640ERGO    R210021  13.886   4.516   9.193 -0.0285  0.0139 -0.1023
  640ERGO    R310022  13.899   4.747   9.051 -0.1075  0.0247 -0.0919
  640ERGO    R410023  13.835   4.541   8.853 -0.1498  0.0302 -0.0830
  640ERGO    R510024  13.999   4.684   8.843 -0.1715  0.0516 -0.1310
  640ERGO    C110025  13.816   4.773   8.520 -0.2946  0.0498 -0.0622
  640ERGO    C210026  13.944   4.719   8.266 -0.1188  0.0351 -0.1052
  641ERGO   ROH10027  13.689   9.096   9.760 -0.1741 -0.0059 -0.1124
  641ERGO    R110028  13.695   9.211   9.502  0.1669  0.0809 -0.0705
  641ERGO    R210029  13.878   9.136   9.309  0.0590 -0.2729 -0.0385
  641ERGO    R310030  13.656   9.095   9.159 -0.0012  0.2913 -0.1266
  641ERGO    R410031  13.875   9.127   8.964  0.1966 -0.2979 -0.0393
  641ERGO    R510032  13.687   9.239   8.969  0.4673  0.2069 -0.1327
  641ERGO    C110033  13.664   9.083   8.622  0.2203  0.2170 -0.1226
  641ERGO    C210034  13.807   9.175   8.322  0.2628  0.0148  0.1681
  642ERGO   ROH10035  12.627  16.538   5.908 -0.3005  0.0734  0.0360
  642ERGO    R110036  12.698  16.370   6.124 -0.3957 -0.0728 -0.0478
  642ERGO    R210037  12.769  16.468   6.372  0.0102 -0.2123 -0.1038
  642ERGO    R310038  12.572  16.303   6.459 -0.2122  0.1219  0.0606
  642ERGO    R410039  12.773  16.300   6.674 -0.0638 -0.2214 -0.1034
  642ERGO    R510040  12.689  16.126   6.572 -0.4397 -0.0813 -0.0269
  642ERGO    C110041  12.591  16.046   6.931 -0.3158  0.0869  0.0511
  642ERGO    C210042  12.456  16.079   7.253  0.2567  0.1863  0.0893
  643ERGO   ROH10043  10.914   3.305   9.844 -0.1715  0.1699  0.1041
  643ERGO    R110044  10.956   3.380   9.574 -0.1979  0.0727  0.0722
  643ERGO    R210045  11.011   3.197   9.375  0.0264  0.0180  0.1766
  643ERGO    R310046  10.798   3.315   9.253 -0.0755 -0.2583  0.0770
  643ERGO    R410047  10.956   3.200   9.034  0.1701 -0.0411  0.1516
  643ERGO    R510048  10.890   3.407   9.051 -0.1103 -0.1320  0.1238
  643ERGO    C110049  10.726   3.313   8.720  0.1581 -0.3350  0.0436
  643ERGO    C210050  10.879   3.144   8.401 -0.1317 -0.0616 -0.2235
  644ERGO   ROH10051   6.667   9.391   9.356  0.1309  0.0841  0.0152
  644ERGO    R110052   6.832   9.384   9.126  0.1780 -0.0633  0.0530
  644ERGO    R210053   6.851   9.162   8.963 -0.0016 -0.0720  0.0490
  644ERGO    R310054   6.784   9.339   8.768  0.2176  0.0030  0.0378
  644ERGO    R410055   6.828   9.085   8.627  0.0610 -0.0321  0.0348
  644ERGO    R510056   6.922   9.276   8.582  0.2405 -0.1009  0.0843
  644ERGO    C110057   6.752   9.206   8.248  0.3032  0.0615  0.0160
  644ERGO    C210058   6.779   9.198   7.919  0.0669 -0.2337 -0.0799
  645ERGO   ROH10059   0.215   9.621   9.508 -0.3209 -0.0339  0.2252
  645ERGO    R110060   0.006   9.585   9.322 -0.1326  0.0776 -0.0139
  645ERGO    R210061   0.019   9.680   9.062  0.1974  0.1001  0.0053
  645ERGO    R310062  -0.036   9.421   8.999  0.1544  0.1298 -0.0794
  645ERGO    R410063  -0.086   9.570   8.752  0.2987  0.1971 -0.0637
  645ERGO    R510064  -0.224   9.434   8.852  0.2214  0.2117 -0.1553
  645ERGO    C110065  -0.198   9.263   8.512  0.3174  0.2815 -0.1833
  645ERGO    C210066  -0.172   9.271   8.112  0.5693  0.2185 -0.2272
  646ERGO   ROH10067   3.947  16.920   9.596  0.0374 -0.0224 -0.0158
  646ERGO    R110068   4.001  16.742   9.383  0.1024  0.0541 -0.0637
  646ERGO    R210069   3.906  16.783   9.127 -0.0301  0.0171 -0.0221
  646ERGO    R310070   4.169  16.759   9.061 -0.0330  0.2422 -0.1257
  646ERGO    R410071   4.024  16.694   8.815 -0.0779 -0.0070 -0.0336
  646ERGO    R510072   4.176  16.571   8.912  0.0840  0.1824 -0.0448
  646ERGO    C110073   4.340  16.619   8.571 -0.1085  0.1904 -0.1374
  646ERGO    C210074   4.465  16.649   8.175 -0.2572  0.1310  0.2468
  647ERGO   ROH10075  12.507  17.640   9.812 -0.1503 -0.0036 -0.0808
  647ERGO    R110076  12.583  17.545   9.557  0.0415  0.1352 -0.0783
  647ERGO    R210077  12.402  17.431   9.381  0.2485 -0.1718 -0.1019
  647ERGO    R310078  12.498  17.620   9.211 -0.0576  0.0080 -0.0820
  647ERGO    R410079  12.391  17.410   9.036  0.3193 -0.1724 -0.1041
  647ERGO    R510080  12.592  17.495   9.029  0.1796  0.1766 -0.0797
  647ERGO    C110081  12.474  17.576   8.675  0.0733 -0.0040 -0.0869
  647ERGO    C210082  12.397  17.638   8.308 -0.0383  0.0274 -0.1554
  648ERGO   ROH10083  18.322   4.104   9.128 -0.1885 -0.1461 -0.1834
  648ERGO    R110084  18.387   4.276   8.913 -0.1341  0.0299 -0.0290
  648ERGO    R210085  18.498   4.185   8.677  0.0855  0.2443 -0.0116
  648ERGO    R310086  18.286   4.313   8.565  0.0900  0.1946 -0.0789
  648ERGO    R410087  18.450   4.229   8.338  0.1658  0.1966 -0.0292
  648ERGO    R510088  18.380   4.431   8.378  0.1187  0.1906 -0.0688
  648ERGO    C110089  18.225   4.375   8.035  0.2168  0.1222 -0.1028
  648ERGO    C210090  17.974   4.405   7.833 -0.0575  0.3577  0.1575
  649ERGO   ROH10091  16.032  12.457   9.594  0.2900  0.1467 -0.0303
  649ERGO    R110092  15.940  12.371   9.340  0.3025 -0.0726  0.0357
  649ERGO    R210093  15.885  12.548   9.134 -0.1477 -0.2025  0.0286
  649ERGO    R310094  16.058  12.390   8.996  0.0791  0.0921 -0.0322
  649ERGO    R410095  15.874  12.494   8.793 -0.3021 -0.3857  0.0613
  649ERGO    R510096  15.922  12.285   8.829  0.1659 -0.2728  0.1233
  649ERGO    C110097  16.030  12.315   8.465 -0.1791 -0.2159  0.0233
  649ERGO    C210098  15.912  12.343   8.110  0.1747 -0.1939 -0.2697
  650ERGO   ROH10099  11.190  13.012   9.524  0.1739  0.0331  0.0083
  650ERGO    R110100  11.295  12.989   9.262  0.0163  0.0333 -0.0555
  650ERGO    R210101  11.173  13.106   9.043 -0.0072  0.2035  0.0466
  650ERGO    R310102  11.419  13.216   9.006  0.0643  0.0167 -0.0472
  650ERGO    R410103  11.334  13.132   8.738 -0.0882  0.0467 -0.0105
  650ERGO    R510104  11.521  13.079   8.837 -0.0931 -0.0808 -0.0657
  650ERGO    C110105  11.659  13.250   8.526 -0.0682 -0.2201 -0.1318
  650ERGO    C210106  11.647  13.230   8.221 -0.0237  0.0269  0.1316
  651ERGO   ROH10107  10.421   7.852   9.625 -0.0562 -0.0924 -0.1167
  651ERGO    R110108  10.286   7.808   9.380 -0.0659  0.0299 -0.1334
  651ERGO    R210109  10.285   7.992   9.175  0.1206  0.0338 -0.1268
  651ERGO    R310110  10.377   7.782   9.029 -0.0469 -0.0438 -0.1247
  651ERGO    R410111  10.290   7.979   8.829  0.2442  0.0980 -0.1286
  651ERGO    R510112  10.228   7.770   8.842  0.0094  0.1558 -0.1896
  651ERGO    C110113  10.379   7.774   8.491  0.1591  0.0627 -0.1277
  651ERGO    C210114  10.526   7.845   8.178 -0.1531 -0.2415 -0.1254
  652ERGO   ROH10115   9.151   9.275   9.376  0.0506  0.1437 -0.0501
  652ERGO    R110116   9.046   9.255   9.114  0.0747  0.0010 -0.0489
  652ERGO    R210117   9.044   9.468   8.939 -0.0322 -0.0608 -0.1143
  652ERGO    R310118   9.172   9.293   8.775  0.0684 -0.0419 -0.0584
  652ERGO    R410119   9.079   9.507   8.597 -0.0583 -0.1343 -0.1261
  652ERGO    R510120   9.042   9.293   8.574  0.0600 -0.1713 -0.0609
  652ERGO    C110121   9.219   9.365   8.244  0.0210 -0.1593 -0.0804
  652ERGO    C210122   9.277   9.612   7.924  0.0140  0.0195 -0.4387
  653ERGO   ROH10123  17.635  14.034   9.392  0.1270  0.0566  0.1193
  653ERGO    R110124  17.713  14.034   9.120  0.1432 -0.0222  0.1219
  653ERGO    R210125  17.745  13.801   8.975  0.1210 -0.0710  0.1756
  653ERGO    R310126  17.571  13.921   8.804  0.1419 -0.0843  0.1481
  653ERGO    R410127  17.766  13.789   8.630  0.3341  0.1905  0.1773
  653ERGO    R510128  17.708  13.999   8.624  0.1859  0.1427  0.2863
  653ERGO    C110129  17.614  13.894   8.269  0.4775  0.3303  0.1524
  653ERGO    C210130  17.409  13.888   7.912  0.5943 -0.1302 -0.1079
  654PSPI    C110131  14.102   5.807   5.653  0.0681  0.1073  0.0195
  654PSPI    C210132  13.764   5.931   5.830  0.0826 -0.0291  0.1452
  654PSPI    C310133  13.780   5.893   5.432 -0.0620 -0.0575  0.1417
  654PSPI   PO410134  14.277   5.683   5.848  0.0176 -0.2271  0.2455
  654PSPI   GL110135  14.455   5.523   6.202  0.0993 -0.3805  0.1444
  654PSPI   GL210136  14.816   5.413   6.176 -0.2470  0.0624  0.0633
  654PSPI   C1A10137  14.180   5.482   6.576  0.1379 -0.1229  0.3129
  654PSPI   C2A10138  14.164   5.540   6.955  0.1285 -0.2007  0.0904
  654PSPI   C3A10139  13.964   5.351   7.312 -0.2346  0.1236 -0.1726
  654PSPI   C4A10140  14.077   5.291   7.686  0.1510 -0.2365 -0.2790
  654PSPI   C1B10141  14.756   5.419   6.588  0.0766 -0.0916  0.0032
  654PSPI   C2B10142  14.686   5.690   6.886  0.0617 -0.0133 -0.1783
  654PSPI   C3B10143  14.762   5.830   7.255  0.3199  0.0792  0.1377
  654PSPI   C4B10144  14.698   5.933   7.650 -0.2373  0.0262 -0.0825
  655PSPI    C110145   0.491   0.617   5.316  0.2937 -0.0875 -0.0918
  655PSPI    C210146   0.155   0.403   5.272 -0.1018  0.4918 -0.0028
  655PSPI    C310147   0.512   0.224   5.243 -0.4117 -0.1405 -0.0793
  655PSPI   PO410148   0.523   0.781   5.550  0.0370  0.1154 -0.2624
  655PSPI   GL110149   0.573   0.712   5.962  0.0625  0.2597  0.0430
  655PSPI   GL210150   0.805   0.810   5.958 -0.1255 -0.0204 -0.0554
  655PSPI   C1A10151   0.454   0.508   6.259  0.1457 -0.0262  0.1178
  655PSPI   C2A10152   0.691   0.459   6.601 -0.0494  0.1309 -0.1034
  655PSPI   C3A10153   0.793   0.196   6.974 -0.3068  0.3310 -0.1303
  655PSPI   C4A10154   1.207   0.240   7.134  0.0910  0.3227 -0.0892
  655PSPI   C1B10155   0.990   0.780   6.374 -0.0116 -0.2364 -0.0398
  655PSPI   C2B10156   1.369   1.051   6.527 -0.3006  0.1761 -0.0732
  655PSPI   C3B10157   1.400   1.252   6.897 -0.0731 -0.0635 -0.0331
  655PSPI   C4B10158   1.320   1.730   7.100 -0.0718  0.1170  0.0496
  656PSPI    C110159  13.505   4.015   5.408  0.0020 -0.0881 -0.0108
  656PSPI    C210160  13.374   4.235   5.101 -0.0313  0.0324  0.0886
  656PSPI    C310161  13.685   3.987   5.052  0.1161  0.2283  0.0193
  656PSPI   PO410162  13.417   4.201   5.675 -0.0061 -0.0368 -0.2148
  656PSPI   GL110163  13.251   4.340   6.122 -0.2083 -0.0120 -0.1384
  656PSPI   GL210164  12.882   4.161   6.130  0.0370  0.0148  0.3189
  656PSPI   C1A10165  13.299   4.425   6.551 -0.0038  0.0418 -0.1290
  656PSPI   C2A10166  13.415   4.458   6.985 -0.0121  0.0763  0.2512
  656PSPI   C3A10167  13.124   4.361   7.383 -0.1591  0.0046  0.0935
  656PSPI   C4A10168  12.870   4.186   7.666  0.2351  0.1723  0.0622
  656PSPI   C1B10169  13.015   3.993   6.442 -0.0231 -0.2941  0.2224
  656PSPI   C2B10170  12.944   4.009   6.849 -0.1340  0.0473 -0.0347
  656PSPI   C3B10171  12.677   4.011   7.200 -0.3167  0.1797 -0.0424
  656PSPI   C4B10172  12.605   3.752   7.484 -0.1709 -0.0029  0.0343
  657PSPI    C110173  16.453   8.458   5.485  0.1163  0.0359  0.2613
  657PSPI    C210174  16.189   8.308   5.225  0.0879  0.2797  0.1465
  657PSPI    C310175  16.578   8.316   5.132  0.0891  0.2807  0.1514
  657PSPI   PO410176  16.335   8.463   5.687 -0.4758 -0.1689  0.1107
  657PSPI   GL110177  16.406   8.219   6.115  0.0424 -0.0109 -0.1335
  657PSPI   GL210178  16.065   8.181   6.278 -0.3703  0.1827 -0.5312
  657PSPI   C1A10179  16.476   8.087   6.586  0.0853  0.0436 -0.1229
  657PSPI   C2A10180  16.450   8.029   7.016 -0.1529  0.0220  0.2150
  657PSPI   C3A10181  16.368   8.044   7.410 -0.0723  0.0242 -0.1326
  657PSPI   C4A10182  16.104   7.843   7.762 -0.5390  0.2486  0.1965
  657PSPI   C1B10183  16.149   8.425   6.743 -0.0903  0.0162  0.3002
  657PSPI   C2B10184  16.262   8.529   7.097 -0.1347  0.1097 -0.2770
  657PSPI   C3B10185  16.613   8.590   7.370  0.1835  0.2304  0.0301
  657PSPI   C4B10186  16.829   8.311   7.578 -0.2413 -0.1585  0.1494
  658PSPI    C110187   5.038  16.309   4.957  0.0631 -0.1649 -0.1360
  658PSPI    C210188   5.220  16.244   4.607 -0.1434 -0.0552 -0.2661
  658PSPI    C310189   5.129  16.617   4.718  0.1548 -0.0650  0.0260
  658PSPI   PO410190   5.178  16.221   5.178  0.1328 -0.0908 -0.0543
  658PSPI   GL110191   5.600  16.196   5.420 -0.1174 -0.1269  0.4870
  658PSPI   GL210192   5.779  15.889   5.409 -0.2421 -0.1630  0.0750
  658PSPI   C1A10193   5.551  16.569   5.554 -0.2093 -0.0285 -0.3849
  658PSPI   C2A10194   5.587  16.929   5.916 -0.1481 -0.3508 -0.1072
  658PSPI   C3A10195   5.284  17.183   6.184  0.2217 -0.3221  0.1943
  658PSPI   C4A10196   4.948  17.127   6.469  0.0417  0.0617  0.1851
  658PSPI   C1B10197   5.487  15.771   5.690 -0.0551 -0.2766 -0.1187
  658PSPI   C2B10198   5.319  15.725   6.078 -0.1175 -0.0522 -0.0049
  658PSPI   C3B10199   5.329  15.556   6.421  0.0362 -0.1456 -0.3428
  658PSPI   C4B10200   5.125  15.425   6.669  0.2727  0.0246 -0.0294
  659PSPI    C110201  12.685  17.894   5.387 -0.0850 -0.1926  0.0119
  659PSPI    C210202  12.737  18.267   5.253 -0.0581 -0.1356  0.1781
  659PSPI    C310203  12.961  17.969   5.108  0.0762 -0.0495  0.2072
  659PSPI   PO410204  12.723  17.911   5.668 -0.1287  0.0273  0.0010
  659PSPI   GL110205  12.760  17.748   6.109  0.0240  0.0257 -0.0945
  659PSPI   GL210206  12.594  18.090   6.156 -0.0874 -0.3398 -0.1443
  659PSPI   C1A10207  12.659  17.767   6.632  0.0496 -0.0649 -0.0926
  659PSPI   C2A10208  12.877  17.840   6.977  0.2231 -0.3079  0.0241
  659PSPI   C3A10209  12.752  17.781   7.457 -0.0766  0.0979 -0.0941
  659PSPI   C4A10210  12.670  17.767   7.814 -0.2731 -0.1190 -0.1383
  659PSPI   C1B10211  12.746  18.322   6.446  0.1093  0.1880  0.1944
  659PSPI   C2B10212  13.004  18.484   6.830 -0.2834 -0.2097 -0.2471
  659PSPI   C3B10213  13.113  18.661   7.183  0.0040  0.0413 -0.0688
  659PSPI   C4B10214  12.973  19.149   7.221 -0.0611  0.3757  0.1483
  660PSPI    C110215   0.679   9.907   5.438 -0.0909  0.0975 -0.1541
  660PSPI    C210216   1.025  10.001   5.261 -0.0646  0.3328  0.0173
  660PSPI    C310217   0.733   9.829   5.050  0.2004  0.0156 -0.0999
  660PSPI   PO410218   0.671  10.169   5.576 -0.2432  0.0944 -0.1955
  660PSPI   GL110219   0.554  10.311   5.950 -0.3306  0.0036  0.3459
  660PSPI   GL210220   0.866  10.293   5.972 -0.0022  0.3975 -0.1949
  660PSPI   C1A10221   0.494  10.444   6.417  0.1693 -0.0431 -0.0797
  660PSPI   C2A10222   0.605  10.442   6.809 -0.0660 -0.0018  0.2356
  660PSPI   C3A10223   0.512  10.292   7.214 -0.0085 -0.1890 -0.1796
  660PSPI   C4A10224   0.610  10.202   7.611 -0.0398 -0.0695  0.1402
  660PSPI   C1B10225   0.779  10.081   6.371 -0.1000 -0.1433  0.1602
  660PSPI   C2B10226   0.910   9.951   6.721 -0.3095 -0.1452 -0.0240
  660PSPI   C3B10227   1.381   9.911   6.919  0.1125 -0.2884 -0.1497
  660PSPI   C4B10228   1.359   9.851   7.353 -0.0314 -0.0566 -0.2246
  661PSPI    C110229   1.520  10.506   5.472  0.0483  0.0135 -0.3837
  661PSPI    C210230   1.143  10.376   5.509 -0.0603  0.3679 -0.1984
  661PSPI    C310231   1.305  10.419   5.146 -0.1539  0.0975 -0.2748
  661PSPI   PO410232   1.561  10.640   5.604 -0.0883 -0.2120 -0.3427
  661PSPI   GL110233   1.544  10.659   6.006 -0.0162  0.3470  0.2868
  661PSPI   GL210234   1.422  10.396   5.979 -0.1860  0.2154 -0.0906
  661PSPI   C1A10235   1.593  10.664   6.451  0.1045 -0.0704 -0.2969
  661PSPI   C2A10236   1.804  10.701   6.929 -0.1130 -0.0792  0.0402
  661PSPI   C3A10237   1.958  11.062   7.262 -0.2536  0.3479  0.0266
  661PSPI   C4A10238   2.222  11.317   7.188  0.0584  0.0151 -0.2958
  661PSPI   C1B10239   1.918  10.327   6.163 -0.0296 -0.0523  0.1557
  661PSPI   C2B10240   2.098   9.983   6.484 -0.2324 -0.1129  0.0604
  661PSPI   C3B10241   2.248   9.784   6.876  0.0965 -0.0165 -0.2394
  661PSPI   C4B10242   2.336  10.015   7.246 -0.1050  0.1320 -0.2074
  662PSPI    C110243   3.155   3.719   5.887 -0.2621  0.0278 -0.0891
  662PSPI    C210244   3.351   3.404   5.738 -0.1534  0.0560 -0.0070
  662PSPI    C310245   3.215   3.688   5.492  0.0349  0.1081 -0.0529
  662PSPI   PO410246   3.375   3.875   6.044 -0.2162  0.2735  0.2299
  662PSPI   GL110247   3.680   3.861   6.377 -0.0174 -0.3377  0.0650
  662PSPI   GL210248   3.910   3.785   6.165 -0.1034  0.0546  0.2283
  662PSPI   C1A10249   3.517   3.679   6.737 -0.2952  0.2259 -0.1186
  662PSPI   C2A10250   3.379   3.386   7.065  0.0602  0.1758  0.0325
  662PSPI   C3A10251   3.271   3.196   7.448  0.1362 -0.6031  0.0224
  662PSPI   C4A10252   3.132   2.851   7.494  0.0325 -0.3347  0.0682
  662PSPI   C1B10253   3.719   3.341   6.355 -0.1626  0.1867  0.1972
  662PSPI   C2B10254   3.449   3.119   6.644  0.4828  0.1055  0.0514
  662PSPI   C3B10255   3.406   2.812   7.024  0.0263  0.0983  0.0461
  662PSPI   C4B10256   3.082   2.473   7.218 -0.0990  0.1395 -0.1396
  663PSPI    C110257  14.267  11.197   5.395  0.0892  0.0058 -0.1155
  663PSPI    C210258  14.617  11.109   5.224  0.0480 -0.0964 -0.1482
  663PSPI    C310259  14.473  11.481   5.203  0.1493 -0.0565 -0.1440
  663PSPI   PO410260  14.301  11.093   5.665 -0.0393 -0.4101 -0.1561
  663PSPI   GL110261  14.417  11.294   6.059 -0.0040  0.2558 -0.0658
  663PSPI   GL210262  14.412  11.617   6.076  0.1090  0.0731 -0.2140
  663PSPI   C1A10263  14.109  11.436   6.459 -0.2253  0.1498 -0.1333
  663PSPI   C2A10264  14.128  11.447   6.904 -0.2372 -0.2030 -0.1685
  663PSPI   C3A10265  14.251  11.325   7.302  0.0026 -0.0039 -0.0069
  663PSPI   C4A10266  14.364  11.481   7.619  0.0278  0.1782  0.1106
  663PSPI   C1B10267  14.536  11.756   6.491 -0.0939  0.1365 -0.0384
  663PSPI   C2B10268  14.553  11.717   6.975 -0.1243 -0.3286 -0.0693
  663PSPI   C3B10269  14.747  11.791   7.414 -0.3442  0.0649  0.1804
  663PSPI   C4B10270  14.786  11.648   7.892  0.1706 -0.1921  0.2770
  664PSPI    C110271  11.312  14.640   5.403 -0.1407  0.0826  0.4272
  664PSPI    C210272  11.334  15.035   5.343 -0.2987  0.0407  0.0642
  664PSPI    C310273  11.148  14.802   5.076  0.2359 -0.3435  0.0114
  664PSPI   PO410274  11.256  14.648   5.662  0.0357 -0.0708  0.2235
  664PSPI   GL110275  11.401  14.666   6.037 -0.5173  0.0732 -0.0507
  664PSPI   GL210276  11.646  14.693   6.108 -0.3359 -0.0129  0.1256
  664PSPI   C1A10277  11.260  14.851   6.362  0.0083 -0.1795 -0.2349
  664PSPI   C2A10278  11.113  14.997   6.712  0.0183  0.1372  0.2453
  664PSPI   C3A10279  10.801  14.976   7.006 -0.0378 -0.3359  0.0370
  664PSPI   C4A10280  10.542  15.197   7.145 -0.2531 -0.0994  0.1685
  664PSPI   C1B10281  11.688  15.120   6.255  0.0103 -0.0875 -0.2660
  664PSPI   C2B10282  11.606  15.015   6.676  0.1311 -0.1003 -0.1777
  664PSPI   C3B10283  11.498  15.087   7.090 -0.1970 -0.2475 -0.2219
  664PSPI   C4B10284  11.168  15.205   7.263 -0.2633 -0.1284 -0.0804
  665PSPI    C110285  17.183  16.085   5.318 -0.1474 -0.1380 -0.1964
  665PSPI    C210286  16.938  16.320   5.106 -0.0677  0.0120 -0.1242
  665PSPI    C310287  17.332  16.328   5.036 -0.0399  0.0686  0.0339
  665PSPI   PO410288  17.115  16.158   5.626 -0.0261  0.1164 -0.2244
  665PSPI   GL110289  17.055  16.088   6.026 -0.2609  0.1021 -0.1653
  665PSPI   GL210290  16.865  16.407   6.024 -0.1248 -0.3527  0.0932
  665PSPI   C1A10291  17.214  15.871   6.343 -0.0419 -0.1452 -0.0785
  665PSPI   C2A10292  17.138  15.749   6.648  0.1479 -0.1009 -0.2183
  665PSPI   C3A10293  17.037  15.426   6.909  0.0554 -0.1398 -0.1600
  665PSPI   C4A10294  17.041  15.019   6.986 -0.0014  0.0860 -0.0855
  665PSPI   C1B10295  16.941  16.498   6.372  0.1122 -0.1577  0.0331
  665PSPI   C2B10296  17.138  16.293   6.595  0.3063 -0.1213  0.0793
  665PSPI   C3B10297  17.487  16.064   6.682 -0.2066 -0.0083 -0.1003
  665PSPI   C4B10298  17.829  16.057   6.844  0.1302 -0.2701 -0.0435
  666PSPI    C110299  16.366  16.650   5.559 -0.0597  0.0977  0.0278
  666PSPI    C210300  16.556  16.308   5.643 -0.3643 -0.0638  0.0745
  666PSPI    C310301  16.394  16.362   5.282 -0.0617  0.1550 -0.0321
  666PSPI   PO410302  16.526  16.801   5.642 -0.2831  0.1186 -0.2592
  666PSPI   GL110303  16.643  16.865   6.001  0.0713  0.1219 -0.0272
  666PSPI   GL210304  16.470  17.113   6.055  0.0760 -0.2392 -0.0335
  666PSPI   C1A10305  16.768  17.007   6.400  0.0845 -0.4506 -0.0536
  666PSPI   C2A10306  16.757  16.837   6.752  0.0876 -0.0195  0.1500
  666PSPI   C3A10307  16.880  16.387   6.956  0.0410 -0.2343 -0.0472
  666PSPI   C4A10308  17.054  15.899   7.112 -0.1679 -0.0799 -0.2142
  666PSPI   C1B10309  16.246  17.069   6.373 -0.3876 -0.1856  0.1806
  666PSPI   C2B10310  16.292  17.037   6.741  0.0659 -0.0621  0.2692
  666PSPI   C3B10311  16.205  16.767   7.148 -0.0284  0.0542  0.4215
  666PSPI   C4B10312  16.484  16.583   7.482 -0.2152 -0.2203  0.2737
  667PSPI    C110313   2.208   6.645   5.333  0.0982 -0.0477 -0.0276
  667PSPI    C210314   2.093   6.295   5.179 -0.1110  0.0389 -0.0723
  667PSPI    C310315   1.946   6.636   5.032  0.0993  0.1473 -0.0360
  667PSPI   PO410316   2.188   6.611   5.567  0.1255 -0.0195 -0.2100
  667PSPI   GL110317   2.001   6.427   5.843 -0.1610  0.2156  0.1039
  667PSPI   GL210318   1.752   6.685   5.894  0.1328  0.1879  0.0069
  667PSPI   C1A10319   2.147   6.300   6.275 -0.2677 -0.0259 -0.1516
  667PSPI   C2A10320   2.233   6.176   6.613  0.0907 -0.3720  0.0730
  667PSPI   C3A10321   2.397   6.339   7.027  0.1349  0.0021  0.0669
  667PSPI   C4A10322   2.572   6.568   7.483 -0.2496  0.2174  0.0593
  667PSPI   C1B10323   1.656   6.483   6.311  0.1325 -0.1256 -0.1829
  667PSPI   C2B10324   1.478   6.646   6.685  0.0797 -0.3158  0.1508
  667PSPI   C3B10325   1.441   6.464   7.105 -0.3773 -0.0169  0.1639
  667PSPI   C4B10326   1.524   6.215   7.424  0.2150  0.0792 -0.0080
  668PSPI    C110327   9.889  12.890   5.309 -0.2412 -0.0910 -0.1140
  668PSPI    C210328  10.029  13.106   5.615 -0.2919 -0.3057  0.0637
  668PSPI    C310329  10.278  12.981   5.328 -0.2162 -0.2329  0.0971
  668PSPI   PO410330   9.584  12.980   5.454  0.0307  0.4243 -0.0636
  668PSPI   GL110331   9.431  12.775   5.797  0.1396 -0.3450 -0.1715
  668PSPI   GL210332   9.104  12.849   5.984  0.0515  0.0520  0.0522
  668PSPI   C1A10333   9.569  12.465   6.135  0.1369 -0.0310 -0.1288
  668PSPI   C2A10334   9.910  12.298   6.509 -0.3160 -0.1603  0.0716
  668PSPI   C3A10335  10.034  12.362   6.928 -0.3018  0.1687 -0.2036
  668PSPI   C4A10336  10.375  12.393   7.235  0.2696  0.0740  0.0541
  668PSPI   C1B10337   9.136  12.687   6.382  0.2680  0.0880  0.2064
  668PSPI   C2B10338   9.432  12.525   6.668 -0.1239 -0.0929  0.2283
  668PSPI   C3B10339   9.610  12.464   7.152  0.0342 -0.1618  0.4717
  668PSPI   C4B10340   9.925  12.205   7.351 -0.0036  0.2211 -0.4211
  669PSPI    C110341   3.585   4.458   5.400 -0.4709  0.2656 -0.0003
  669PSPI    C210342   3.428   4.090   5.383 -0.0152  0.0689 -0.1052
  669PSPI    C310343   3.337   4.360   5.103  0.0055 -0.1130 -0.2891
  669PSPI   PO410344   3.529   4.544   5.620 -0.0369 -0.0297 -0.1174
  669PSPI   GL110345   3.598   4.622   6.000  0.1184 -0.2198 -0.0203
  669PSPI   GL210346   3.378   4.407   6.186  0.1188 -0.2238  0.2884
  669PSPI   C1A10347   3.512   4.846   6.315 -0.1558  0.4315 -0.1408
  669PSPI   C2A10348   3.533   4.987   6.632 -0.1191 -0.0359  0.0457
  669PSPI   C3A10349   3.670   5.169   7.027  0.1987 -0.5087 -0.1476
  669PSPI   C4A10350   4.042   5.259   7.254  0.1504  0.0266  0.0485
  669PSPI   C1B10351   3.104   4.600   6.462 -0.0648 -0.3343 -0.1048
  669PSPI   C2B10352   3.228   4.609   6.820  0.1285 -0.1365  0.2884
  669PSPI   C3B10353   3.302   4.836   7.283  0.0682  0.2825  0.0199
  669PSPI   C4B10354   3.568   5.138   7.538  0.4134  0.1469 -0.0351
  670PSPI    C110355   7.305   3.877   5.190  0.0079 -0.3047  0.1244
  670PSPI    C210356   7.654   3.763   5.031 -0.1088 -0.0280 -0.3497
  670PSPI    C310357   7.323   3.769   4.805 -0.2881  0.3468 -0.0865
  670PSPI   PO410358   7.415   3.938   5.439 -0.1485 -0.1188 -0.2458
  670PSPI   GL110359   7.297   3.793   5.879 -0.2121  0.2589 -0.0500
  670PSPI   GL210360   7.405   3.499   5.938 -0.0798  0.2005  0.0119
  670PSPI   C1A10361   7.094   3.896   6.257 -0.3939  0.1064  0.1016
  670PSPI   C2A10362   7.179   4.122   6.617 -0.0118 -0.0297  0.1738
  670PSPI   C3A10363   7.051   4.238   6.971 -0.3342  0.2534 -0.1573
  670PSPI   C4A10364   7.087   4.183   7.342 -0.1881 -0.0750  0.0703
  670PSPI   C1B10365   7.565   3.319   6.278  0.1984 -0.0969 -0.1998
  670PSPI   C2B10366   7.352   3.323   6.782 -0.0966  0.0310  0.1362
  670PSPI   C3B10367   7.236   2.945   7.159  0.1808 -0.0286  0.3656
  670PSPI   C4B10368   6.917   2.787   7.465  0.1797  0.1479 -0.2442
  671PSPI    C110369  14.695  16.644   4.985  0.1080  0.0453 -0.1149
  671PSPI    C210370  15.085  16.734   4.977  0.1172  0.0035 -0.1355
  671PSPI    C310371  14.832  16.916   4.725  0.0950  0.1629 -0.0001
  671PSPI   PO410372  14.641  16.558   5.308 -0.0290  0.6210  0.0837
  671PSPI   GL110373  14.766  16.607   5.760  0.1015 -0.4243  0.4408
  671PSPI   GL210374  14.556  16.302   5.929 -0.1143 -0.0665  0.1637
  671PSPI   C1A10375  15.058  16.405   6.191 -0.0184 -0.2230 -0.1797
  671PSPI   C2A10376  15.329  16.482   6.551 -0.0943  0.1366  0.0078
  671PSPI   C3A10377  15.448  16.418   6.984  0.0139 -0.0329 -0.1345
  671PSPI   C4A10378  15.526  16.566   7.407 -0.1004  0.0648 -0.3321
  671PSPI   C1B10379  14.333  16.701   6.001  0.2139  0.1603 -0.3820
  671PSPI   C2B10380  14.029  16.895   6.264 -0.2452 -0.0263  0.1511
  671PSPI   C3B10381  13.938  17.180   6.666 -0.1059  0.0886  0.4030
  671PSPI   C4B10382  13.983  17.502   7.011 -0.1361 -0.1732 -0.4087
  672PSPI    C110383  11.498   8.880   5.646  0.0256 -0.0634 -0.0835
  672PSPI    C210384  11.265   9.025   5.354 -0.0931  0.1335  0.1056
  672PSPI    C310385  11.398   8.648   5.336 -0.0708  0.1541 -0.2183
  672PSPI   PO410386  11.351   9.056   5.819  0.0855  0.0622  0.1140
  672PSPI   GL110387  11.080   8.963   6.154  0.0094 -0.2401 -0.0310
  672PSPI   GL210388  11.362   8.872   6.330 -0.3709  0.0075 -0.0639
  672PSPI   C1A10389  10.686   8.997   6.318  0.3423  0.2062 -0.2041
  672PSPI   C2A10390  10.490   9.026   6.606 -0.0670  0.0480 -0.0639
  672PSPI   C3A10391  10.478   9.039   6.981 -0.3503  0.2674 -0.0544
  672PSPI   C4A10392  10.426   9.006   7.390  0.2219 -0.0958  0.1604
  672PSPI   C1B10393  11.550   9.032   6.769 -0.1498 -0.1131  0.1859
  672PSPI   C2B10394  11.392   9.175   7.128 -0.1725 -0.0701 -0.1434
  672PSPI   C3B10395  11.150   9.545   7.379 -0.0847  0.1004  0.0089
  672PSPI   C4B10396  10.988   9.816   7.738 -0.1027  0.2433 -0.0725
  673PSPI    C110397  12.914  13.611   5.272 -0.1925  0.1726 -0.1104
  673PSPI    C210398  12.794  13.252   5.142  0.1081 -0.0730  0.2629
  673PSPI    C310399  13.158  13.388   5.046 -0.0273  0.1648  0.0721
  673PSPI   PO410400  12.887  13.557   5.507 -0.0960 -0.2263  0.1641
  673PSPI   GL110401  12.790  13.427   5.881 -0.2205 -0.0640  0.2568
  673PSPI   GL210402  13.096  13.374   6.005  0.1418 -0.0195  0.0049
  673PSPI   C1A10403  12.568  13.385   6.247  0.1792  0.1154 -0.2003
  673PSPI   C2A10404  12.480  13.547   6.637 -0.0980 -0.0166  0.1392
  673PSPI   C3A10405  12.402  13.794   6.829 -0.2311 -0.0577 -0.0582
  673PSPI   C4A10406  12.441  13.662   7.282 -0.4648  0.1160  0.0073
  673PSPI   C1B10407  12.995  13.465   6.463 -0.0348 -0.1800 -0.0895
  673PSPI   C2B10408  12.859  13.554   6.906 -0.0631 -0.3478  0.1499
  673PSPI   C3B10409  13.018  13.843   7.291  0.1073  0.1634 -0.1207
  673PSPI   C4B10410  13.282  14.186   7.386  0.0729  0.1043  0.0557
  674POPI    C110411  10.034  17.874   5.429  0.1741 -0.0616 -0.0685
  674POPI    C210412   9.751  17.866   5.146 -0.0597  0.1127  0.1550
  674POPI    C310413  10.044  17.594   5.144 -0.1912 -0.0309 -0.1169
  674POPI   PO410414   9.900  17.854   5.706  0.0269 -0.0981 -0.0606
  674POPI   GL110415   9.878  17.688   6.130 -0.1055 -0.2886  0.1998
  674POPI   GL210416  10.139  17.480   6.160 -0.0690 -0.0255  0.1646
  674POPI   C1A10417   9.877  17.705   6.639 -0.0517 -0.0335  0.1363
  674POPI   D2A10418  10.165  17.773   6.896  0.2524 -0.1194 -0.0836
  674POPI   C3A10419  10.147  18.065   7.277 -0.4567  0.2361 -0.0127
  674POPI   C4A10420  10.323  18.137   7.758 -0.2714 -0.0902 -0.0099
  674POPI   C1B10421  10.328  17.728   6.405  0.1689 -0.0517  0.0515
  674POPI   C2B10422  10.590  17.916   6.702  0.1517 -0.0514  0.1855
  674POPI   C3B10423  10.462  18.177   6.866  0.0945  0.0840  0.1232
  674POPI   C4B10424  10.557  18.398   7.306  0.3206  0.1508  0.0941
  675POPI    C110425   9.134  12.662   5.415  0.0280 -0.0747  0.1748
  675POPI    C210426   9.181  12.265   5.429 -0.0864 -0.1017 -0.1381
  675POPI    C310427   9.493  12.501   5.345 -0.0066 -0.1201  0.1001
  675POPI   PO410428   8.876  12.649   5.563 -0.1598 -0.4693 -0.1253
  675POPI   GL110429   8.648  12.545   5.966 -0.1181 -0.2139 -0.0562
  675POPI   GL210430   8.318  12.559   6.124  0.2746  0.0728 -0.0738
  675POPI   C1A10431   8.678  12.440   6.380 -0.1280  0.1737  0.1996
  675POPI   D2A10432   8.777  12.538   6.757  0.0006  0.2755 -0.1000
  675POPI   C3A10433   9.059  12.832   6.858 -0.0615 -0.1794 -0.1483
  675POPI   C4A10434   9.198  12.930   7.205 -0.0123 -0.2769  0.1449
  675POPI   C1B10435   8.219  12.406   6.565 -0.0048 -0.2581 -0.0499
  675POPI   C2B10436   8.136  12.088   6.864 -0.0754 -0.2842  0.1240
  675POPI   C3B10437   8.057  11.769   7.282 -0.0340 -0.1512 -0.0529
  675POPI   C4B10438   7.768  11.541   7.580  0.0440  0.0703  0.0105
  676POPI    C110439  17.007  15.070   5.020 -0.3118  0.0107 -0.1395
  676POPI    C210440  17.251  14.863   4.780 -0.0625  0.2042 -0.0576
  676POPI    C310441  16.855  14.852   4.721 -0.0507 -0.2443 -0.0910
  676POPI   PO410442  17.252  15.152   5.224 -0.1195 -0.2292 -0.3955
  676POPI   GL110443  17.212  15.228   5.769  0.1465 -0.1639 -0.0884
  676POPI   GL210444  17.425  15.498   5.920  0.2664  0.2283  0.0829
  676POPI   C1A10445  16.948  14.940   6.027 -0.2236 -0.1200 -0.3941
  676POPI   D2A10446  17.042  14.961   6.442  0.0045 -0.0070  0.0825
  676POPI   C3A10447  17.045  14.513   6.592 -0.0836 -0.0243  0.0721
  676POPI   C4A10448  16.986  14.094   6.853  0.0007  0.0127  0.0373
  676POPI   C1B10449  17.308  15.360   6.350 -0.1407  0.1151 -0.0811
  676POPI   C2B10450  17.543  15.211   6.716  0.2025  0.0805  0.1918
  676POPI   C3B10451  17.514  15.180   7.115  0.0872  0.2413 -0.0696
  676POPI   C4B10452  17.244  15.348   7.371 -0.2605 -0.1678 -0.0127
  677POPI    C110453  18.534   7.034   5.249  0.2145  0.0975 -0.0288
  677POPI    C210454  18.833   7.158   5.014  0.1778  0.0067 -0.1240
  677POPI    C310455  18.693   6.785   4.980 -0.0603  0.1009 -0.1971
  677POPI   PO410456  18.647   7.154   5.481  0.0434 -0.3282  0.3680
  677POPI   GL110457  18.452   7.427   5.864  0.6093 -0.2619  0.2586
  677POPI   GL210458  18.499   7.766   6.036 -0.1384  0.2374  0.1301
  677POPI   C1A10459  18.635   7.215   6.202 -0.1241  0.2594  0.0672
  677POPI   D2A10460  18.666   7.444   6.545  0.1334  0.0693 -0.1012
  677POPI   C3A10461  18.767   7.247   6.891  0.0131 -0.0207  0.0764
  677POPI   C4A10462  18.907   7.376   7.275  0.1547  0.2007 -0.2566
  677POPI   C1B10463  18.163   7.626   6.304  0.0906  0.2023 -0.2375
  677POPI   C2B10464  17.908   7.538   6.750  0.0670 -0.1137 -0.2165
  677POPI   C3B10465  17.741   7.160   7.017 -0.2296  0.1206  0.0648
  677POPI   C4B10466  17.532   6.855   7.198 -0.0856  0.3551 -0.2500
  678POPI    C110467  17.708   1.909   5.071  0.2695  0.1959 -0.0164
  678POPI    C210468  17.882   1.914   4.711  0.1342  0.0731 -0.0843
  678POPI    C310469  17.892   1.581   4.933  0.2660  0.1655  0.0504
  678POPI   PO410470  17.801   2.085   5.258  0.1388  0.1002 -0.1090
  678POPI   GL110471  18.057   1.883   5.519 -0.0407  0.0749  0.0645
  678POPI   GL210472  17.869   1.980   5.798 -0.0611  0.0546  0.0849
  678POPI   C1A10473  18.433   1.947   5.873  0.3119  0.2300  0.1806
  678POPI   D2A10474  18.692   2.296   6.041 -0.0518 -0.2643  0.0700
  678POPI   C3A10475  18.837   2.264   6.469  0.0432  0.3264  0.1639
  678POPI   C4A10476  18.761   2.406   6.874 -0.0379  0.0169  0.0487
  678POPI   C1B10477  17.789   1.904   6.203  0.0553 -0.0044 -0.0513
  678POPI   C2B10478  17.778   1.772   6.625 -0.1648  0.3013  0.3886
  678POPI   C3B10479  17.695   1.567   6.952 -0.0925 -0.3406 -0.0875
  678POPI   C4B10480  17.413   1.315   7.297  0.2808  0.1399  0.0511
  679POPI    C110481   3.216  13.523   5.564  0.1719 -0.2953  0.1682
  679POPI    C210482   3.073  13.430   5.203  0.0605 -0.0659  0.1514
  679POPI    C310483   3.447  13.568   5.241  0.0256  0.0424  0.1058
  679POPI   PO410484   3.212  13.282   5.719  0.1848  0.2930 -0.0806
  679POPI   GL110485   3.440  13.242   6.069 -0.2092 -0.2160 -0.0928
  679POPI   GL210486   3.377  13.548   6.093  0.1681  0.1213 -0.1242
  679POPI   C1A10487   3.768  12.904   6.172  0.0967 -0.3746  0.0153
  679POPI   D2A10488   4.056  12.823   6.527 -0.1064  0.1878 -0.0082
  679POPI   C3A10489   4.161  13.255   6.658  0.4312 -0.3719 -0.0162
  679POPI   C4A10490   4.285  13.517   6.434 -0.3927 -0.0601  0.0559
  679POPI   C1B10491   3.278  13.681   6.645 -0.1186 -0.0471  0.0611
  679POPI   C2B10492   3.462  13.615   7.035 -0.1691 -0.0843 -0.1746
  679POPI   C3B10493   3.539  13.746   7.508  0.2908 -0.0290  0.1799
  679POPI   C4B10494   3.703  14.114   7.576  0.0173 -0.2383 -0.0798
  680POPI    C110495   5.469   0.477   5.641  0.0655  0.0900 -0.0196
  680POPI    C210496   5.855   0.492   5.537  0.0388 -0.2598 -0.1858
  680POPI    C310497   5.577   0.409   5.262 -0.1558 -0.0260 -0.0637
  680POPI   PO410498   5.483   0.642   5.874  0.1812  0.1152 -0.0381
  680POPI   GL110499   5.433   0.869   6.150 -0.1540 -0.0905 -0.1879
  680POPI   GL210500   5.162   0.876   6.245 -0.0440  0.1725 -0.0174
  680POPI   C1A10501   5.702   0.782   6.464 -0.0820 -0.0870  0.4175
  680POPI   D2A10502   5.735   0.797   6.908  0.1364  0.2396  0.2336
  680POPI   C3A10503   5.571   0.491   7.246  0.1958  0.1297  0.2197
  680POPI   C4A10504   5.574   0.397   7.714  0.0415 -0.0127 -0.1868
  680POPI   C1B10505   5.259   0.838   6.685 -0.4192 -0.0298  0.2611
  680POPI   C2B10506   5.331   0.879   7.134  0.0823 -0.0898  0.0251
  680POPI   C3B10507   5.525   0.880   7.596 -0.0274  0.1240 -0.2519
  680POPI   C4B10508   5.981   0.828   7.862 -0.2446 -0.1560  0.0203
  681POPI    C110509   5.585   4.851   5.464 -0.1211 -0.2185 -0.0735
  681POPI    C210510   5.625   4.814   5.068  0.1839  0.1127 -0.0789
  681POPI    C310511   5.621   5.178   5.236 -0.1599 -0.0155  0.2047
  681POPI   PO410512   5.640   4.637   5.565  0.1881  0.1399  0.2188
  681POPI   GL110513   5.827   4.574   6.049  0.0981  0.1957  0.0985
  681POPI   GL210514   6.131   4.511   6.086  0.1015  0.0101  0.1155
  681POPI   C1A10515   5.643   4.477   6.494  0.0736  0.0693  0.2506
  681POPI   D2A10516   5.690   4.403   6.907 -0.2352 -0.0110  0.0193
  681POPI   C3A10517   6.116   4.423   7.125 -0.4717  0.0663  0.1135
  681POPI   C4A10518   6.381   4.726   7.295  0.1275  0.0848  0.0234
  681POPI   C1B10519   6.170   4.475   6.528  0.1229  0.0391  0.0499
  681POPI   C2B10520   6.264   4.159   6.752  0.2278  0.3385 -0.0108
  681POPI   C3B10521   6.144   3.808   7.039  0.4267 -0.1091  0.2404
  681POPI   C4B10522   6.356   3.508   7.282 -0.0259  0.0986 -0.2117
  682POPI    C110523   4.230  10.429   5.125  0.1980  0.2454  0.0635
  682POPI    C210524   4.221  10.682   5.435 -0.1412  0.0697  0.2020
  682POPI    C310525   3.891  10.620   5.217 -0.0062 -0.0998  0.0427
  682POPI   PO410526   4.408  10.281   5.158 -0.3283  0.2858  0.1897
  682POPI   GL110527   4.714  10.229   5.585 -0.1241 -0.2810  0.0098
  682POPI   GL210528   4.493  10.343   5.735 -0.2584 -0.3323  0.0156
  682POPI   C1A10529   4.764   9.919   5.786 -0.0800  0.1239  0.0980
  682POPI   D2A10530   5.203   9.987   5.927  0.0443 -0.0126 -0.0927
  682POPI   C3A10531   5.313  10.341   6.104  0.0459  0.0587  0.1650
  682POPI   C4A10532   5.363  10.417   6.498 -0.0831  0.0317 -0.1818
  682POPI   C1B10533   4.137  10.499   5.927 -0.1092 -0.2465  0.0145
  682POPI   C2B10534   4.128  10.643   6.339 -0.2030  0.0952  0.0036
  682POPI   C3B10535   4.078  10.784   6.673 -0.1539  0.6180 -0.3932
  682POPI   C4B10536   3.892  10.597   7.062  0.2324 -0.0469  0.0993
  683POPI    C110537   6.176   0.928   5.534  0.3213 -0.0122  0.4122
  683POPI    C210538   6.051   1.284   5.667  0.2090  0.1075  0.0012
  683POPI    C310539   5.796   0.977   5.648  0.2653  0.0468  0.2057
  683POPI   PO410540   6.417   0.882   5.600 -0.2207 -0.1097  0.4791
  683POPI   GL110541   6.617   0.591   5.999 -0.1232  0.1787  0.2098
  683POPI   GL210542   6.742   0.777   5.923 -0.2423 -0.0230  0.0245
  683POPI   C1A10543   6.719   0.313   6.220 -0.4063  0.2005 -0.4832
  683POPI   D2A10544   6.802   0.253   6.631 -0.3543  0.1656 -0.2329
  683POPI   C3A10545   6.689   0.501   7.040 -0.1632  0.0270  0.1109
  683POPI   C4A10546   6.675   0.496   7.528  0.1260 -0.1591  0.1446
  683POPI   C1B10547   7.071   0.728   6.182  0.0264  0.0221 -0.0196
  683POPI   C2B10548   7.176   0.570   6.541  0.1746  0.1881 -0.2833
  683POPI   C3B10549   7.323   0.434   6.964  0.3000  0.1771  0.2086
  683POPI   C4B10550   7.354   0.079   7.093 -0.0806  0.3388 -0.4315
  684POPI    C110551   0.698  14.089   5.218 -0.0729 -0.0808 -0.0040
  684POPI    C210552   1.023  13.898   5.086 -0.1472 -0.2934  0.1144
  684POPI    C310553   0.870  14.202   4.875  0.1465 -0.1689  0.0756
  684POPI   PO410554   0.651  13.984   5.518 -0.2227 -0.0077  0.0949
  684POPI   GL110555   0.201  13.980   5.742 -0.1024  0.0940 -0.0078
  684POPI   GL210556   0.355  14.309   5.860 -0.2277  0.2964 -0.1649
  684POPI   C1A10557   0.084  13.852   6.158 -0.0170  0.2313 -0.2629
  684POPI   D2A10558   0.019  14.033   6.627  0.2832  0.1699 -0.0698
  684POPI   C3A10559   0.340  14.042   6.942  0.0739 -0.1105 -0.1168
  684POPI   C4A10560   0.578  13.792   7.278 -0.0849  0.1223 -0.1455
  684POPI   C1B10561  -0.108  14.345   6.008  0.1461 -0.3387  0.0287
  684POPI   C2B10562  -0.330  14.413   6.444  0.1375  0.2900 -0.1343
  684POPI   C3B10563  -0.348  14.308   6.896 -0.3021  0.0453  0.1755
  684POPI   C4B10564   0.065  14.452   7.031  0.1935  0.1117  0.1177
  685POPI    C110565  13.874   7.144   5.238 -0.0988 -0.0211 -0.1439
  685POPI    C210566  14.006   6.767   5.210  0.0541 -0.0052  0.2828
  685POPI    C310567  14.133   7.044   4.950 -0.0560 -0.2439 -0.0306
  685POPI   PO410568  13.824   7.179   5.591  0.4475  0.0342 -0.2671
  685POPI   GL110569  13.886   7.451   6.011  0.1835 -0.1991 -0.0578
  685POPI   GL210570  14.111   7.274   5.991 -0.4709 -0.1473 -0.0402
  685POPI   C1A10571  14.195   7.753   6.198  0.2797 -0.4302  0.0507
  685POPI   D2A10572  14.356   7.832   6.611 -0.0743 -0.2695  0.0273
  685POPI   C3A10573  14.149   7.804   6.938 -0.2199 -0.3115 -0.2711
  685POPI   C4A10574  14.254   7.954   7.398  0.0980 -0.1645 -0.0866
  685POPI   C1B10575  14.384   7.343   6.312 -0.0788 -0.0972  0.0825
  685POPI   C2B10576  14.602   7.428   6.705 -0.0515  0.3403 -0.1139
  685POPI   C3B10577  14.728   7.153   7.008  0.2164 -0.0040 -0.0609
  685POPI   C4B10578  14.894   7.002   7.357  0.1076 -0.0746 -0.2578
  686POPI    C110579   4.527  14.516   5.365  0.0808 -0.1391  0.2992
  686POPI    C210580   4.392  14.582   4.994  0.1203  0.1101  0.3273
  686POPI    C310581   4.294  14.245   5.186  0.1588 -0.0533  0.0641
  686POPI   PO410582   4.495  14.798   5.454 -0.0546  0.0508  0.1951
  686POPI   GL110583   4.357  14.677   5.894 -0.3559 -0.1397  0.1112
  686POPI   GL210584   4.304  14.341   5.780 -0.3163  0.1621 -0.0002
  686POPI   C1A10585   4.619  14.878   6.136  0.2473  0.1262 -0.0433
  686POPI   D2A10586   4.673  15.197   6.406 -0.2314 -0.2491 -0.0207
  686POPI   C3A10587   4.635  15.138   6.905 -0.0936 -0.0015  0.2627
  686POPI   C4A10588   4.545  14.994   7.355 -0.1682 -0.2299 -0.1365
  686POPI   C1B10589   4.366  14.375   6.244 -0.1831 -0.0715  0.2748
  686POPI   C2B10590   4.623  14.558   6.515 -0.2767 -0.0008 -0.0426
  686POPI   C3B10591   4.982  14.741   6.692 -0.1338 -0.3138  0.2233
  686POPI   C4B10592   5.207  14.937   6.949  0.2656 -0.0192  0.1314
  687POPI    C110593  18.676  14.970   5.143  0.0693 -0.0708 -0.2527
  687POPI    C210594  18.886  14.632   5.096 -0.2381 -0.2899 -0.0821
  687POPI    C310595  18.715  14.807   4.779 -0.2828 -0.4309 -0.1367
  687POPI   PO410596  18.627  14.896   5.513 -0.3734 -0.0980 -0.2144
  687POPI   GL110597  18.310  14.612   5.704 -0.0441 -0.1189  0.0500
  687POPI   GL210598  18.242  14.895   5.881 -0.1477 -0.0720 -0.1214
  687POPI   C1A10599  18.220  14.339   6.078  0.3005  0.2641 -0.0115
  687POPI   D2A10600  18.061  14.232   6.462 -0.1990  0.2167  0.1036
  687POPI   C3A10601  17.965  14.397   6.921 -0.1076  0.2268  0.0092
  687POPI   C4A10602  18.046  14.545   7.340  0.1394 -0.2193 -0.1588
  687POPI   C1B10603  18.593  14.862   6.173  0.2362  0.0680  0.1570
  687POPI   C2B10604  18.780  14.851   6.641  0.1616 -0.0475  0.0409
  687POPI   C3B10605  18.892  14.924   7.029 -0.1943  0.0313  0.1079
  687POPI   C4B10606  18.888  15.117   7.362 -0.0390  0.0529 -0.0197
  688POPI    C110607  15.074   8.623   5.646 -0.2186 -0.1849 -0.2149
  688POPI    C210608  15.137   8.904   5.368 -0.0286 -0.0987 -0.0870
  688POPI    C310609  15.289   8.537   5.320 -0.1430 -0.1344 -0.1788
  688POPI   PO410610  15.076   8.832   5.963  0.0870 -0.3143 -0.1071
  688POPI   GL110611  15.240   9.103   6.297  0.1018  0.0439  0.1284
  688POPI   GL210612  14.873   9.044   6.379  0.0206 -0.1516 -0.3013
  688POPI   C1A10613  15.674   9.335   6.126  0.0614  0.0077  0.2435
  688POPI   D2A10614  16.041   9.353   6.327  0.0926 -0.2760 -0.0480
  688POPI   C3A10615  16.057   9.405   6.803 -0.2929 -0.0344  0.1014
  688POPI   C4A10616  16.096   9.499   7.241  0.1302 -0.1279  0.0483
  688POPI   C1B10617  15.068   8.943   6.750 -0.0376 -0.0490 -0.1362
  688POPI   C2B10618  15.174   9.112   7.137 -0.0825 -0.2351 -0.0527
  688POPI   C3B10619  14.899   9.223   7.482  0.2443  0.2833  0.1016
  688POPI   C4B10620  14.622   9.371   7.768  0.1164 -0.0755  0.2463
  689POPI    C110621   8.981   6.016   5.383 -0.2221 -0.0286 -0.0623
  689POPI    C210622   8.609   6.009   5.237 -0.2254 -0.0990 -0.0510
  689POPI    C310623   8.764   5.680   5.403 -0.1061 -0.1120 -0.1864
  689POPI   PO410624   8.959   6.307   5.529 -0.0497  0.1366 -0.2985
  689POPI   GL110625   8.720   6.324   5.864  0.1521  0.3177 -0.0136
  689POPI   GL210626   8.455   6.163   5.687 -0.0460 -0.1413 -0.0817
  689POPI   C1A10627   8.830   6.312   6.258  0.1074  0.1883 -0.1856
  689POPI   D2A10628   9.097   6.420   6.586  0.2961 -0.4498  0.1276
  689POPI   C3A10629   9.011   6.248   6.901 -0.2448 -0.0215  0.0294
  689POPI   C4A10630   8.869   6.478   7.218 -0.2353  0.0810  0.0328
  689POPI   C1B10631   8.388   6.093   6.189  0.0847  0.1906  0.3202
  689POPI   C2B10632   8.192   6.059   6.712  0.0264  0.2952  0.0959
  689POPI   C3B10633   8.045   6.004   7.172 -0.1109 -0.1246 -0.2044
  689POPI   C4B10634   8.283   6.128   7.551 -0.2727 -0.0513 -0.0509
  690POPI    C110635  15.626  10.251   5.215 -0.0684 -0.0815 -0.0209
  690POPI    C210636  15.635   9.976   4.924  0.1078 -0.0157 -0.0789
  690POPI    C310637  15.907  10.269   4.931  0.0461  0.0388  0.0988
  690POPI   PO410638  15.603  10.049   5.520 -0.1247 -0.1495  0.0344
  690POPI   GL110639  15.344  10.019   5.909 -0.1150 -0.2080 -0.1680
  690POPI   GL210640  15.272   9.774   5.781  0.0520 -0.1125 -0.2919
  690POPI   C1A10641  15.260  10.055   6.346 -0.0968 -0.3934 -0.0428
  690POPI   D2A10642  15.422   9.883   6.822 -0.0775  0.1835 -0.3515
  690POPI   C3A10643  15.816   9.818   6.844 -0.1910  0.1994  0.3518
  690POPI   C4A10644  16.188  10.028   6.868  0.2159  0.2354  0.0845
  690POPI   C1B10645  15.125   9.603   6.152 -0.0976 -0.1714 -0.0854
  690POPI   C2B10646  15.069   9.569   6.622  0.1688 -0.2385 -0.3117
  690POPI   C3B10647  14.985   9.617   7.129 -0.1933 -0.0959  0.0647
  690POPI   C4B10648  14.974   9.739   7.542  0.1769  0.1020  0.0289
  691POPI    C110649   6.504  12.595   5.491  0.2041  0.0458 -0.1975
  691POPI    C210650   6.264  12.284   5.568  0.1440  0.1341 -0.0217
  691POPI    C310651   6.565  12.245   5.307  0.0022 -0.0069 -0.1668
  691POPI   PO410652   6.447  12.744   5.811  0.0383 -0.1604 -0.3875
  691POPI   GL110653   6.184  12.871   6.149 -0.2222 -0.3824 -0.0135
  691POPI   GL210654   6.039  13.088   6.226 -0.0729  0.0707 -0.0273
  691POPI   C1A10655   6.206  12.804   6.612 -0.2604  0.0972 -0.2453
  691POPI   D2A10656   5.951  12.782   6.999 -0.1368  0.1207  0.5732
  691POPI   C3A10657   6.003  12.684   7.439  0.0503  0.0771  0.2006
  691POPI   C4A10658   5.854  12.826   7.897 -0.3853 -0.0467  0.0124
  691POPI   C1B10659   6.052  13.267   6.702 -0.1693  0.0081 -0.1335
  691POPI   C2B10660   5.861  13.308   7.083  0.0285  0.0783 -0.0751
  691POPI   C3B10661   5.701  13.119   7.413  0.0339  0.0905  0.1343
  691POPI   C4B10662   5.461  13.212   7.812  0.1153 -0.1270  0.4133
  692POPI    C110663   1.380   9.148   5.743 -0.1982  0.0004  0.1641
  692POPI    C210664   1.492   9.335   6.078 -0.1674  0.1202  0.0876
  692POPI    C310665   1.490   9.532   5.730  0.1891 -0.1115 -0.0517
  692POPI   PO410666   1.102   9.024   5.867 -0.1308 -0.2269 -0.0722
  692POPI   GL110667   1.115   8.801   6.249 -0.1355  0.2265  0.0073
  692POPI   GL210668   1.160   9.115   6.369  0.0730  0.1260  0.1014
  692POPI   C1A10669   1.163   8.771   6.679  0.0404 -0.2166 -0.1207
  692POPI   D2A10670   1.065   9.068   6.895 -0.3763 -0.0328 -0.1393
  692POPI   C3A10671   0.787   9.082   7.213 -0.0037 -0.0236  0.1713
  692POPI   C4A10672   0.632   9.123   7.627 -0.1857  0.3806 -0.3384
  692POPI   C1B10673   1.487   9.189   6.630  0.0328 -0.0191  0.2367
  692POPI   C2B10674   1.491   9.366   7.084 -0.1179  0.1201 -0.2203
  692POPI   C3B10675   1.347   9.375   7.559 -0.0457  0.2862 -0.2478
  692POPI   C4B10676   1.158   8.973   7.575  0.2549 -0.2157  0.0177
  693POPI    C110677   7.531   4.901   4.990  0.0607  0.1006 -0.1073
  693POPI    C210678   7.841   4.817   4.751  0.1235  0.1113 -0.0300
  693POPI    C310679   7.467   4.741   4.629  0.1668 -0.0768 -0.0484
  693POPI   PO410680   7.626   4.767   5.239  0.2852  0.0237 -0.0353
  693POPI   GL110681   7.570   4.832   5.645 -0.1396  0.2680 -0.1482
  693POPI   GL210682   7.820   4.776   5.932  0.2110 -0.4814 -0.1711
  693POPI   C1A10683   7.339   5.189   5.958 -0.1966 -0.1423 -0.1525
  693POPI   D2A10684   7.459   5.058   6.270 -0.0569  0.1203 -0.0264
  693POPI   C3A10685   7.303   5.247   6.613  0.1114 -0.3536  0.3190
  693POPI   C4A10686   7.154   5.245   7.099 -0.2967  0.0952 -0.2658
  693POPI   C1B10687   7.809   4.729   6.304  0.2379  0.1438 -0.0217
  693POPI   C2B10688   7.672   4.811   6.646  0.1096  0.1578 -0.3063
  693POPI   C3B10689   7.614   5.099   7.018 -0.1233  0.0827 -0.0452
  693POPI   C4B10690   7.536   5.217   7.438  0.1520 -0.0064 -0.1732
  694POPI    C110691   8.744   0.595   5.317 -0.0383 -0.1653 -0.1575
  694POPI    C210692   8.455   0.351   5.188 -0.0597 -0.0093 -0.4121
  694POPI    C310693   8.829   0.216   5.223 -0.2025 -0.2863  0.1681
  694POPI   PO410694   8.707   0.561   5.601  0.2912  0.0043 -0.1667
  694POPI   GL110695   8.410   0.561   5.938  0.0564 -0.1350 -0.0195
  694POPI   GL210696   8.309   0.299   6.080 -0.1609  0.0120  0.2393
  694POPI   C1A10697   8.169   0.885   6.079  0.0711  0.1229 -0.0271
  694POPI   D2A10698   7.864   0.953   6.431 -0.1539  0.1669 -0.0895
  694POPI   C3A10699   7.947   1.210   6.863 -0.0181 -0.2033 -0.0090
  694POPI   C4A10700   8.053   1.466   7.165 -0.0567  0.2554 -0.3059
  694POPI   C1B10701   7.961   0.320   6.169  0.0559 -0.1750 -0.0923
  694POPI   C2B10702   7.734   0.023   6.289  0.0540  0.1697 -0.2912
  694POPI   C3B10703   7.406  -0.338   6.167  0.1731  0.2349 -0.2630
  694POPI   C4B10704   7.100  -0.745   6.207 -0.1202  0.0657 -0.1718
  695POPI    C110705   0.614  14.583   5.248 -0.0155  0.2605  0.2252
  695POPI    C210706   0.684  14.968   5.334 -0.0269  0.3159 -0.0076
  695POPI    C310707   0.491  14.869   4.998  0.0278  0.1034  0.0215
  695POPI   PO410708   0.734  14.532   5.563  0.0156  0.2039 -0.2858
  695POPI   GL110709   0.654  14.731   5.979 -0.0176 -0.1064  0.1634
  695POPI   GL210710   1.011  14.716   6.063 -0.3753 -0.1729 -0.1652
  695POPI   C1A10711   0.676  14.556   6.384  0.1049 -0.6265 -0.0572
  695POPI   D2A10712   0.458  14.681   6.704 -0.1977  0.1479  0.0304
  695POPI   C3A10713   0.571  14.500   7.064 -0.2694 -0.0910 -0.0729
  695POPI   C4A10714   0.949  14.243   7.309  0.0386 -0.5548 -0.0565
  695POPI   C1B10715   1.313  14.688   6.355  0.1300  0.2578 -0.2347
  695POPI   C2B10716   1.649  14.877   6.544 -0.0209 -0.0713  0.2340
  695POPI   C3B10717   1.816  15.148   6.810  0.1255 -0.4644  0.1267
  695POPI   C4B10718   1.996  15.135   7.266  0.0955 -0.2773 -0.0028
  696POPI    C110719   0.939   3.579   5.487 -0.1998  0.0944 -0.1190
  696POPI    C210720   1.060   3.820   5.192 -0.0186 -0.0150 -0.1352
  696POPI    C310721   0.745   3.921   5.416 -0.0175  0.1781 -0.2193
  696POPI   PO410722   1.182   3.584   5.714 -0.2490 -0.4408 -0.1847
  696POPI   GL110723   1.252   3.579   6.144 -0.2100 -0.2266  0.2812
  696POPI   GL210724   1.150   3.840   6.278 -0.0769  0.0237 -0.3806
  696POPI   C1A10725   1.099   3.237   6.283  0.0173  0.2147  0.3397
  696POPI   D2A10726   1.046   2.907   6.245  0.2398  0.1172 -0.0669
  696POPI   C3A10727   1.021   2.690   6.511 -0.2245 -0.0760  0.0746
  696POPI   C4A10728   0.843   2.604   6.852  0.1709 -0.3451 -0.0516
  696POPI   C1B10729   0.978   4.325   6.336  0.0018  0.1853 -0.2969
  696POPI   C2B10730   1.057   4.481   6.646  0.0158  0.0003 -0.4230
  696POPI   C3B10731   0.855   4.370   7.016 -0.0061  0.3501  0.2055
  696POPI   C4B10732   1.096   4.475   7.391  0.2287  0.0800 -0.0119
  697POPI    C110733  10.009   2.684   5.602 -0.0408  0.0032 -0.1825
  697POPI    C210734  10.315   2.862   5.415  0.1458  0.1192  0.2216
  697POPI    C310735   9.942   3.001   5.366  0.1643  0.0349 -0.1997
  697POPI   PO410736  10.085   2.537   5.821  0.0491  0.0108 -0.0812
  697POPI   GL110737  10.003   2.576   6.263  0.0816 -0.1248  0.0992
  697POPI   GL210738  10.034   2.763   6.499 -0.0410 -0.1626 -0.1664
  697POPI   C1A10739  10.011   2.193   6.565  0.1492  0.1125  0.0718
  697POPI   D2A10740  10.025   2.080   6.931  0.2134  0.1237 -0.3408
  697POPI   C3A10741   9.979   1.811   7.260 -0.1929  0.0865 -0.2467
  697POPI   C4A10742   9.793   1.779   7.600 -0.0138  0.3080 -0.2369
  697POPI   C1B10743   9.995   2.923   6.912 -0.0775 -0.0317  0.0017
  697POPI   C2B10744   9.733   3.016   7.199 -0.1052 -0.3604 -0.0523
  697POPI   C3B10745   9.641   2.914   7.544  0.2985  0.2220 -0.0721
  697POPI   C4B10746   9.622   2.582   7.689 -0.1770 -0.4523 -0.0619
  698POPI    C110747   8.781  10.207   5.166  0.0133 -0.0241  0.0505
  698POPI    C210748   8.799   9.920   5.443  0.1343 -0.3352 -0.2711
  698POPI    C310749   8.549   9.883   5.133 -0.1192  0.0864 -0.1257
  698POPI   PO410750   8.709  10.416   5.354 -0.4876 -0.0002 -0.2662
  698POPI   GL110751   8.833  10.472   5.763 -0.3834 -0.0845  0.0423
  698POPI   GL210752   8.788  10.729   5.874 -0.0754 -0.2078 -0.0560
  698POPI   C1A10753   8.495  10.407   6.124  0.1925  0.2336 -0.0292
  698POPI   D2A10754   8.365  10.058   6.409  0.4007 -0.1041 -0.1977
  698POPI   C3A10755   8.074  10.067   6.803 -0.0731  0.0787 -0.0498
  698POPI   C4A10756   7.923  10.409   7.064 -0.0494  0.0569 -0.0370
  698POPI   C1B10757   8.970  10.440   6.279 -0.4635 -0.2360 -0.1037
  698POPI   C2B10758   8.898  10.570   6.660  0.2329 -0.2494  0.1541
  698POPI   C3B10759   8.835  10.864   7.035 -0.0849 -0.1599  0.0980
  698POPI   C4B10760   8.530  11.098   7.208  0.1904  0.1666  0.1791
  699POPI    C110761  14.091   6.430   5.858  0.0487  0.0768 -0.0301
  699POPI    C210762  14.346   6.465   5.551 -0.0484  0.0389 -0.1160
  699POPI    C310763  14.179   6.792   5.711  0.1618  0.0757  0.0335
  699POPI   PO410764  14.168   6.191   6.007  0.0544  0.0292 -0.0836
  699POPI   GL110765  14.099   5.893   6.293 -0.0581 -0.1307  0.0821
  699POPI   GL210766  13.759   5.991   6.433  0.1153 -0.1494  0.2189
  699POPI   C1A10767  14.297   5.973   6.691  0.0240 -0.2166 -0.2786
  699POPI   D2A10768  14.291   6.199   7.040 -0.0558  0.0380  0.0040
  699POPI   C3A10769  14.555   6.362   7.393  0.1210 -0.1475  0.2541
  699POPI   C4A10770  14.894   6.533   7.589  0.0142 -0.1404  0.0418
  699POPI   C1B10771  13.835   5.950   6.878 -0.0775  0.2628  0.0301
  699POPI   C2B10772  13.779   6.079   7.234  0.1775 -0.2775 -0.2530
  699POPI   C3B10773  13.512   6.124   7.655 -0.2345 -0.2978 -0.2947
  699POPI   C4B10774  13.392   6.464   7.901  0.3092  0.2220  0.1247
  700POPI    C110775  18.584   0.225   5.323  0.0106  0.1172 -0.0703
  700POPI    C210776  18.228   0.043   5.330  0.0256  0.0904  0.0047
  700POPI    C310777  18.261   0.411   5.177  0.0099 -0.0006 -0.2207
  700POPI   PO410778  18.665   0.158   5.581 -0.1708  0.1067  0.0142
  700POPI   GL110779  18.744   0.166   5.944  0.2077 -0.0136 -0.0773
  700POPI   GL210780  18.670  -0.036   6.202  0.0550  0.0050  0.0531
  700POPI   C1A10781  18.319   0.486   6.204 -0.1466  0.1323 -0.1083
  700POPI   D2A10782  18.037   0.404   6.512  0.2019  0.3502  0.2104
  700POPI   C3A10783  17.633   0.722   6.633 -0.4242  0.0763  0.0819
  700POPI   C4A10784  17.414   0.969   6.948 -0.1150 -0.0805  0.1869
  700POPI   C1B10785  18.674  -0.158   6.649  0.4345 -0.1955 -0.2414
  700POPI   C2B10786  18.809  -0.389   7.001  0.1202 -0.1089  0.4006
  700POPI   C3B10787  18.732  -0.462   7.410  0.0150 -0.2230 -0.4560
  700POPI   C4B10788  18.944  -0.643   7.813 -0.2108 -0.1292 -0.2467
  701POPI    C110789  18.103   3.556   5.174  0.2029 -0.3040  0.0638
  701POPI    C210790  18.458   3.735   5.209 -0.0056  0.1032  0.1623
  701POPI    C310791  18.240   3.787   4.878  0.0490 -0.1944  0.0767
  701POPI   PO410792  18.001   3.559   5.366  0.1295 -0.2941 -0.0348
  701POPI   GL110793  17.963   3.706   5.876 -0.1937  0.1003  0.0761
  701POPI   GL210794  17.822   3.799   6.192  0.3105  0.0853 -0.1363
  701POPI   C1A10795  18.295   3.633   6.200 -0.0285  0.4563  0.3636
  701POPI   D2A10796  18.458   3.688   6.577  0.0701 -0.1232 -0.0075
  701POPI   C3A10797  18.465   4.077   6.787 -0.0045  0.2243 -0.0790
  701POPI   C4A10798  18.589   4.312   7.010 -0.1062  0.1064  0.1652
  701POPI   C1B10799  17.942   3.542   6.491  0.0000  0.2998  0.0660
  701POPI   C2B10800  18.158   3.407   6.861  0.2107 -0.0683  0.0123
  701POPI   C3B10801  18.225   3.276   7.337  0.1083  0.1174 -0.0487
  701POPI   C4B10802  17.943   3.166   7.622  0.1390  0.0175  0.0442
  702POPI    C110803  17.070   7.544   5.249  0.1061  0.1680  0.0177
  702POPI    C210804  16.858   7.322   4.994  0.0420  0.0898  0.1379
  702POPI    C310805  17.256   7.341   4.959  0.0376  0.0453  0.0592
  702POPI   PO410806  17.011   7.500   5.507  0.0868  0.1392 -0.0933
  702POPI   GL110807  16.719   7.460   5.830 -0.4774 -0.2665  0.4754
  702POPI   GL210808  16.463   7.289   5.930 -0.2220 -0.1719 -0.1153
  702POPI   C1A10809  16.688   7.787   6.055  0.0382  0.0239 -0.3858
  702POPI   D2A10810  16.941   7.969   6.430 -0.0228  0.3446 -0.1899
  702POPI   C3A10811  16.817   8.409   6.565 -0.1759 -0.0546  0.1821
  702POPI   C4A10812  16.602   8.789   6.744  0.0149 -0.1238  0.0629
  702POPI   C1B10813  16.419   6.991   6.266 -0.0998  0.1598  0.0142
  702POPI   C2B10814  16.733   7.011   6.480  0.1210 -0.2619 -0.2709
  702POPI   C3B10815  17.196   6.961   6.557 -0.1011  0.2083  0.4705
  702POPI   C4B10816  17.565   6.674   6.598  0.0711 -0.1587  0.1213
  703POPI    C110817   7.986   9.708   4.991 -0.0295  0.0635 -0.1538
  703POPI    C210818   7.613   9.592   5.080  0.0247 -0.1007 -0.1362
  703POPI    C310819   7.681   9.819   4.757 -0.1378  0.2610  0.0771
  703POPI   PO410820   8.084   9.669   5.292  0.1388 -0.2032  0.0023
  703POPI   GL110821   7.957   9.575   5.720 -0.1248  0.1635  0.0658
  703POPI   GL210822   7.952   9.938   5.756 -0.2277  0.0920  0.0766
  703POPI   C1A10823   8.286   9.246   5.884 -0.0122 -0.0294  0.1053
  703POPI   D2A10824   8.631   9.047   5.824 -0.3549 -0.2327  0.0552
  703POPI   C3A10825   9.071   9.236   5.922 -0.2178  0.1848  0.0195
  703POPI   C4A10826   9.198   9.642   6.055 -0.1895  0.1040  0.1307
  703POPI   C1B10827   8.024   9.794   6.289 -0.2538 -0.0180  0.1730
  703POPI   C2B10828   8.276   9.598   6.643 -0.1523 -0.0617  0.1102
  703POPI   C3B10829   8.554   9.751   6.994 -0.0740 -0.0023 -0.0559
  703POPI   C4B10830   8.739   9.477   7.252  0.2204 -0.0780  0.0561
  704POPI    C110831  13.128  10.815   5.532 -0.1396 -0.0292 -0.0588
  704POPI    C210832  13.269  10.446   5.595 -0.1631 -0.0513 -0.1348
  704POPI    C310833  13.520  10.743   5.500 -0.1328 -0.0273  0.0191
  704POPI   PO410834  12.971  10.920   5.723 -0.1173 -0.2406  0.0597
  704POPI   GL110835  12.800  10.876   6.174  0.2742  0.1353 -0.3232
  704POPI   GL210836  12.714  11.242   6.117 -0.1665 -0.1349 -0.0730
  704POPI   C1A10837  12.852  10.759   6.502 -0.0809 -0.1447  0.0455
  704POPI   D2A10838  13.028  10.784   6.959 -0.1111 -0.1794 -0.0616
  704POPI   C3A10839  12.849  10.502   7.102 -0.0867  0.0873 -0.0878
  704POPI   C4A10840  12.491  10.506   7.170 -0.2572 -0.0504 -0.0148
  704POPI   C1B10841  12.832  11.333   6.535 -0.0772 -0.2623 -0.2287
  704POPI   C2B10842  12.796  11.246   6.930  0.4532  0.1199  0.1435
  704POPI   C3B10843  12.753  11.358   7.317  0.1042 -0.0875 -0.1352
  704POPI   C4B10844  12.598  11.717   7.560  0.0300  0.0140  0.0887
  705POPI    C110845  14.649   5.003   5.730 -0.0542 -0.0705 -0.0458
  705POPI    C210846  14.310   5.179   5.847 -0.0344 -0.1367  0.1133
  705POPI    C310847  14.346   5.043   5.473 -0.0534  0.1875 -0.0094
  705POPI   PO410848  14.868   5.191   5.705 -0.0691 -0.2642 -0.0059
  705POPI   GL110849  15.208   5.150   5.963  0.1497 -0.0660  0.0847
  705POPI   GL210850  14.948   4.803   6.029  0.3407  0.3809 -0.1211
  705POPI   C1A10851  15.255   5.326   6.362 -0.2293 -0.0218 -0.0233
  705POPI   D2A10852  15.441   5.449   6.724  0.2686 -0.2923  0.1385
  705POPI   C3A10853  15.811   5.545   6.823  0.0929 -0.2356  0.1107
  705POPI   C4A10854  15.972   5.352   7.129 -0.1191  0.1097 -0.0071
  705POPI   C1B10855  15.048   4.904   6.425  0.5116 -0.0511 -0.0238
  705POPI   C2B10856  15.085   4.953   6.795  0.0460 -0.2512 -0.0855
  705POPI   C3B10857  15.078   5.221   7.067  0.0910 -0.0917  0.0254
  705POPI   C4B10858  15.475   5.381   7.221  0.0054  0.1511  0.1576
  706POPI    C110859   8.960  16.036   5.889 -0.1192 -0.2980 -0.0465
  706POPI    C210860   9.153  16.148   5.558 -0.2252  0.1369  0.0334
  706POPI    C310861   8.754  16.144   5.563 -0.2230 -0.0163  0.1092
  706POPI   PO410862   9.118  16.182   6.069 -0.4845  0.2858 -0.0233
  706POPI   GL110863   9.410  16.362   6.323  0.2895  0.3170 -0.1061
  706POPI   GL210864   9.393  16.051   6.486  0.1441 -0.1644 -0.1028
  706POPI   C1A10865   9.755  16.649   6.444 -0.0964  0.0714  0.2655
  706POPI   D2A10866  10.128  16.704   6.759  0.0740  0.0160  0.1350
  706POPI   C3A10867   9.976  16.650   7.176  0.1673  0.1294 -0.2408
  706POPI   C4A10868  10.152  16.494   7.522  0.0072 -0.4042 -0.0331
  706POPI   C1B10869   9.415  16.039   6.995  0.1368 -0.1064  0.1066
  706POPI   C2B10870   9.708  16.181   7.346  0.2625 -0.0160 -0.0928
  706POPI   C3B10871   9.578  16.482   7.676  0.1516 -0.0117  0.3110
  706POPI   C4B10872   9.728  16.919   7.588  0.1883 -0.0436 -0.1594
  707POPI    C110873  11.632   6.532   5.440 -0.1836  0.2531 -0.2337
  707POPI    C210874  12.013   6.580   5.330 -0.0724 -0.0895 -0.0149
  707POPI    C310875  11.745   6.444   5.066  0.0396 -0.2197 -0.0627
  707POPI   PO410876  11.716   6.379   5.733  0.0482  0.0749 -0.1419
  707POPI   GL110877  11.919   6.394   6.216 -0.3539  0.0816  0.0161
  707POPI   GL210878  11.646   6.599   6.400  0.0084  0.0013 -0.2024
  707POPI   C1A10879  12.282   6.348   6.565  0.1163  0.6197  0.3401
  707POPI   D2A10880  12.335   6.293   7.061 -0.1842 -0.2624 -0.0918
  707POPI   C3A10881  12.003   6.249   7.394  0.3524  0.0793 -0.3030
  707POPI   C4A10882  11.765   5.996   7.665 -0.2196 -0.0638 -0.2387
  707POPI   C1B10883  11.579   6.893   6.660 -0.0710 -0.1227 -0.1172
  707POPI   C2B10884  11.711   7.049   7.014 -0.3497 -0.0848  0.0088
  707POPI   C3B10885  12.005   7.027   7.259 -0.2023 -0.0071  0.0310
  707POPI   C4B10886  12.233   6.721   7.538 -0.1378 -0.1538 -0.1717
  708POPI    C110887  12.102  12.709   5.097 -0.0566  0.0169 -0.1882
  708POPI    C210888  12.383  12.990   5.055 -0.0204  0.0520  0.2411
  708POPI    C310889  12.043  13.014   4.845  0.1864  0.1477 -0.0898
  708POPI   PO410890  12.124  12.715   5.418 -0.1439 -0.0618 -0.0109
  708POPI   GL110891  12.389  12.605   5.795 -0.1512 -0.0404  0.1453
  708POPI   GL210892  12.609  12.855   5.907 -0.2686  0.0298  0.0742
  708POPI   C1A10893  12.419  12.216   6.030  0.1941  0.1335  0.2985
  708POPI   D2A10894  12.298  12.059   6.378  0.0362  0.0081 -0.0289
  708POPI   C3A10895  12.623  12.106   6.602  0.0182  0.3354  0.1984
  708POPI   C4A10896  12.764  12.407   6.808  0.1902 -0.0312  0.1144
  708POPI   C1B10897  12.295  12.960   6.207 -0.2245  0.3734  0.0015
  708POPI   C2B10898  12.182  13.088   6.589  0.1476 -0.1431  0.1367
  708POPI   C3B10899  12.188  13.343   6.973  0.1791 -0.1308  0.4417
  708POPI   C4B10900  11.966  13.542   7.409  0.1498  0.1981  0.3358
  709POPI    C110901   1.324  12.268   5.427 -0.1812  0.2547 -0.1906
  709POPI    C210902   1.197  12.560   5.184 -0.2918  0.0611 -0.3687
  709POPI    C310903   1.398  12.248   5.034 -0.2576 -0.0021 -0.1936
  709POPI   PO410904   1.454  12.373   5.707  0.0048  0.4408 -0.0310
  709POPI   GL110905   1.314  12.206   6.080 -0.3987  0.1689 -0.0444
  709POPI   GL210906   1.145  11.918   6.183  0.2314 -0.0921 -0.1629
  709POPI   C1A10907   1.245  12.382   6.466 -0.0746  0.0400 -0.2624
  709POPI   D2A10908   0.927  12.464   6.715  0.2079  0.0553  0.0264
  709POPI   C3A10909   0.710  12.780   6.957  0.0279 -0.4037 -0.0035
  709POPI   C4A10910   0.579  12.679   7.375 -0.1117 -0.0769  0.4540
  709POPI   C1B10911   1.046  11.963   6.555 -0.1450  0.0134 -0.2451
  709POPI   C2B10912   1.091  12.067   6.940  0.2851  0.1185 -0.5926
  709POPI   C3B10913   0.988  12.410   7.226 -0.1814 -0.1280  0.1443
  709POPI   C4B10914   0.906  12.477   7.704  0.3726 -0.2190  0.0506
  710POPI    C110915  13.505   2.897   5.380 -0.1314 -0.0767 -0.1839
  710POPI    C210916  13.871   2.878   5.220  0.0298  0.1552  0.1456
  710POPI    C310917  13.713   2.555   5.396  0.1787  0.1226  0.2204
  710POPI   PO410918  13.548   3.254   5.581 -0.3878 -0.1091  0.2020
  710POPI   GL110919  13.417   3.382   5.951 -0.1332  0.0665 -0.1795
  710POPI   GL210920  13.473   3.138   6.117  0.3627 -0.0745 -0.4149
  710POPI   C1A10921  13.184   3.490   6.388 -0.1105  0.2640 -0.3073
  710POPI   D2A10922  13.150   3.555   6.810  0.2687  0.1013  0.2969
  710POPI   C3A10923  13.230   3.408   7.181  0.0641  0.3992  0.1646
  710POPI   C4A10924  13.386   3.041   7.444  0.1927 -0.2075 -0.0623
  710POPI   C1B10925  13.672   2.923   6.400  0.0633 -0.4684 -0.0312
  710POPI   C2B10926  13.871   2.538   6.701 -0.1274 -0.3487  0.0552
  710POPI   C3B10927  13.884   2.210   6.926 -0.1946  0.1398 -0.0921
  710POPI   C4B10928  14.009   2.117   7.374 -0.1991  0.0046 -0.2631
  711POPI    C110929  11.487  12.515   5.487 -0.2280  0.0125  0.0420
  711POPI    C210930  11.267  12.834   5.385 -0.1495  0.0509 -0.0087
  711POPI    C310931  11.666  12.856   5.378 -0.1388 -0.1787 -0.4353
  711POPI   PO410932  11.252  12.363   5.604  0.0881  0.2014  0.0539
  711POPI   GL110933  10.815  12.343   5.829  0.1064 -0.2539  0.0608
  711POPI   GL210934  10.904  12.458   6.023 -0.2367 -0.1131 -0.0250
  711POPI   C1A10935  10.490  12.234   6.148  0.3312 -0.2466 -0.0598
  711POPI   D2A10936  10.403  12.371   6.630  0.2056  0.0144  0.0791
  711POPI   C3A10937  10.594  12.140   6.818  0.2627 -0.0458 -0.0021
  711POPI   C4A10938  10.683  12.000   7.234  0.2499  0.0567  0.0974
  711POPI   C1B10939  11.063  12.166   6.416 -0.0157 -0.0737  0.0842
  711POPI   C2B10940  11.162  12.124   6.821  0.0820 -0.1016 -0.0237
  711POPI   C3B10941  11.182  12.022   7.197 -0.3799 -0.1040 -0.0325
  711POPI   C4B10942  11.085  12.250   7.580  0.1293  0.1292  0.1906
  712POPI    C110943  16.799   8.880   5.581  0.3593  0.1311  0.0076
  712POPI    C210944  16.961   8.560   5.405  0.0602 -0.0471  0.0478
  712POPI    C310945  16.758   8.827   5.187  0.0243 -0.0614  0.0635
  712POPI   PO410946  16.656   8.847   5.766  0.3879  0.3221 -0.3906
  712POPI   GL110947  16.645   8.808   6.181 -0.1904  0.1166  0.1144
  712POPI   GL210948  16.408   8.653   6.296  0.0410 -0.1320  0.1187
  712POPI   C1A10949  17.003   8.903   6.495  0.0900  0.0537  0.0833
  712POPI   D2A10950  17.161   9.174   6.843  0.2213  0.0277 -0.0956
  712POPI   C3A10951  17.500   9.365   7.061 -0.2237 -0.0579  0.1851
  712POPI   C4A10952  17.908   9.413   7.223  0.0706 -0.0268 -0.0849
  712POPI   C1B10953  16.197   8.981   6.639  0.1075 -0.0521 -0.1832
  712POPI   C2B10954  16.191   9.006   7.120 -0.2762 -0.2516 -0.2109
  712POPI   C3B10955  16.543   9.082   7.459 -0.0499  0.0723 -0.1101
  712POPI   C4B10956  16.964   8.832   7.604 -0.1070  0.1596  0.0028
  713POPI    C110957  16.066  14.997   5.490  0.1755  0.2420 -0.0691
  713POPI    C210958  15.742  15.129   5.685  0.1172 -0.0430  0.0308
  713POPI    C310959  15.741  15.110   5.286  0.0527  0.0637  0.0257
  713POPI   PO410960  16.246  15.093   5.613 -0.2179 -0.0505 -0.0871
  713POPI   GL110961  16.425  15.311   5.863  0.1168  0.1566 -0.1672
  713POPI   GL210962  16.077  15.437   6.039 -0.0698  0.1160  0.0729
  713POPI   C1A10963  16.357  15.093   6.275  0.0314  0.1872  0.0991
  713POPI   D2A10964  16.163  15.271   6.586  0.1858 -0.0165  0.0668
  713POPI   C3A10965  16.068  15.140   6.991 -0.0856  0.0546  0.4237
  713POPI   C4A10966  16.066  15.127   7.481  0.2295  0.0274  0.2100
  713POPI   C1B10967  16.151  15.729   6.375 -0.1090  0.1437 -0.0438
  713POPI   C2B10968  16.094  15.843   6.741 -0.2066  0.0702  0.1145
  713POPI   C3B10969  16.049  15.831   7.177  0.1444  0.0779  0.1830
  713POPI   C4B10970  16.066  16.138   7.598 -0.1205 -0.0423  0.0642
  714POPI    C110971   5.005  18.189   5.289 -0.0231  0.0710 -0.0442
  714POPI    C210972   4.936  18.541   5.112  0.0133  0.0491 -0.1021
  714POPI    C310973   4.737  18.215   4.994  0.2987 -0.0389 -0.3535
  714POPI   PO410974   5.029  18.285   5.604 -0.1950  0.2884 -0.0571
  714POPI   GL110975   5.193  18.212   5.973 -0.2918  0.1675  0.2016
  714POPI   GL210976   5.514  18.252   5.965  0.1254  0.1118 -0.0857
  714POPI   C1A10977   5.002  18.215   6.312 -0.1993 -0.2639 -0.3357
  714POPI   D2A10978   5.042  18.036   6.708  0.1977 -0.1738 -0.1827
  714POPI   C3A10979   5.191  17.928   6.946 -0.1473 -0.2594 -0.0738
  714POPI   C4A10980   5.459  17.963   7.333  0.1742  0.0615 -0.1911
  714POPI   C1B10981   5.584  18.208   6.428 -0.0268  0.3386  0.1014
  714POPI   C2B10982   5.684  18.101   6.813  0.2137 -0.0763 -0.1999
  714POPI   C3B10983   5.928  17.980   7.158  0.1958  0.2378  0.2859
  714POPI   C4B10984   5.857  17.666   7.515  0.4014 -0.1330 -0.3435
  715POPI    C110985   3.600   8.207   5.489 -0.1676 -0.0671  0.0543
  715POPI    C210986   3.714   8.500   5.242 -0.1332 -0.0902  0.0424
  715POPI    C310987   3.682   8.125   5.106 -0.0512 -0.1143  0.0887
  715POPI   PO410988   3.412   8.273   5.585  0.2004  0.1001  0.0112
  715POPI   GL110989   3.128   8.376   5.928  0.1850  0.1912  0.1519
  715POPI   GL210990   3.477   8.398   6.076 -0.1539 -0.2337  0.0936
  715POPI   C1A10991   2.844   8.636   6.199 -0.2449  0.1540  0.4952
  715POPI   D2A10992   2.674   8.923   6.407 -0.3337 -0.3420 -0.1126
  715POPI   C3A10993   2.316   9.001   6.447  0.2207 -0.4133 -0.0879
  715POPI   C4A10994   1.933   8.846   6.449  0.2737 -0.2182  0.0723
  715POPI   C1B10995   3.351   8.597   6.355 -0.0155 -0.2062  0.3593
  715POPI   C2B10996   3.152   8.918   6.614  0.1387  0.0948 -0.2470
  715POPI   C3B10997   3.057   9.262   6.814  0.1379 -0.0358 -0.4905
  715POPI   C4B10998   2.953   9.615   7.111  0.4232 -0.1351 -0.0324
  716POPI    C110999   2.681  18.425   5.606 -0.2691  0.0665 -0.0375
  716POPI    C211000   2.685  18.566   5.232  0.3516  0.2417  0.0249
  716POPI    C311001   2.509  18.776   5.524 -0.1141  0.1152 -0.1558
  716POPI   PO411002   2.863  18.230   5.579  0.1590  0.2048 -0.2040
  716POPI   GL111003   3.008  17.962   6.024  0.1811 -0.0627  0.0803
  716POPI   GL211004   2.703  17.992   6.275  0.2353 -0.1805 -0.3288
  716POPI   C1A11005   3.114  17.768   6.367 -0.0391  0.5719  0.1480
  716POPI   D2A11006   3.349  17.472   6.596  0.0752  0.1050 -0.2691
  716POPI   C3A11007   3.285  17.437   7.095 -0.0537  0.1204 -0.0059
  716POPI   C4A11008   3.555  17.227   7.462 -0.1346  0.2294  0.1443
  716POPI   C1B11009   2.438  18.199   6.361  0.2479 -0.0851  0.0031
  716POPI   C2B11010   1.992  18.320   6.311 -0.2064 -0.0055  0.2808
  716POPI   C3B11011   1.697  18.472   6.301 -0.0280 -0.2726 -0.3368
  716POPI   C4B11012   1.262  18.753   6.279  0.1376  0.2124 -0.1831
  717POPI    C111013   9.194   5.467   5.585  0.0058  0.0464  0.0577
  717POPI    C211014   9.225   5.567   5.199 -0.0425  0.0889  0.0648
  717POPI    C311015   9.118   5.196   5.302 -0.0060  0.0708  0.0375
  717POPI   PO411016   9.456   5.537   5.670 -0.0852 -0.2702  0.3213
  717POPI   GL111017   9.630   5.471   6.108  0.1558  0.1245  0.0363
  717POPI   GL211018   9.880   5.331   5.983 -0.0705 -0.0345 -0.0903
  717POPI   C1A11019   9.689   5.550   6.583 -0.3525 -0.1148 -0.0097
  717POPI   D2A11020   9.690   5.342   7.013  0.0637 -0.0760 -0.3928
  717POPI   C3A11021   9.883   5.386   7.296  0.0897 -0.0020 -0.2527
  717POPI   C4A11022  10.201   5.569   7.500 -0.1199  0.1041  0.2157
  717POPI   C1B11023   9.886   5.082   6.437 -0.2019 -0.0639  0.2381
  717POPI   C2B11024   9.843   4.908   6.791  0.0511 -0.1815  0.0574
  717POPI   C3B11025   9.860   4.898   7.172  0.0163 -0.2697 -0.0657
  717POPI   C4B11026   9.888   4.764   7.483 -0.0922 -0.2115 -0.0675
  718POPI    C111027  16.188  17.606   5.435  0.0039  0.1553  0.0683
  718POPI    C211028  15.882  17.742   5.218 -0.1561 -0.0574  0.1561
  718POPI    C311029  16.092  17.427   5.090 -0.1096 -0.0450  0.2015
  718POPI   PO411030  16.060  17.703   5.652  0.0204  0.2286  0.0340
  718POPI   GL111031  15.867  17.731   6.020  0.0191 -0.0063 -0.2407
  718POPI   GL211032  16.037  18.086   5.987 -0.4264  0.3937 -0.0660
  718POPI   C1A11033  15.968  17.694   6.400  0.0222  0.2508  0.0317
  718POPI   D2A11034  15.798  17.737   6.795 -0.1985  0.2830 -0.3657
  718POPI   C3A11035  16.134  17.874   7.090 -0.0990  0.1166  0.0962
  718POPI   C4A11036  16.182  18.230   7.313  0.1421 -0.3098 -0.0746
  718POPI   C1B11037  16.236  18.099   6.415  0.2573 -0.2950  0.0382
  718POPI   C2B11038  16.416  18.183   6.789  0.2423  0.1938  0.0767
  718POPI   C3B11039  16.640  18.105   7.113  0.4303 -0.0260  0.0098
  718POPI   C4B11040  17.017  18.199   7.219 -0.2332 -0.0816  0.2291
  719POPI    C111041  18.853   3.511   5.525  0.2619  0.0898 -0.1024
  719POPI    C211042  19.114   3.792   5.410 -0.1001  0.4031 -0.1818
  719POPI    C311043  18.958   3.541   5.140  0.1081  0.2202 -0.1354
  719POPI   PO411044  18.695   3.676   5.713  0.1411 -0.1099  0.0235
  719POPI   GL111045  18.576   4.023   5.901  0.0929  0.0282 -0.0227
  719POPI   GL211046  18.348   4.097   6.102  0.0516  0.1013  0.0093
  719POPI   C1A11047  18.847   3.851   6.305 -0.1534 -0.2359  0.1928
  719POPI   D2A11048  18.920   3.895   6.680 -0.1945 -0.2510 -0.1068
  719POPI   C3A11049  19.037   4.048   7.104  0.1022 -0.0070  0.2733
  719POPI   C4A11050  18.872   4.403   7.394  0.1412 -0.2236 -0.0835
  719POPI   C1B11051  18.077   4.075   6.456  0.0009  0.0816 -0.2853
  719POPI   C2B11052  17.999   3.889   6.842  0.0820 -0.2389  0.0430
  719POPI   C3B11053  18.043   3.752   7.233  0.1848 -0.2666  0.2332
  719POPI   C4B11054  18.007   3.735   7.641  0.0525 -0.2604  0.0738
  720POPI    C111055   6.925  17.530   5.205 -0.1010 -0.0209  0.1110
  720POPI    C211056   7.312  17.466   5.128 -0.1504 -0.1288 -0.0529
  720POPI    C311057   7.062  17.156   5.163 -0.1884 -0.0679  0.2362
  720POPI   PO411058   6.863  17.603   5.498 -0.0584  0.1294 -0.0145
  720POPI   GL111059   6.704  17.766   5.913 -0.0017 -0.1400  0.0162
  720POPI   GL211060   6.593  18.103   6.071 -0.5331  0.1606 -0.0258
  720POPI   C1A11061   6.211  17.745   6.077 -0.2867  0.1936 -0.0919
  720POPI   D2A11062   5.986  18.008   6.273 -0.0711  0.1109  0.4019
  720POPI   C3A11063   6.159  17.865   6.638 -0.2122  0.0263 -0.0455
  720POPI   C4A11064   6.208  17.521   6.963 -0.2689 -0.4812 -0.1168
  720POPI   C1B11065   6.577  17.767   6.356  0.1121 -0.3524  0.0465
  720POPI   C2B11066   6.664  17.555   6.744 -0.1797 -0.1818  0.1306
  720POPI   C3B11067   6.689  17.489   7.205 -0.2782  0.3091 -0.2133
  720POPI   C4B11068   6.588  17.772   7.627  0.0846  0.1446 -0.1026
  721POPS   CNO11069   4.687   4.342   5.087 -0.3840 -0.0334 -0.0421
  721POPS   PO411070   4.895   4.052   5.308 -0.1293 -0.1103 -0.1174
  721POPS   GL111071   4.936   3.982   5.810  0.3657  0.0055  0.2173
  721POPS   GL211072   4.714   3.948   6.018 -0.0666  0.3657  0.3883
  721POPS   C1A11073   5.148   4.146   6.191  0.1250  0.1868 -0.3611
  721POPS   D2A11074   5.145   4.467   6.492  0.3793  0.1026  0.0441
  721POPS   C3A11075   5.240   4.180   6.857 -0.4802 -0.1854  0.1769
  721POPS   C4A11076   5.040   4.073   7.177  0.1045 -0.3549  0.0147
  721POPS   C1B11077   4.664   4.200   6.421 -0.0048 -0.0370 -0.0561
  721POPS   C2B11078   4.769   4.369   6.828 -0.0352 -0.0766 -0.0746
  721POPS   C3B11079   4.740   4.579   7.192 -0.1705  0.1190  0.0469
  721POPS   C4B11080   4.340   4.865   7.332  0.0874 -0.1553  0.0136
  722POPS   CNO11081  17.109   9.250   5.191  0.2192 -0.1493 -0.1928
  722POPS   PO411082  17.310   8.923   5.525  0.1778  0.1432 -0.4391
  722POPS   GL111083  17.619   8.689   5.865  0.3161  0.2306  0.0451
  722POPS   GL211084  17.854   8.540   5.853  0.2051  0.2554 -0.1324
  722POPS   C1A11085  17.603   8.641   6.321 -0.1766  0.3202 -0.1718
  722POPS   D2A11086  17.591   8.421   6.666  0.0938  0.0490 -0.0010
  722POPS   C3A11087  17.546   8.398   7.051  0.1641  0.1845 -0.0220
  722POPS   C4A11088  17.411   7.983   7.307 -0.2608 -0.0476 -0.2979
  722POPS   C1B11089  17.917   8.979   6.117  0.3788 -0.1062  0.1364
  722POPS   C2B11090  18.184   9.131   6.543  0.2519 -0.0075  0.1670
  722POPS   C3B11091  18.152   9.080   6.973 -0.1574 -0.2274 -0.1947
  722POPS   C4B11092  18.293   8.891   7.235 -0.0433 -0.1510 -0.0831
  723POPS   CNO11093   9.945   4.499   5.246 -0.1999 -0.0337  0.1422
  723POPS   PO411094   9.674   4.594   5.607 -0.0763  0.0262 -0.4322
  723POPS   GL111095   9.708   4.827   5.962  0.0231  0.0556  0.1554
  723POPS   GL211096   9.436   4.972   6.248 -0.1476 -0.2368  0.1694
  723POPS   C1A11097   9.773   4.600   6.307  0.1573 -0.1242  0.1418
  723POPS   D2A11098   9.993   4.373   6.687  0.0283  0.0098  0.0269
  723POPS   C3A11099  10.448   4.260   6.719  0.0192 -0.3132 -0.0423
  723POPS   C4A11100  10.769   4.428   6.826 -0.1284  0.0401  0.2289
  723POPS   C1B11101   9.375   5.025   6.549 -0.1753  0.4682  0.0373
  723POPS   C2B11102   9.360   4.945   6.960  0.0825 -0.1708  0.0479
  723POPS   C3B11103   9.310   5.278   7.291  0.0566  0.3493  0.0003
  723POPS   C4B11104   8.972   5.543   7.525  0.0854 -0.0726 -0.1793
  724POPS   CNO11105  16.228   1.980   5.201  0.2112 -0.2073 -0.1088
  724POPS   PO411106  16.250   1.807   5.516 -0.1335  0.3025  0.0118
  724POPS   GL111107  16.368   1.925   5.862  0.0505 -0.1138 -0.0252
  724POPS   GL211108  16.703   2.111   6.094  0.1598  0.0864  0.0346
  724POPS   C1A11109  16.231   1.894   6.266  0.1840  0.1541  0.0072
  724POPS   D2A11110  16.450   1.942   6.656 -0.0566  0.1762 -0.1888
  724POPS   C3A11111  16.464   1.898   7.107  0.2204  0.0495 -0.3180
  724POPS   C4A11112  16.219   1.742   7.380 -0.0209  0.3010 -0.0214
  724POPS   C1B11113  16.878   1.965   6.368 -0.2236 -0.0377 -0.0436
  724POPS   C2B11114  16.905   1.862   6.780  0.0057 -0.3244 -0.2005
  724POPS   C3B11115  16.975   1.782   7.212 -0.0078 -0.2486 -0.0276
  724POPS   C4B11116  17.043   1.481   7.569  0.2150  0.0359 -0.1588
  725POPS   CNO11117  10.349   3.311   5.643  0.2283 -0.0993 -0.0434
  725POPS   PO411118  10.662   3.120   5.781 -0.0284 -0.1103 -0.2812
  725POPS   GL111119  10.757   3.275   6.257  0.3986 -0.0548 -0.3286
  725POPS   GL211120  10.814   3.542   6.421 -0.4063  0.1404 -0.3597
  725POPS   C1A11121  10.464   3.226   6.669 -0.4539 -0.0026 -0.0006
  725POPS   D2A11122  10.497   3.064   7.118  0.2876 -0.2741  0.1719
  725POPS   C3A11123  10.689   3.149   7.548 -0.0350 -0.0138  0.1192
  725POPS   C4A11124  10.530   3.124   7.954  0.1812 -0.2309  0.2763
  725POPS   C1B11125  10.920   3.372   6.783 -0.1839 -0.2101  0.0212
  725POPS   C2B11126  10.929   3.389   7.174  0.1310  0.2284  0.1844
  725POPS   C3B11127  11.208   3.331   7.522 -0.1521  0.1898  0.0943
  725POPS   C4B11128  11.223   3.060   7.821 -0.0366  0.0004 -0.0303
  726POPS   CNO11129  14.010  10.292   6.124  0.3393  0.0346 -0.0712
  726POPS   PO411130  13.930  10.011   5.850  0.2626 -0.0160 -0.1159
  726POPS   GL111131  14.079   9.730   6.128  0.1787 -0.1014  0.0513
  726POPS   GL211132  13.916   9.668   6.400 -0.1253  0.2691 -0.1043
  726POPS   C1A11133  14.260   9.923   6.559  0.0440  0.2152 -0.0569
  726POPS   D2A11134  14.364   9.644   6.874 -0.3770 -0.1302 -0.0500
  726POPS   C3A11135  14.513   9.925   7.181  0.0953 -0.0334  0.2088
  726POPS   C4A11136  14.542  10.051   7.601 -0.1202 -0.0239  0.0140
  726POPS   C1B11137  13.897   9.601   6.824 -0.1596  0.0288  0.1358
  726POPS   C2B11138  13.528   9.758   7.145  0.0060 -0.0585  0.1617
  726POPS   C3B11139  13.140   9.980   7.439 -0.1154 -0.0473 -0.0070
  726POPS   C4B11140  12.930  10.080   7.866  0.0946 -0.0271  0.0732
  727POPS   CNO11141  13.556  17.895   5.300 -0.0781  0.1758 -0.0706
  727POPS   PO411142  13.990  18.065   5.353  0.0275 -0.0424 -0.2836
  727POPS   GL111143  14.038  18.256   5.779 -0.0344 -0.0159 -0.0361
  727POPS   GL211144  14.257  18.064   5.920  0.2253 -0.1828 -0.1044
  727POPS   C1A11145  14.116  18.442   6.226  0.0720 -0.0884  0.2316
  727POPS   D2A11146  13.926  18.376   6.571  0.1232  0.0752  0.2260
  727POPS   C3A11147  13.562  18.050   6.581 -0.0144 -0.0459 -0.1147
  727POPS   C4A11148  13.116  17.974   6.583  0.0531 -0.1452 -0.1842
  727POPS   C1B11149  14.400  18.033   6.295  0.1922  0.0088  0.5280
  727POPS   C2B11150  14.717  17.915   6.622  0.0119  0.0224 -0.3926
  727POPS   C3B11151  14.869  17.609   6.972  0.2170 -0.1042 -0.0749
  727POPS   C4B11152  14.765  17.446   7.493 -0.1735  0.0748  0.0831
  728POPS   CNO11153  17.261   1.909   5.327  0.2250  0.3257 -0.0024
  728POPS   PO411154  16.902   1.965   5.549 -0.0536  0.1042  0.0153
  728POPS   GL111155  17.079   1.805   5.877  0.2379 -0.1695 -0.1246
  728POPS   GL211156  17.293   1.682   5.872 -0.1953 -0.2255  0.1508
  728POPS   C1A11157  17.289   1.698   6.341  0.0136  0.1899  0.2662
  728POPS   D2A11158  17.314   1.395   6.751  0.1368  0.0033 -0.1025
  728POPS   C3A11159  16.970   1.238   7.046  0.0205  0.4486 -0.1057
  728POPS   C4A11160  16.812   0.985   7.371 -0.3277 -0.1475  0.0550
  728POPS   C1B11161  17.062   1.284   5.911 -0.1735  0.2759  0.0943
  728POPS   C2B11162  16.884   0.882   5.987 -0.0241  0.0855 -0.3122
  728POPS   C3B11163  16.702   0.691   6.398 -0.3411 -0.0738 -0.0981
  728POPS   C4B11164  16.682   0.830   6.853 -0.3836 -0.1358 -0.2308
  729POPS   CNO11165   8.774   5.207   5.719  0.0566  0.0408  0.0011
  729POPS   PO411166   8.827   4.855   5.888 -0.0231  0.0951  0.1820
  729POPS   GL111167   8.906   5.089   6.205  0.2143  0.0524  0.0084
  729POPS   GL211168   9.105   5.407   6.077  0.0020  0.0050 -0.3224
  729POPS   C1A11169   8.824   5.167   6.576 -0.0713 -0.1912 -0.0678
  729POPS   D2A11170   8.823   5.348   7.078  0.3573  0.0406  0.1837
  729POPS   C3A11171   8.525   5.203   7.450 -0.0119 -0.1837  0.3149
  729POPS   C4A11172   8.424   5.315   7.799 -0.0982  0.1450 -0.2589
  729POPS   C1B11173   9.187   5.514   6.432 -0.1433  0.3648 -0.2106
  729POPS   C2B11174   9.208   5.464   6.822  0.2043  0.4373  0.0393
  729POPS   C3B11175   9.117   5.756   7.128  0.1222 -0.0388 -0.1742
  729POPS   C4B11176   9.067   6.079   7.485 -0.1482 -0.0384  0.1435
  730POPS   CNO11177   5.786   5.711   5.770  0.1765  0.1635 -0.0108
  730POPS   PO411178   5.483   5.442   5.627  0.0793 -0.3677  0.1007
  730POPS   GL111179   5.456   5.528   6.074  0.6153 -0.0824  0.3542
  730POPS   GL211180   5.310   5.385   6.294  0.0888  0.1053 -0.3046
  730POPS   C1A11181   5.576   5.757   6.445 -0.0429 -0.1606 -0.2057
  730POPS   D2A11182   5.760   5.802   6.920 -0.0960 -0.1033  0.0386
  730POPS   C3A11183   5.380   5.840   7.057  0.0922 -0.0858  0.1806
  730POPS   C4A11184   5.081   6.043   7.210  0.1122  0.0269 -0.0421
  730POPS   C1B11185   5.336   5.423   6.714 -0.1121  0.1073  0.1821
  730POPS   C2B11186   5.380   5.171   7.075  0.3335 -0.4763  0.2461
  730POPS   C3B11187   5.285   4.948   7.522 -0.3139  0.0537 -0.2620
  730POPS   C4B11188   4.975   4.887   7.896  0.3467  0.2424  0.1244
  731POPS   CNO11189   0.668   9.157   5.551 -0.1660  0.0023  0.0225
  731POPS   PO411190   0.412   9.445   5.556  0.1282  0.1248  0.1569
  731POPS   GL111191   0.619   9.263   6.023  0.0491  0.0354  0.1906
  731POPS   GL211192   0.621   8.958   6.020  0.2604  0.4524 -0.3634
  731POPS   C1A11193   0.603   9.560   6.397 -0.0337 -0.0869  0.2036
  731POPS   D2A11194   0.698   9.515   6.804  0.2237 -0.0437  0.0222
  731POPS   C3A11195   0.613   9.830   7.095 -0.0737 -0.0766  0.0118
  731POPS   C4A11196   0.960  10.117   7.191 -0.0001  0.1025 -0.2664
  731POPS   C1B11197   0.587   8.987   6.466  0.2582  0.0599  0.0004
  731POPS   C2B11198   0.457   8.976   6.866  0.1221  0.2875  0.1884
  731POPS   C3B11199   0.124   8.938   6.962 -0.0786  0.1318  0.0306
  731POPS   C4B11200  -0.216   8.919   6.731 -0.1274  0.1628  0.1614
  732POPS   CNO11201   5.643   1.537   5.120  0.1006 -0.0126  0.1145
  732POPS   PO411202   5.502   1.486   5.562 -0.1005  0.4459  0.1325
  732POPS   GL111203   5.655   1.502   5.880  0.0709 -0.1190 -0.0817
  732POPS   GL211204   5.497   1.797   5.999  0.1248  0.1442  0.2307
  732POPS   C1A11205   5.864   1.220   6.152 -0.0103 -0.1857 -0.1730
  732POPS   D2A11206   5.952   1.248   6.605 -0.0224 -0.2199  0.4716
  732POPS   C3A11207   6.098   1.458   6.939 -0.2949  0.0523  0.3480
  732POPS   C4A11208   6.200   1.440   7.364 -0.1974 -0.4708 -0.1009
  732POPS   C1B11209   5.849   1.743   6.339  0.1424 -0.1716  0.0746
  732POPS   C2B11210   5.806   1.844   6.803  0.0695  0.0271 -0.2290
  732POPS   C3B11211   5.789   1.683   7.307 -0.3124  0.1908 -0.0213
  732POPS   C4B11212   5.536   1.857   7.570 -0.2156 -0.3283 -0.1119
  733POPS   CNO11213   9.416  14.917   5.777  0.2490 -0.1222 -0.1501
  733POPS   PO411214   9.075  15.209   5.913 -0.2045  0.0587  0.4834
  733POPS   GL111215   9.061  15.127   6.334 -0.2767  0.0924  0.0506
  733POPS   GL211216   8.922  15.362   6.554 -0.4042  0.2110  0.0519
  733POPS   C1A11217   9.199  15.021   6.727 -0.0925  0.2261 -0.0511
  733POPS   D2A11218   9.201  14.889   7.185 -0.5422  0.1272 -0.0821
  733POPS   C3A11219   8.846  14.962   7.453 -0.0220 -0.1363 -0.0209
  733POPS   C4A11220   8.447  14.929   7.749  0.2532  0.0781  0.0553
  733POPS   C1B11221   8.538  15.382   6.704 -0.3619  0.1093 -0.2707
  733POPS   C2B11222   8.343  15.506   7.039  0.1948  0.4273 -0.1492
  733POPS   C3B11223   8.341  15.858   7.390  0.1286  0.2497  0.0771
  733POPS   C4B11224   8.333  15.923   7.735 -0.0414 -0.1558  0.0949
  734POPS   CNO11225   7.143  12.076   5.288 -0.0450 -0.3256  0.0746
  734POPS   PO411226   6.972  12.424   5.532  0.0195  0.4306  0.1841
  734POPS   GL111227   6.915  12.216   5.855  0.0220  0.2143  0.1119
  734POPS   GL211228   6.624  12.243   5.957 -0.0133  0.1105  0.1793
  734POPS   C1A11229   7.064  12.305   6.248  0.3339 -0.0086 -0.0287
  734POPS   D2A11230   7.264  12.420   6.545  0.1842 -0.0589  0.2500
  734POPS   C3A11231   7.160  12.403   6.853  0.0806  0.1078 -0.0060
  734POPS   C4A11232   6.900  12.449   7.143  0.0598 -0.0583  0.0091
  734POPS   C1B11233   6.810  11.851   6.158  0.1589 -0.1935  0.0237
  734POPS   C2B11234   6.724  11.814   6.640  0.3427 -0.1517  0.0192
  734POPS   C3B11235   6.727  11.346   6.818  0.0034  0.0988 -0.2459
  734POPS   C4B11236   6.958  11.022   7.040 -0.1089  0.2122  0.2206
  735POPS   CNO11237  17.249   5.997   5.046  0.2275 -0.0941 -0.2074
  735POPS   PO411238  17.486   5.894   5.385 -0.1646  0.3364 -0.3248
  735POPS   GL111239  17.332   5.799   5.751 -0.1849  0.1588 -0.0136
  735POPS   GL211240  17.427   5.480   5.853  0.1737  0.0991  0.1743
  735POPS   C1A11241  17.346   6.088   6.110 -0.2482  0.0832 -0.2779
  735POPS   D2A11242  17.606   6.306   6.230  0.2906 -0.0395 -0.0432
  735POPS   C3A11243  17.719   6.182   6.663 -0.0058  0.0281  0.0647
  735POPS   C4A11244  18.067   6.182   6.932  0.2188  0.0553  0.0734
  735POPS   C1B11245  17.265   5.373   6.259  0.1657 -0.1606  0.0207
  735POPS   C2B11246  17.093   5.429   6.676  0.0696 -0.0192 -0.0680
  735POPS   C3B11247  16.750   5.443   6.970 -0.4802 -0.2673  0.1082
  735POPS   C4B11248  16.426   5.349   7.400  0.0687  0.0312  0.0677
  736POPS   CNO11249   1.928  11.599   5.637 -0.0607  0.1115  0.0533
  736POPS   PO411250   2.336  11.805   5.457  0.1215 -0.0968  0.0838
  736POPS   GL111251   2.299  11.898   5.914  0.3420 -0.1859 -0.1391
  736POPS   GL211252   2.330  12.200   5.899 -0.1681  0.0782  0.0041
  736POPS   C1A11253   2.632  11.836   6.206  0.1164 -0.1364 -0.0853
  736POPS   D2A11254   3.016  12.012   6.148 -0.3715 -0.2533  0.2499
  736POPS   C3A11255   3.165  12.290   6.510  0.1081  0.2177 -0.1004
  736POPS   C4A11256   2.909  12.710   6.669 -0.2242  0.1655 -0.1743
  736POPS   C1B11257   2.212  12.506   6.168 -0.1631 -0.0196 -0.1238
  736POPS   C2B11258   2.247  12.628   6.615  0.2740 -0.0894 -0.0381
  736POPS   C3B11259   2.490  12.598   6.869 -0.1936  0.1349  0.2684
  736POPS   C4B11260   2.617  12.723   7.274  0.0664 -0.5879 -0.2206
  737POPS   CNO11261   7.940  12.649   5.363  0.1127 -0.1812 -0.3888
  737POPS   PO411262   8.201  12.337   5.676 -0.0006  0.1168 -0.0917
  737POPS   GL111263   8.221  11.978   5.952  0.3161  0.0740  0.0649
  737POPS   GL211264   7.864  11.949   6.040  0.1308 -0.3719 -0.3150
  737POPS   C1A11265   8.165  11.800   6.437 -0.0885  0.0803  0.1062
  737POPS   D2A11266   7.766  11.760   6.781  0.3769 -0.0926 -0.1199
  737POPS   C3A11267   7.566  11.883   7.128 -0.2882 -0.4655 -0.2036
  737POPS   C4A11268   7.294  12.223   7.342 -0.0935 -0.3837 -0.0105
  737POPS   C1B11269   7.797  11.554   6.255  0.1508 -0.1018  0.0002
  737POPS   C2B11270   7.961  11.348   6.666 -0.0961 -0.3316  0.3344
  737POPS   C3B11271   7.945  11.288   7.157 -0.1726  0.0717 -0.2690
  737POPS   C4B11272   8.184  11.299   7.537 -0.1010 -0.0186 -0.2446
  738POPS   CNO11273  12.496  16.605   5.370 -0.0244  0.2366  0.1510
  738POPS   PO411274  12.587  16.925   5.631  0.1468  0.0810 -0.1599
  738POPS   GL111275  12.935  16.957   5.948  0.2638  0.0228 -0.4495
  738POPS   GL211276  13.321  16.938   5.973 -0.0216 -0.0099  0.0190
  738POPS   C1A11277  12.898  16.897   6.366  0.2945  0.6045 -0.1258
  738POPS   D2A11278  12.951  16.830   6.832 -0.1393 -0.1905  0.1271
  738POPS   C3A11279  12.960  16.545   7.033 -0.2247  0.2240 -0.0808
  738POPS   C4A11280  13.116  16.163   6.973 -0.2227  0.2724  0.0771
  738POPS   C1B11281  13.511  16.847   6.302  0.2343 -0.2270 -0.3465
  738POPS   C2B11282  13.346  17.028   6.621 -0.4234  0.2458  0.1687
  738POPS   C3B11283  13.438  17.034   7.041  0.2299 -0.2066  0.0439
  738POPS   C4B11284  13.788  17.071   7.247 -0.3289  0.0390  0.0288
  739POPS   CNO11285   2.464   2.942   5.956  0.1721  0.3540 -0.0992
  739POPS   PO411286   2.780   2.890   5.592  0.1012 -0.3277 -0.1472
  739POPS   GL111287   2.902   3.158   5.881 -0.0630 -0.1630 -0.0387
  739POPS   GL211288   2.620   3.423   6.098  0.2292  0.0612  0.3012
  739POPS   C1A11289   2.965   3.116   6.325  0.0583  0.0689 -0.0459
  739POPS   D2A11290   2.990   3.062   6.800  0.0075 -0.2572  0.1832
  739POPS   C3A11291   2.744   2.744   6.944  0.0280 -0.0397 -0.1268
  739POPS   C4A11292   2.576   2.375   6.973  0.1022 -0.0829 -0.1595
  739POPS   C1B11293   2.572   3.316   6.605  0.1082  0.3684 -0.1940
  739POPS   C2B11294   2.632   3.287   7.066  0.0740 -0.0063  0.1549
  739POPS   C3B11295   2.634   2.977   7.438  0.0092  0.0721 -0.3028
  739POPS   C4B11296   2.613   2.998   7.879 -0.0045 -0.1351 -0.0374
  740POPS   CNO11297   1.963  16.718   5.967  0.1269 -0.0369 -0.0353
  740POPS   PO411298   1.888  16.370   5.628  0.0552  0.2440  0.0417
  740POPS   GL111299   1.946  16.033   5.897 -0.1106 -0.2147  0.2407
  740POPS   GL211300   1.737  15.932   6.098  0.0658 -0.1165  0.1990
  740POPS   C1A11301   2.155  15.707   6.186  0.0452 -0.0031  0.0365
  740POPS   D2A11302   2.118  15.304   6.428 -0.1555  0.3402  0.3722
  740POPS   C3A11303   2.299  15.211   6.837 -0.2608  0.1370 -0.1384
  740POPS   C4A11304   2.611  15.128   7.209 -0.0316  0.0866  0.1598
  740POPS   C1B11305   1.662  15.637   6.479  0.0272  0.1760 -0.0764
  740POPS   C2B11306   1.602  15.636   7.011  0.3507 -0.0676 -0.1862
  740POPS   C3B11307   1.402  15.643   7.300 -0.1308  0.1135 -0.4422
  740POPS   C4B11308   1.105  15.892   7.535 -0.0608 -0.2303 -0.1685
  741POPS   CNO11309  17.343  17.954   5.573 -0.0863  0.0083 -0.1112
  741POPS   PO411310  17.368  17.549   5.652  0.0265 -0.0920  0.0212
  741POPS   GL111311  17.539  17.811   6.038  0.0263 -0.0039 -0.4458
  741POPS   GL211312  17.790  17.675   6.104 -0.1432 -0.2124 -0.1082
  741POPS   C1A11313  17.380  17.925   6.472  0.0440 -0.0890 -0.1519
  741POPS   D2A11314  17.512  18.034   6.953 -0.0458  0.2549  0.1279
  741POPS   C3A11315  17.496  18.387   7.232  0.1962  0.1417 -0.0390
  741POPS   C4A11316  17.701  18.521   7.746 -0.0449 -0.0470  0.4335
  741POPS   C1B11317  17.898  17.850   6.502  0.1207  0.0391 -0.0069
  741POPS   C2B11318  18.359  17.790   6.707  0.1545 -0.1895 -0.3979
  741POPS   C3B11319  18.735  17.692   6.920  0.1849 -0.0356 -0.3416
  741POPS   C4B11320  18.938  17.926   7.288 -0.0696 -0.2972 -0.2024
  742POPS   CNO11321  17.750  15.224   5.336 -0.1501 -0.2750  0.1091
  742POPS   PO411322  17.923  15.672   5.569 -0.1890 -0.3059  0.2072
  742POPS   GL111323  17.904  15.297   5.830 -0.2577  0.1594 -0.3286
  742POPS   GL211324  17.643  15.072   5.798  0.1152 -0.0805  0.3723
  742POPS   C1A11325  17.888  15.172   6.235  0.0388  0.1008 -0.2032
  742POPS   D2A11326  17.960  14.773   6.419 -0.0194 -0.3402 -0.1730
  742POPS   C3A11327  18.252  14.849   6.723 -0.0081 -0.2003  0.1211
  742POPS   C4A11328  18.419  14.790   7.091 -0.0376 -0.1921  0.0797
  742POPS   C1B11329  17.471  14.882   6.248  0.0957 -0.0561  0.1869
  742POPS   C2B11330  17.449  14.702   6.740  0.1483 -0.0964 -0.0315
  742POPS   C3B11331  17.210  14.564   7.090 -0.2527 -0.0744  0.3193
  742POPS   C4B11332  16.806  14.560   6.978 -0.3814 -0.2090 -0.3454
  743POPS   CNO11333  18.549  17.020   5.527  0.2522 -0.1133  0.0653
  743POPS   PO411334  18.931  17.176   5.722 -0.3225  0.1969  0.0013
  743POPS   GL111335  18.907  17.216   6.175 -0.0629  0.1811  0.1603
  743POPS   GL211336  18.799  16.945   6.407 -0.2400 -0.1790  0.2433
  743POPS   C1A11337  18.980  17.430   6.581 -0.1528 -0.2378 -0.4477
  743POPS   D2A11338  19.201  17.543   6.972  0.1455 -0.0851 -0.1399
  743POPS   C3A11339  19.403  17.325   7.259 -0.3047  0.2781 -0.0580
  743POPS   C4A11340  19.581  17.385   7.560  0.1799  0.4065  0.2754
  743POPS   C1B11341  19.185  16.979   6.644  0.1267  0.0364 -0.0990
  743POPS   C2B11342  19.355  16.733   7.032  0.4198  0.0231  0.0164
  743POPS   C3B11343  19.576  16.831   7.493 -0.0712  0.0864 -0.4477
  743POPS   C4B11344  19.623  16.768   7.952 -0.0338 -0.0243  0.1144
  744POPS   CNO11345   8.290  15.626   5.695 -0.1948 -0.0686 -0.1292
  744POPS   PO411346   8.713  15.565   5.853  0.0074 -0.0609 -0.1568
  744POPS   GL111347   8.673  15.738   6.349  0.1360 -0.1592 -0.0134
  744POPS   GL211348   8.785  15.975   6.403 -0.0159  0.0042  0.2115
  744POPS   C1A11349   8.377  15.887   6.736  0.2169  0.1669 -0.1591
  744POPS   D2A11350   8.054  15.925   7.040  0.1460  0.1568  0.1480
  744POPS   C3A11351   7.816  15.647   7.272 -0.2205  0.2687  0.0017
  744POPS   C4A11352   7.584  15.501   7.620 -0.1631 -0.3074  0.1309
  744POPS   C1B11353   8.554  16.329   6.499 -0.1705 -0.1622  0.1039
  744POPS   C2B11354   8.393  16.324   6.959  0.0649  0.3118 -0.3017
  744POPS   C3B11355   8.211  16.413   7.227  0.0431  0.1296 -0.2536
  744POPS   C4B11356   8.045  16.360   7.585 -0.2473  0.0660 -0.2526
  745POPS   CNO11357  10.447  12.520   5.079  0.1671 -0.0932  0.0201
  745POPS   PO411358  10.438  12.365   5.464  0.0430  0.2633  0.1620
  745POPS   GL111359  10.391  12.576   5.805 -0.1140 -0.1671 -0.0264
  745POPS   GL211360   9.954  12.593   5.761  0.1563 -0.1999  0.1329
  745POPS   C1A11361  10.149  12.589   6.197 -0.1901  0.2632 -0.2561
  745POPS   D2A11362  10.026  12.781   6.586 -0.0749 -0.1508  0.0434
  745POPS   C3A11363  10.437  12.904   6.784 -0.2796 -0.0941  0.0611
  745POPS   C4A11364  10.754  12.956   7.123 -0.1208  0.1415  0.1544
  745POPS   C1B11365   9.819  12.929   6.051 -0.1610 -0.0276  0.0976
  745POPS   C2B11366   9.511  13.005   6.359  0.1658 -0.3503  0.0269
  745POPS   C3B11367   9.186  13.156   6.535 -0.0127 -0.1153  0.0210
  745POPS   C4B11368   8.918  13.304   6.896 -0.1257  0.0011  0.1818
  746POPS   CNO11369  16.609  18.256   5.306 -0.1789 -0.2372  0.1623
  746POPS   PO411370  16.834  18.276   5.716 -0.2149 -0.0555 -0.2944
  746POPS   GL111371  16.635  18.303   6.131 -0.1741  0.0036 -0.0471
  746POPS   GL211372  16.760  18.089   6.251  0.1414 -0.1318 -0.0141
  746POPS   C1A11373  16.671  18.555   6.397 -0.3014 -0.0105  0.1474
  746POPS   D2A11374  16.670  18.715   6.765 -0.0293  0.1389  0.0331
  746POPS   C3A11375  16.415  18.624   7.092 -0.0216  0.1868 -0.2953
  746POPS   C4A11376  16.277  18.765   7.420 -0.1301  0.2094  0.2764
  746POPS   C1B11377  16.877  18.119   6.617 -0.2061  0.2914 -0.1923
  746POPS   C2B11378  17.067  17.856   6.910 -0.0218  0.1652  0.0968
  746POPS   C3B11379  17.346  17.706   7.253 -0.5871 -0.1557 -0.3942
  746POPS   C4B11380  17.592  17.905   7.541  0.0758 -0.1042 -0.0151
  747POPS   CNO11381   5.102  13.777   5.272  0.1489  0.1524  0.0790
  747POPS   PO411382   4.982  13.535   5.632  0.2005 -0.1048  0.1750
  747POPS   GL111383   5.077  13.517   6.001  0.1681 -0.1774 -0.2412
  747POPS   GL211384   5.110  13.195   5.993 -0.3308  0.0188  0.0725
  747POPS   C1A11385   5.119  13.602   6.418 -0.0944 -0.1506  0.2716
  747POPS   D2A11386   5.254  13.744   6.799  0.2004  0.0553  0.3178
  747POPS   C3A11387   5.436  13.532   7.202  0.1739  0.2857 -0.1346
  747POPS   C4A11388   5.528  13.680   7.613 -0.3749 -0.0686 -0.3131
  747POPS   C1B11389   5.350  13.176   6.364 -0.1073  0.0166  0.0272
  747POPS   C2B11390   5.522  13.211   6.683 -0.2497  0.0158 -0.2151
  747POPS   C3B11391   5.342  13.039   7.031  0.0272 -0.0478 -0.0641
  747POPS   C4B11392   5.096  13.023   7.391  0.1733  0.1509 -0.0123
  748POPS   CNO11393   4.534  13.946   5.580  0.1622 -0.2534 -0.1061
  748POPS   PO411394   4.099  13.764   5.720  0.1228  0.2724 -0.0968
  748POPS   GL111395   4.497  13.639   6.018  0.0889 -0.2349  0.2835
  748POPS   GL211396   4.600  13.393   6.047  0.0366 -0.0617  0.0160
  748POPS   C1A11397   4.617  13.875   6.290 -0.1838  0.2067 -0.0921
  748POPS   D2A11398   4.725  13.796   6.650  0.1529  0.0465  0.4198
  748POPS   C3A11399   4.438  13.579   6.909  0.3168 -0.2472 -0.1018
  748POPS   C4A11400   4.264  13.290   7.124 -0.2095 -0.1923 -0.0640
  748POPS   C1B11401   4.719  13.340   6.443 -0.0863  0.2043 -0.1529
  748POPS   C2B11402   4.906  13.361   6.828  0.2189 -0.1920 -0.2002
  748POPS   C3B11403   4.776  13.469   7.327 -0.2627 -0.0749  0.1506
  748POPS   C4B11404   4.498  13.621   7.753 -0.1810  0.2127  0.0370
  749POPS   CNO11405   8.319   1.965   5.767 -0.1028  0.0446 -0.1938
  749POPS   PO411406   7.977   1.664   5.546  0.4698 -0.2204 -0.0565
  749POPS   GL111407   7.948   1.723   5.931 -0.0114  0.0965  0.3181
  749POPS   GL211408   8.183   1.528   6.085  0.2778 -0.2812  0.2169
  749POPS   C1A11409   8.057   1.918   6.372  0.1841 -0.0212 -0.1097
  749POPS   D2A11410   7.910   1.856   6.776 -0.4737 -0.3639  0.0353
  749POPS   C3A11411   7.636   1.595   7.004  0.2350  0.2679  0.1238
  749POPS   C4A11412   7.622   1.481   7.485  0.0979 -0.0017  0.0803
  749POPS   C1B11413   8.602   1.759   6.197 -0.1599 -0.0246 -0.2315
  749POPS   C2B11414   8.961   1.990   6.515  0.0087  0.0478 -0.1210
  749POPS   C3B11415   9.102   2.161   6.880 -0.0720 -0.0643  0.3454
  749POPS   C4B11416   9.171   2.133   7.300  0.0456  0.2219 -0.1035
  750POPS   CNO11417  17.427  16.972   5.559  0.0817  0.1219 -0.0837
  750POPS   PO411418  17.490  16.466   5.528  0.0345 -0.0660  0.1599
  750POPS   GL111419  17.342  16.493   5.920  0.2178 -0.0062  0.0758
  750POPS   GL211420  17.195  16.812   5.992 -0.2266 -0.0540 -0.2636
  750POPS   C1A11421  17.555  16.516   6.333 -0.2922 -0.2292 -0.3086
  750POPS   D2A11422  17.563  16.556   6.753  0.0139 -0.1507  0.3894
  750POPS   C3A11423  17.256  16.652   7.121 -0.1123 -0.1096 -0.2456
  750POPS   C4A11424  17.425  16.680   7.555  0.1461  0.0545  0.2408
  750POPS   C1B11425  17.245  16.876   6.449 -0.6637 -0.0262  0.0515
  750POPS   C2B11426  17.390  17.034   6.846 -0.0989 -0.0271  0.0668
  750POPS   C3B11427  17.403  17.212   7.254 -0.0739  0.0164 -0.1718
  750POPS   C4B11428  17.229  17.396   7.643  0.0478  0.0308 -0.1801
  751POPS   CNO11429   6.998   4.139   4.869 -0.0075 -0.2690  0.0667
  751POPS   PO411430   6.834   4.250   5.236  0.0948  0.1935 -0.1482
  751POPS   GL111431   6.974   4.132   5.576  0.1207 -0.1608 -0.0501
  751POPS   GL211432   7.011   4.378   5.847  0.0227 -0.0741 -0.0063
  751POPS   C1A11433   6.671   3.994   5.887  0.0026 -0.4307  0.0817
  751POPS   D2A11434   6.257   3.954   5.980 -0.1922  0.3677 -0.1987
  751POPS   C3A11435   5.954   4.081   6.344  0.1455 -0.0945  0.1001
  751POPS   C4A11436   5.537   4.020   6.436 -0.2460  0.3634 -0.1452
  751POPS   C1B11437   7.312   4.481   6.173  0.2767 -0.1534  0.0264
  751POPS   C2B11438   7.581   4.219   6.305 -0.0326  0.1734 -0.1955
  751POPS   C3B11439   7.966   4.329   6.602  0.4047 -0.0322 -0.0590
  751POPS   C4B11440   8.188   4.162   7.019 -0.1638 -0.0776  0.2630
  752POPS   CNO11441   0.015  12.058   5.636 -0.1324 -0.0064  0.0287
  752POPS   PO411442   0.412  11.926   5.638 -0.2225  0.3002 -0.0171
  752POPS   GL111443   0.373  12.029   6.106  0.1539  0.0658  0.1952
  752POPS   GL211444   0.626  11.904   6.277 -0.0102  0.1404  0.0727
  752POPS   C1A11445   0.205  11.723   6.482  0.4539  0.1518 -0.1665
  752POPS   D2A11446   0.029  11.453   6.866 -0.2604 -0.1092  0.0886
  752POPS   C3A11447  -0.049  11.115   6.957 -0.1024 -0.0252  0.2019
  752POPS   C4A11448  -0.060  10.892   7.357 -0.0083  0.1321  0.0851
  752POPS   C1B11449   0.555  12.023   6.682  0.3128 -0.1930  0.1280
  752POPS   C2B11450   0.507  12.273   7.006  0.0399 -0.1581 -0.1786
  752POPS   C3B11451   0.135  12.425   7.309  0.0492 -0.2547  0.3713
  752POPS   C4B11452   0.137  12.272   7.801  0.1462 -0.3072  0.3661
  753POPS   CNO11453  18.703   5.722   5.233 -0.2926 -0.2349 -0.2066
  753POPS   PO411454  18.625   5.289   5.602 -0.0317 -0.1555  0.0173
  753POPS   GL111455  18.616   5.288   6.041  0.1582 -0.0235  0.0509
  753POPS   GL211456  18.737   4.927   6.210 -0.0605  0.2295  0.0484
  753POPS   C1A11457  18.789   5.453   6.455 -0.1308  0.2388  0.2233
  753POPS   D2A11458  18.853   5.758   6.820 -0.4236 -0.3464  0.1194
  753POPS   C3A11459  18.848   5.524   7.182  0.3100 -0.0041  0.0374
  753POPS   C4A11460  18.788   5.183   7.518 -0.1964  0.0233 -0.1615
  753POPS   C1B11461  18.729   4.840   6.554 -0.0454 -0.1813  0.1148
  753POPS   C2B11462  18.873   4.868   6.986 -0.2086 -0.0660 -0.0846
  753POPS   C3B11463  18.511   4.834   7.198  0.0241 -0.0407  0.0961
  753POPS   C4B11464  18.356   5.176   7.399  0.2233 -0.0753 -0.0172
  754POPS   CNO11465   1.711   8.262   5.075  0.0578  0.1024 -0.2295
  754POPS   PO411466   1.470   8.236   5.380 -0.0578  0.0266  0.2244
  754POPS   GL111467   1.473   8.204   5.783  0.1073 -0.1172 -0.2393
  754POPS   GL211468   1.247   8.376   5.940 -0.1579  0.3293  0.0916
  754POPS   C1A11469   1.772   8.215   6.142 -0.2453  0.2694 -0.0218
  754POPS   D2A11470   1.868   8.144   6.560 -0.1314 -0.2252  0.2644
  754POPS   C3A11471   1.555   7.973   6.782 -0.1829  0.1203 -0.0975
  754POPS   C4A11472   1.275   7.820   7.090  0.0190  0.2296 -0.0791
  754POPS   C1B11473   1.383   8.338   6.385  0.2736  0.1176  0.0662
  754POPS   C2B11474   1.576   8.534   6.735 -0.0858 -0.3049  0.0598
  754POPS   C3B11475   1.509   8.841   7.073 -0.0080  0.1150 -0.1791
  754POPS   C4B11476   1.639   8.988   7.432 -0.3257 -0.3585 -0.0287
  755POPS   CNO11477  12.517   7.369   5.399  0.0161  0.4096 -0.1520
  755POPS   PO411478  12.157   7.648   5.640 -0.1541  0.0390 -0.1663
  755POPS   GL111479  12.147   7.813   6.008 -0.0477  0.3241 -0.4775
  755POPS   GL211480  12.512   7.960   6.035  0.0869 -0.1081 -0.3490
  755POPS   C1A11481  12.445   7.639   6.416 -0.1370 -0.0201  0.0473
  755POPS   D2A11482  12.583   7.749   6.896  0.0222 -0.2019  0.1936
  755POPS   C3A11483  12.561   7.679   7.287  0.1701  0.3215  0.1895
  755POPS   C4A11484  12.579   7.591   7.647  0.2902 -0.1649 -0.0034
  755POPS   C1B11485  12.289   8.149   6.435 -0.2022 -0.0933 -0.1543
  755POPS   C2B11486  12.117   7.990   6.815 -0.2506  0.3062 -0.1041
  755POPS   C3B11487  12.238   8.066   7.174  0.1600  0.2224 -0.1831
  755POPS   C4B11488  12.261   8.081   7.564  0.0078  0.0206 -0.0399
  756POPS   CNO11489  10.234   6.790   5.596  0.1650  0.4584 -0.1374
  756POPS   PO411490  10.577   6.544   5.845 -0.2499 -0.1057 -0.0113
  756POPS   GL111491  10.365   6.792   6.118  0.2207 -0.2652  0.0924
  756POPS   GL211492  10.377   6.496   6.281 -0.1067  0.1002 -0.0443
  756POPS   C1A11493  10.120   6.942   6.462 -0.4287 -0.0993 -0.1771
  756POPS   D2A11494   9.897   7.259   6.709  0.0333 -0.1240 -0.1508
  756POPS   C3A11495   9.594   7.142   7.033  0.1544 -0.4006  0.0222
  756POPS   C4A11496   9.303   6.740   6.988  0.1620  0.3548 -0.0104
  756POPS   C1B11497  10.331   6.395   6.667  0.2122 -0.2258 -0.2197
  756POPS   C2B11498  10.277   6.461   7.110  0.1121 -0.0215  0.2559
  756POPS   C3B11499  10.325   6.733   7.445  0.1849 -0.2529 -0.0738
  756POPS   C4B11500  10.334   7.085   7.720 -0.0743  0.1758  0.2639
  757POPS   CNO11501   5.085   3.228   5.372 -0.2201 -0.0815 -0.0638
  757POPS   PO411502   5.278   2.959   5.481  0.1589  0.1480 -0.1042
  757POPS   GL111503   5.196   2.920   5.841 -0.2361  0.0105 -0.1760
  757POPS   GL211504   4.912   2.869   5.868  0.5672 -0.1656 -0.2423
  757POPS   C1A11505   5.232   3.143   6.199  0.1841 -0.0327  0.2973
  757POPS   D2A11506   5.512   3.344   6.533 -0.2191  0.2577 -0.1706
  757POPS   C3A11507   5.436   3.137   6.979 -0.3321  0.3159  0.1650
  757POPS   C4A11508   5.625   3.101   7.384  0.2017 -0.2527 -0.0201
  757POPS   C1B11509   5.004   2.722   6.337 -0.1370 -0.3680 -0.0097
  757POPS   C2B11510   5.373   2.720   6.640  0.1558 -0.0895 -0.1876
  757POPS   C3B11511   5.871   2.822   6.793 -0.0019 -0.3471  0.2708
  757POPS   C4B11512   6.010   2.866   7.208  0.0509 -0.0936  0.4877
  758POPS   CNO11513  18.592  18.557   5.295  0.0513 -0.4478 -0.0305
  758POPS   PO411514  18.724  18.501   5.814 -0.1634  0.0636 -0.2510
  758POPS   GL111515  18.760  18.335   6.187  0.2016  0.0259 -0.0255
  758POPS   GL211516  18.425  18.289   6.235 -0.0233 -0.1030  0.2160
  758POPS   C1A11517  19.137  18.528   6.528  0.0444 -0.2309 -0.0558
  758POPS   D2A11518  19.168  18.795   6.917 -0.0771 -0.0672 -0.2847
  758POPS   C3A11519  19.134  18.707   7.253 -0.1649  0.3828  0.0744
  758POPS   C4A11520  19.065  18.724   7.714 -0.2947  0.0775  0.0269
  758POPS   C1B11521  18.305  18.381   6.685  0.3234  0.1616 -0.0133
  758POPS   C2B11522  18.032  18.199   7.018 -0.0553 -0.0043  0.0522
  758POPS   C3B11523  17.944  18.191   7.319  0.0589  0.1617  0.0615
  758POPS   C4B11524  18.061  17.818   7.621 -0.5468 -0.0041  0.3344
  759POPS   CNO11525   2.074  10.909   4.956 -0.1489  0.1841 -0.0660
  759POPS   PO411526   1.815  10.941   5.281 -0.1266  0.0088 -0.0806
  759POPS   GL111527   2.027  11.041   5.665  0.1693 -0.0339  0.0673
  759POPS   GL211528   2.001  10.864   5.795  0.0074 -0.1462 -0.0705
  759POPS   C1A11529   1.857  11.261   6.098  0.3185  0.3383  0.0269
  759POPS   D2A11530   1.734  11.280   6.486  0.0944 -0.2742  0.0972
  759POPS   C3A11531   2.098  11.132   6.679  0.1890 -0.2379 -0.0605
  759POPS   C4A11532   2.409  10.901   6.695  0.1776 -0.1020  0.1820
  759POPS   C1B11533   2.080  10.871   6.239 -0.3861 -0.1453  0.0905
  759POPS   C2B11534   2.125  10.505   6.567 -0.0842 -0.1505  0.3595
  759POPS   C3B11535   2.406  10.220   6.748  0.0751 -0.0855  0.1418
  759POPS   C4B11536   2.771  10.075   6.945  0.3819  0.0586  0.0661
  760POPS   CNO11537   2.127   0.214   5.784 -0.3617  0.3344 -0.0625
  760POPS   PO411538   1.797   0.571   5.721  0.0392  0.1273  0.1174
  760POPS   GL111539   1.901   0.781   6.070 -0.1442 -0.0343  0.2817
  760POPS   GL211540   1.997   0.479   6.220  0.0746  0.0187  0.2935
  760POPS   C1A11541   2.063   0.966   6.398  0.0913  0.0298  0.1206
  760POPS   D2A11542   2.210   1.043   6.841 -0.1316 -0.0523 -0.2136
  760POPS   C3A11543   2.210   0.760   7.126 -0.1632 -0.2142  0.2029
  760POPS   C4A11544   2.007   0.657   7.422 -0.0938 -0.1867  0.1215
  760POPS   C1B11545   1.964   0.057   6.312 -0.1845  0.1081  0.3281
  760POPS   C2B11546   2.006  -0.212   6.732  0.0900  0.1431 -0.0816
  760POPS   C3B11547   1.781  -0.500   6.923 -0.1673 -0.1521 -0.0730
  760POPS   C4B11548   1.661  -0.825   7.199 -0.0655 -0.0550 -0.1274
  761POPS   CNO11549  13.791   2.848   5.846 -0.1279 -0.0532 -0.0181
  761POPS   PO411550  14.121   2.580   5.784 -0.0518  0.0654 -0.0245
  761POPS   GL111551  14.046   2.423   6.122  0.1894  0.0304 -0.1342
  761POPS   GL211552  14.159   2.063   6.123  0.0725  0.2314  0.0474
  761POPS   C1A11553  13.748   2.190   6.341  0.1721  0.0602  0.1350
  761POPS   D2A11554  13.507   1.874   6.333  0.1136 -0.2037 -0.1310
  761POPS   C3A11555  13.620   1.705   6.706  0.2281 -0.1943  0.1146
  761POPS   C4A11556  13.872   1.350   6.933  0.0495  0.2356 -0.1317
  761POPS   C1B11557  14.095   1.870   6.540 -0.0046 -0.2874 -0.2878
  761POPS   C2B11558  14.092   1.804   6.975 -0.0252 -0.0913  0.0317
  761POPS   C3B11559  13.893   1.631   7.348  0.0673 -0.1438 -0.1641
  761POPS   C4B11560  13.917   1.499   7.839  0.1023  0.3240 -0.1964
  762POPS   CNO11561  14.510   6.831   5.211 -0.2497 -0.0329 -0.1304
  762POPS   PO411562  14.669   6.810   5.688 -0.2264 -0.1099 -0.3695
  762POPS   GL111563  14.471   6.937   6.048  0.1115 -0.0466 -0.1179
  762POPS   GL211564  14.431   6.630   6.185 -0.3139  0.2511 -0.2210
  762POPS   C1A11565  14.342   6.926   6.528 -0.0955  0.2832  0.5785
  762POPS   D2A11566  14.263   7.054   6.777  0.2107 -0.1714 -0.0583
  762POPS   C3A11567  13.946   7.184   7.000 -0.1813 -0.1993 -0.3067
  762POPS   C4A11568  13.673   7.540   6.914  0.1468 -0.0430  0.3069
  762POPS   C1B11569  14.574   6.435   6.575  0.1164  0.1044  0.0975
  762POPS   C2B11570  14.536   6.648   6.996 -0.1594  0.0622 -0.1553
  762POPS   C3B11571  14.294   6.923   7.283  0.0263  0.2380  0.2528
  762POPS   C4B11572  14.088   7.019   7.594 -0.0439 -0.1693 -0.1532
  763POPS   CNO11573   6.944  14.835   5.892 -0.1683 -0.0121  0.2559
  763POPS   PO411574   7.154  14.448   5.749  0.1577 -0.3282 -0.1107
  763POPS   GL111575   7.203  14.478   6.174 -0.0798  0.0607 -0.0426
  763POPS   GL211576   7.164  14.770   6.371  0.2213 -0.1150 -0.1723
  763POPS   C1A11577   7.201  14.467   6.744  0.0348  0.6122 -0.1730
  763POPS   D2A11578   7.219  14.304   7.019  0.2070 -0.3750 -0.1389
  763POPS   C3A11579   7.120  14.242   7.420 -0.2812 -0.0454 -0.2106
  763POPS   C4A11580   7.292  13.963   7.740 -0.0756 -0.1987 -0.0754
  763POPS   C1B11581   6.872  14.855   6.693 -0.1442 -0.2524 -0.0247
  763POPS   C2B11582   6.720  14.570   6.984 -0.0332 -0.1834  0.0797
  763POPS   C3B11583   6.579  14.645   7.347  0.1566  0.1118  0.3854
  763POPS   C4B11584   6.617  14.453   7.742  0.1141  0.0634 -0.0614
  764POPS   CNO11585  16.893   4.146   5.308 -0.1798 -0.1818 -0.1986
  764POPS   PO411586  16.696   4.083   5.704  0.1831 -0.3351  0.0401
  764POPS   GL111587  16.587   3.995   6.136  0.1544 -0.0309  0.1140
  764POPS   GL211588  16.533   3.718   6.068  0.2188 -0.0487  0.1022
  764POPS   C1A11589  16.669   4.143   6.463 -0.1687 -0.2007 -0.0250
  764POPS   D2A11590  16.794   3.981   6.826 -0.0469 -0.1187 -0.0783
  764POPS   C3A11591  17.145   4.069   7.178  0.1532 -0.3780  0.1712
  764POPS   C4A11592  17.152   4.096   7.591 -0.2827 -0.1952 -0.0236
  764POPS   C1B11593  16.775   3.641   6.498 -0.0136 -0.0989  0.0122
  764POPS   C2B11594  17.068   3.551   6.957  0.0303  0.0699 -0.0071
  764POPS   C3B11595  17.091   3.452   7.408 -0.2088  0.3039  0.4198
  764POPS   C4B11596  17.229   3.635   7.780  0.0818 -0.1130  0.3390
  765POPS   CNO11597   5.541   5.992   5.438  0.1180  0.0325 -0.0558
  765POPS   PO411598   5.983   6.109   5.394 -0.0516  0.3095  0.0226
  765POPS   GL111599   6.106   6.132   5.746  0.1007 -0.0990 -0.0566
  765POPS   GL211600   6.108   6.418   5.888 -0.2659 -0.2064  0.1916
  765POPS   C1A11601   6.118   5.839   6.168 -0.0612  0.1564  0.4600
  765POPS   D2A11602   6.011   6.026   6.569 -0.0787 -0.2345  0.0953
  765POPS   C3A11603   6.033   6.217   7.065 -0.3745  0.1744 -0.0216
  765POPS   C4A11604   6.098   6.354   7.478 -0.2914  0.2875 -0.1422
  765POPS   C1B11605   6.303   6.321   6.252  0.1682  0.0709 -0.3335
  765POPS   C2B11606   6.354   6.368   6.693  0.1773  0.3270 -0.2195
  765POPS   C3B11607   6.494   6.456   6.979  0.1971 -0.4032  0.0891
  765POPS   C4B11608   6.613   6.596   7.379 -0.1274 -0.3206 -0.0048
  766POPS   CNO11609  10.456   4.057   5.814 -0.0572  0.0279  0.2243
  766POPS   PO411610  10.131   3.783   5.870 -0.1043  0.0615  0.0034
  766POPS   GL111611   9.954   3.822   6.266 -0.1852  0.0439 -0.0668
  766POPS   GL211612   9.711   3.714   6.243 -0.1102  0.0802 -0.1155
  766POPS   C1A11613   9.928   3.859   6.656 -0.3097 -0.0573  0.2454
  766POPS   D2A11614   9.613   3.972   7.021  0.0862  0.2859  0.1293
  766POPS   C3A11615   9.702   4.204   7.396 -0.1503  0.2456  0.1436
  766POPS   C4A11616   9.713   4.396   7.789 -0.1229  0.0164 -0.1975
  766POPS   C1B11617   9.368   3.594   6.583  0.0961  0.0588  0.1456
  766POPS   C2B11618   9.450   3.403   6.931  0.2621 -0.1852  0.0260
  766POPS   C3B11619   9.539   3.478   7.412 -0.0443  0.2872 -0.1743
  766POPS   C4B11620   9.353   3.359   7.788 -0.3467 -0.0925 -0.2499
  767POPS   CNO11621   8.205  16.366   5.729  0.0453  0.3221 -0.1250
  767POPS   PO411622   7.745  16.607   5.704  0.1429  0.1910 -0.2985
  767POPS   GL111623   7.927  16.597   6.076 -0.1782 -0.1009  0.0204
  767POPS   GL211624   8.273  16.662   6.209 -0.2551 -0.1598  0.1938
  767POPS   C1A11625   7.770  16.830   6.451  0.0446  0.1581 -0.2017
  767POPS   D2A11626   7.614  16.872   6.826  0.0548  0.0075 -0.0114
  767POPS   C3A11627   7.274  16.664   7.174 -0.0711 -0.3620  0.2917
  767POPS   C4A11628   7.231  16.289   7.387  0.1664  0.2925  0.1153
  767POPS   C1B11629   8.286  16.723   6.607 -0.0729  0.0062  0.1655
  767POPS   C2B11630   8.102  16.842   6.909 -0.4750  0.1283  0.0216
  767POPS   C3B11631   7.972  17.180   7.253  0.1478  0.1483 -0.0198
  767POPS   C4B11632   7.829  17.616   7.269 -0.1640 -0.2698 -0.0319
  768POPS   CNO11633   9.078   7.929   5.064  0.2843 -0.0076 -0.0281
  768POPS   PO411634   8.914   8.412   5.024  0.1848 -0.1162  0.3117
  768POPS   GL111635   9.206   8.329   5.351 -0.3297 -0.2542  0.0549
  768POPS   GL211636   9.093   8.143   5.570  0.0893  0.0253  0.2447
  768POPS   C1A11637   9.469   8.314   5.810  0.0912  0.0663  0.1390
  768POPS   D2A11638   9.534   8.014   6.160  0.1291 -0.0791  0.1688
  768POPS   C3A11639   9.399   8.132   6.535  0.3907 -0.1607 -0.3909
  768POPS   C4A11640   9.498   8.396   6.806  0.3905 -0.0248 -0.0673
  768POPS   C1B11641   8.966   8.278   5.947  0.0221  0.0235  0.1566
  768POPS   C2B11642   8.946   8.130   6.278  0.3102  0.1803 -0.0949
  768POPS   C3B11643   8.809   8.431   6.526  0.0668  0.2385  0.0040
  768POPS   C4B11644   8.773   8.693   6.888 -0.0657 -0.2186  0.1168
  769POPS   CNO11645  10.044  18.312   5.718  0.0661  0.0408 -0.0903
  769POPS   PO411646   9.688  18.505   5.919  0.1688  0.1195  0.0531
  769POPS   GL111647   9.502  18.498   6.246 -0.1288 -0.1211  0.3361
  769POPS   GL211648   9.796  18.813   6.290  0.4200  0.2642 -0.1266
  769POPS   C1A11649   9.494  18.629   6.709  0.2289 -0.0893 -0.3249
  769POPS   D2A11650   9.297  18.608   7.137  0.2470 -0.0066 -0.0757
  769POPS   C3A11651   9.173  19.019   7.452 -0.2838 -0.2059  0.6183
  769POPS   C4A11652   8.719  19.150   7.519  0.3701  0.3296 -0.0732
  769POPS   C1B11653   9.960  18.852   6.773 -0.0419 -0.0701  0.0040
  769POPS   C2B11654  10.177  18.717   7.177  0.4136  0.2604  0.1315
  769POPS   C3B11655  10.420  18.852   7.447  0.0737 -0.0775 -0.0805
  769POPS   C4B11656  10.812  19.056   7.542  0.1156 -0.0986 -0.0163
  770POPS   CNO11657   8.233   6.363   5.208 -0.1519  0.0659 -0.1781
  770POPS   PO411658   7.763   6.272   5.080 -0.1390  0.0106 -0.1157
  770POPS   GL111659   7.856   6.306   5.551 -0.1230 -0.1404  0.4324
  770POPS   GL211660   7.612   6.124   5.812  0.1089  0.0165 -0.0411
  770POPS   C1A11661   8.066   6.484   5.892 -0.0972 -0.1339 -0.1846
  770POPS   D2A11662   8.382   6.610   6.202 -0.1832 -0.0788  0.2186
  770POPS   C3A11663   8.432   6.493   6.655 -0.1404  0.2324 -0.0661
  770POPS   C4A11664   8.366   6.375   7.120 -0.0602 -0.1024 -0.2718
  770POPS   C1B11665   7.419   6.181   6.325 -0.0511  0.2598 -0.0367
  770POPS   C2B11666   7.087   6.161   6.561 -0.0331  0.1091 -0.3499
  770POPS   C3B11667   6.826   6.070   7.023 -0.0876 -0.1254  0.2873
  770POPS   C4B11668   6.437   5.921   6.852 -0.0074  0.0568 -0.1513
  771POPS   CNO11669   8.712   7.557   5.081 -0.0608  0.0726 -0.2479
  771POPS   PO411670   8.939   7.706   5.485  0.0257  0.0846  0.0441
  771POPS   GL111671   8.777   7.754   5.942  0.1883 -0.1188 -0.0099
  771POPS   GL211672   8.437   7.832   6.071  0.4067  0.1161  0.0286
  771POPS   C1A11673   8.815   7.530   6.312 -0.2600 -0.0705 -0.2788
  771POPS   D2A11674   8.709   7.358   6.741  0.3116 -0.0345  0.1354
  771POPS   C3A11675   9.017   7.192   7.031  0.1361  0.3478 -0.0157
  771POPS   C4A11676   9.199   7.107   7.425  0.2645  0.1042 -0.1369
  771POPS   C1B11677   8.459   7.895   6.500 -0.1030 -0.1464  0.0329
  771POPS   C2B11678   8.373   7.716   6.895  0.0784 -0.2084  0.0762
  771POPS   C3B11679   8.125   7.571   7.290  0.1345 -0.0567 -0.0088
  771POPS   C4B11680   7.719   7.429   7.393  0.2539 -0.2031 -0.1530
  772POPS   CNO11681  18.655   2.174   5.262  0.1571  0.0370 -0.0212
  772POPS   PO411682  18.551   2.486   5.500  0.3283 -0.1672  0.0985
  772POPS   GL111683  18.470   2.722   5.869 -0.0238  0.3287  0.0167
  772POPS   GL211684  18.154   2.899   5.746 -0.1525  0.1455 -0.2384
  772POPS   C1A11685  18.490   3.106   6.118 -0.1701 -0.0224  0.2668
  772POPS   D2A11686  18.449   3.183   6.461  0.1367  0.3079  0.0560
  772POPS   C3A11687  18.573   3.112   6.846 -0.1190 -0.1685 -0.0190
  772POPS   C4A11688  18.609   2.921   7.294  0.0119  0.1329 -0.2107
  772POPS   C1B11689  17.960   3.244   6.042 -0.3861  0.2209  0.2301
  772POPS   C2B11690  17.573   3.370   6.218  0.2859  0.0695 -0.3120
  772POPS   C3B11691  17.071   3.406   6.125  0.1556  0.0798 -0.0265
  772POPS   C4B11692  16.658   3.230   6.183  0.1747  0.0182 -0.0634
  773POPS   CNO11693  15.544   3.620   5.214  0.1413  0.1398  0.0004
  773POPS   PO411694  15.538   3.533   5.584 -0.0990 -0.1508  0.2398
  773POPS   GL111695  15.493   3.694   5.977  0.0016  0.0918  0.3162
  773POPS   GL211696  15.428   4.003   6.057 -0.0179 -0.1615 -0.0757
  773POPS   C1A11697  15.537   3.574   6.364 -0.0527 -0.0224 -0.2771
  773POPS   D2A11698  15.444   3.500   6.759 -0.1764  0.2319 -0.2447
  773POPS   C3A11699  14.992   3.429   6.797  0.2325  0.2296  0.2838
  773POPS   C4A11700  14.616   3.687   6.910  0.0709 -0.1747 -0.0188
  773POPS   C1B11701  15.585   4.088   6.485  0.2486 -0.3709 -0.1833
  773POPS   C2B11702  15.678   3.943   6.921 -0.0886 -0.0462  0.0202
  773POPS   C3B11703  15.569   4.079   7.327  0.1614  0.2388 -0.1400
  773POPS   C4B11704  15.490   4.424   7.554 -0.0645 -0.4018 -0.1460
  774POPS   CNO11705  13.000   1.041   5.415  0.3334 -0.1460 -0.0206
  774POPS   PO411706  13.013   1.495   5.440 -0.0748 -0.5485  0.0955
  774POPS   GL111707  12.733   1.492   5.729  0.1512 -0.3726 -0.1056
  774POPS   GL211708  12.522   1.695   5.822 -0.0106 -0.2260 -0.2773
  774POPS   C1A11709  12.707   1.168   6.135 -0.2932  0.0390 -0.2855
  774POPS   D2A11710  12.407   1.095   6.477 -0.1242 -0.1672 -0.0253
  774POPS   C3A11711  12.344   1.300   6.906 -0.0852 -0.1448  0.4872
  774POPS   C4A11712  12.521   1.585   7.230  0.0661  0.0530 -0.3549
  774POPS   C1B11713  12.658   1.640   6.213  0.0152  0.2753 -0.2221
  774POPS   C2B11714  13.058   1.579   6.428  0.1682  0.3164 -0.1778
  774POPS   C3B11715  13.129   1.657   6.914  0.0450  0.1146 -0.0977
  774POPS   C4B11716  13.353   1.839   7.233  0.1261 -0.2959  0.1993
  775POPS   CNO11717  10.373   0.559   5.699 -0.0784  0.1399  0.1235
  775POPS   PO411718  10.491   0.391   6.122 -0.3373  0.1133 -0.1310
  775POPS   GL111719  10.353   0.271   6.458 -0.1623 -0.2865  0.0258
  775POPS   GL211720  10.075   0.421   6.451 -0.0386 -0.0406 -0.0728
  775POPS   C1A11721  10.345   0.281   6.875 -0.0622  0.1439  0.1461
  775POPS   D2A11722  10.187   0.397   7.283  0.0310  0.3697 -0.1574
  775POPS   C3A11723   9.963   0.291   7.649  0.2752  0.2554 -0.0200
  775POPS   C4A11724   9.835   0.012   7.982 -0.2463 -0.1237 -0.0079
  775POPS   C1B11725   9.985   0.647   6.861 -0.1032  0.1292  0.2887
  775POPS   C2B11726   9.778   0.722   7.299  0.0778 -0.3094 -0.0880
  775POPS   C3B11727   9.434   0.766   7.591  0.0549 -0.3135 -0.0505
  775POPS   C4B11728   9.294   1.047   7.982 -0.1921  0.1015  0.1317
  776POPS   CNO11729   1.228   5.373   4.487  0.1106  0.1743  0.1418
  776POPS   PO411730   1.280   5.240   5.010  0.2435 -0.3392  0.4260
  776POPS   GL111731   1.357   5.250   5.496 -0.2836  0.0421  0.3052
  776POPS   GL211732   1.551   5.478   5.357 -0.2886  0.0494  0.2175
  776POPS   C1A11733   1.264   5.554   5.791 -0.0365  0.2527  0.0694
  776POPS   D2A11734   1.236   5.848   6.077 -0.2050  0.1740 -0.0537
  776POPS   C3A11735   1.528   6.005   6.379  0.5395  0.2447 -0.1855
  776POPS   C4A11736   1.739   6.205   6.719  0.0751 -0.1231  0.1498
  776POPS   C1B11737   1.800   5.418   5.763 -0.1663  0.0653  0.0170
  776POPS   C2B11738   1.711   5.565   6.179  0.2403 -0.1840 -0.1985
  776POPS   C3B11739   1.824   5.740   6.675 -0.1884  0.3257  0.0662
  776POPS   C4B11740   1.968   5.967   7.033 -0.2777  0.4770 -0.2451
  777POPS   CNO11741  16.601  10.488   6.066 -0.1014 -0.0715  0.0620
  777POPS   PO411742  16.404  10.698   5.629  0.1826  0.1950 -0.0711
  777POPS   GL111743  16.469  10.947   5.999  0.1150 -0.2421  0.0092
  777POPS   GL211744  16.424  10.874   6.383  0.1111 -0.1106 -0.1014
  777POPS   C1A11745  16.568  11.322   6.261  0.3259 -0.1737 -0.0501
  777POPS   D2A11746  16.542  11.349   6.685  0.1182 -0.1449  0.2228
  777POPS   C3A11747  16.459  11.134   7.075 -0.0539  0.0284  0.0616
  777POPS   C4A11748  16.380  10.905   7.333  0.0933 -0.1950 -0.3802
  777POPS   C1B11749  16.243  10.776   6.775  0.1274  0.0396 -0.0243
  777POPS   C2B11750  16.160  10.478   6.973 -0.1338  0.0909  0.1217
  777POPS   C3B11751  16.121  10.390   7.419  0.2522 -0.1947  0.0231
  777POPS   C4B11752  16.008  10.660   7.637  0.1214 -0.3603 -0.1892
  778POPS   CNO11753  18.618  11.326   5.687 -0.0111 -0.1416  0.1104
  778POPS   PO411754  18.154  11.303   5.639 -0.1905 -0.0730  0.0107
  778POPS   GL111755  18.238  11.501   6.036  0.1635 -0.0930 -0.1863
  778POPS   GL211756  17.975  11.602   6.314  0.1198 -0.0662  0.2253
  778POPS   C1A11757  18.552  11.724   6.368  0.3358  0.0084 -0.1508
  778POPS   D2A11758  18.536  11.777   6.804 -0.0971  0.1368  0.1781
  778POPS   C3A11759  18.559  11.644   7.214 -0.2045 -0.0734  0.0630
  778POPS   C4A11760  18.563  11.661   7.682 -0.2868 -0.2762  0.1960
  778POPS   C1B11761  17.745  11.896   6.624  0.0197 -0.1966 -0.0694
  778POPS   C2B11762  17.678  12.191   6.898  0.0342 -0.1913 -0.0384
  778POPS   C3B11763  17.724  12.529   7.007  0.1210  0.1091 -0.1960
  778POPS   C4B11764  17.611  12.674   7.475 -0.0815 -0.0979 -0.1265
  779POPS   CNO11765  11.261  15.377   4.877  0.1848  0.4091  0.2916
  779POPS   PO411766  11.104  15.517   5.344  0.1781  0.0658  0.2748
  779POPS   GL111767  11.309  15.383   5.703 -0.1768 -0.1044 -0.1501
  779POPS   GL211768  11.236  15.164   5.941 -0.0951 -0.0724 -0.0860
  779POPS   C1A11769  11.623  15.580   5.961 -0.3562 -0.1273 -0.0554
  779POPS   D2A11770  12.063  15.509   6.242  0.2968 -0.1108 -0.1355
  779POPS   C3A11771  12.428  15.493   6.043  0.3226 -0.0151  0.1329
  779POPS   C4A11772  12.726  15.301   5.879  0.1070  0.0742 -0.0251
  779POPS   C1B11773  11.268  15.418   6.229 -0.0004 -0.1370 -0.2663
  779POPS   C2B11774  11.593  15.511   6.537  0.1072  0.0080 -0.1422
  779POPS   C3B11775  11.652  15.573   6.985  0.0655 -0.0714 -0.2455
  779POPS   C4B11776  11.851  15.691   7.450  0.4014 -0.3960 -0.1188
  780POPS   CNO11777   0.919  11.888   5.756 -0.0944  0.4238  0.1152
  780POPS   PO411778   1.086  11.462   5.985 -0.1745  0.3139  0.0317
  780POPS   GL111779   1.260  11.329   6.351  0.1427 -0.1191 -0.0882
  780POPS   GL211780   1.299  11.017   6.281  0.0685 -0.1489  0.1940
  780POPS   C1A11781   1.232  11.534   6.661  0.1129 -0.3684  0.0195
  780POPS   D2A11782   1.230  11.469   7.005 -0.0563 -0.0778 -0.2979
  780POPS   C3A11783   1.247  11.699   7.297 -0.0837 -0.1776  0.0076
  780POPS   C4A11784   1.060  12.011   7.622  0.0019  0.0548 -0.0052
  780POPS   C1B11785   1.447  11.059   6.789  0.0893  0.1877  0.0145
  780POPS   C2B11786   1.447  11.029   7.215 -0.0393 -0.1162 -0.3073
  780POPS   C3B11787   1.324  11.235   7.574  0.0500 -0.0498 -0.3199
  780POPS   C4B11788   1.420  11.234   8.021 -0.0023  0.2431  0.1121
  781POPS   CNO11789   2.995  17.144   5.304 -0.2052 -0.0671  0.2064
  781POPS   PO411790   3.138  17.389   5.614  0.2518 -0.0696  0.2684
  781POPS   GL111791   3.401  17.603   5.942 -0.1883 -0.0020 -0.0727
  781POPS   GL211792   3.615  17.392   6.008 -0.1071  0.2483 -0.2140
  781POPS   C1A11793   3.612  17.894   6.199 -0.1499 -0.0926  0.4727
  781POPS   D2A11794   3.721  17.955   6.655  0.0239  0.1199 -0.0583
  781POPS   C3A11795   3.427  17.907   6.819  0.1723  0.2973  0.2866
  781POPS   C4A11796   2.974  17.805   6.869 -0.0626  0.4028  0.0453
  781POPS   C1B11797   3.827  17.455   6.446  0.0558  0.2451  0.0793
  781POPS   C2B11798   3.844  17.458   6.946  0.2499  0.1675 -0.1487
  781POPS   C3B11799   3.700  17.657   7.294 -0.0898 -0.1068 -0.0070
  781POPS   C4B11800   3.732  17.540   7.769  0.0244 -0.1667  0.2815
  782POPS   CNO11801  16.222   6.373   5.494 -0.1943  0.2024 -0.2486
  782POPS   PO411802  15.730   6.475   5.612 -0.0626  0.0693  0.4161
  782POPS   GL111803  15.922   6.368   5.992 -0.0769 -0.2381  0.0857
  782POPS   GL211804  16.039   5.998   5.852  0.0080 -0.1592  0.0052
  782POPS   C1A11805  16.069   6.501   6.427 -0.1669 -0.3197  0.2591
  782POPS   D2A11806  16.326   6.406   6.697  0.1330  0.1494 -0.2581
  782POPS   C3A11807  16.378   6.638   7.065  0.1846 -0.0216 -0.1231
  782POPS   C4A11808  16.380   6.394   7.470 -0.1862 -0.0972  0.1511
  782POPS   C1B11809  16.093   6.051   6.330 -0.1883  0.1050  0.2925
  782POPS   C2B11810  16.055   5.934   6.747  0.0650 -0.1175  0.3246
  782POPS   C3B11811  16.016   6.231   7.080  0.0005 -0.1907 -0.1008
  782POPS   C4B11812  15.925   6.231   7.461  0.2104 -0.5392  0.0909
  783POPS   CNO11813   9.487   2.598   5.485  0.1901  0.1442  0.2828
  783POPS   PO411814   9.643   2.890   5.918  0.1505  0.0555 -0.0917
  783POPS   GL111815   9.588   3.138   6.391 -0.0031 -0.0093  0.2160
  783POPS   GL211816   9.261   3.107   6.569  0.0164 -0.2261 -0.0730
  783POPS   C1A11817   9.879   3.380   6.622  0.2377 -0.1784 -0.3012
  783POPS   D2A11818   9.899   3.545   7.097  0.2239 -0.3154 -0.1859
  783POPS   C3A11819   9.909   3.764   7.488  0.2089  0.3177 -0.4022
  783POPS   C4A11820   9.638   3.824   7.797 -0.0133 -0.0193  0.3893
  783POPS   C1B11821   9.301   2.946   6.977  0.0504 -0.1414 -0.0472
  783POPS   C2B11822   9.266   2.669   7.350  0.0912  0.3508 -0.3082
  783POPS   C3B11823   9.025   2.450   7.689  0.1684 -0.3559  0.4981
  783POPS   C4B11824   9.056   2.129   7.831  0.1459 -0.3160  0.0821
  784POPS   CNO11825  15.969  10.959   5.545 -0.0438 -0.0184 -0.2250
  784POPS   PO411826  15.661  11.237   5.322  0.2943  0.0212 -0.0769
  784POPS   GL111827  15.532  11.153   5.737  0.2608  0.0220 -0.0342
  784POPS   GL211828  15.640  11.498   5.816 -0.2415 -0.0023  0.2817
  784POPS   C1A11829  15.501  11.059   6.169 -0.1054  0.0172 -0.2893
  784POPS   D2A11830  15.464  11.101   6.599 -0.2028  0.1271 -0.0421
  784POPS   C3A11831  15.079  11.208   6.726 -0.3949 -0.1811 -0.1647
  784POPS   C4A11832  14.613  11.221   6.886  0.2941 -0.1764 -0.1905
  784POPS   C1B11833  15.587  11.572   6.122 -0.1165 -0.2339 -0.3206
  784POPS   C2B11834  15.485  11.654   6.622  0.1227 -0.0306  0.0166
  784POPS   C3B11835  15.514  11.673   7.030  0.0098  0.0032  0.1754
  784POPS   C4B11836  15.675  11.596   7.420  0.2480 -0.0867 -0.0957
  785POPS   CNO11837  10.159  18.820   5.806 -0.0746 -0.1070  0.0335
  785POPS   PO411838  10.422  18.598   5.412  0.0860  0.1220 -0.0653
  785POPS   GL111839  10.562  18.478   5.851 -0.0173 -0.1944 -0.1239
  785POPS   GL211840  10.840  18.439   5.896 -0.2323  0.1022 -0.0923
  785POPS   C1A11841  10.328  18.643   6.225 -0.0053  0.0833 -0.3023
  785POPS   D2A11842  10.368  18.624   6.703  0.4290  0.0760  0.4704
  785POPS   C3A11843  10.770  18.703   6.981  0.2487  0.0679  0.2637
  785POPS   C4A11844  11.088  18.610   7.236  0.3153  0.0796  0.0417
  785POPS   C1B11845  10.777  18.150   6.306  0.1986  0.2875  0.2038
  785POPS   C2B11846  11.055  17.816   6.522 -0.2276 -0.1076  0.0747
  785POPS   C3B11847  10.962  17.653   6.849  0.4770 -0.0348 -0.1328
  785POPS   C4B11848  11.081  17.568   7.303  0.1475 -0.0193  0.1896
  786POPS   CNO11849  11.498  13.633   5.204 -0.1054 -0.2382 -0.1834
  786POPS   PO411850  11.723  13.653   5.653 -0.1079  0.0451  0.0022
  786POPS   GL111851  11.944  13.636   6.011  0.0631  0.0311  0.1842
  786POPS   GL211852  11.942  13.386   6.290  0.0289  0.3206 -0.1188
  786POPS   C1A11853  12.305  13.854   6.258 -0.3054 -0.2655 -0.1661
  786POPS   D2A11854  12.773  13.958   6.404  0.0073  0.1098 -0.2386
  786POPS   C3A11855  12.926  14.048   6.794  0.0510 -0.0461  0.2447
  786POPS   C4A11856  12.586  14.117   7.149 -0.1068  0.1573  0.1460
  786POPS   C1B11857  11.951  13.584   6.635  0.1583  0.0130 -0.0537
  786POPS   C2B11858  11.748  13.741   6.981  0.1060  0.4186 -0.1681
  786POPS   C3B11859  11.450  13.697   7.277  0.0688  0.0730 -0.2222
  786POPS   C4B11860  11.068  13.681   7.549  0.2409 -0.2204 -0.0566
  787POPS   CNO11861  12.311  10.427   5.307  0.0767  0.1060 -0.3744
  787POPS   PO411862  12.176  10.411   5.737  0.0400  0.2101 -0.0809
  787POPS   GL111863  12.161  10.586   6.115  0.0876 -0.2510  0.1799
  787POPS   GL211864  12.452  10.525   6.242  0.0360 -0.0786 -0.0143
  787POPS   C1A11865  11.929  10.675   6.418  0.0629 -0.0609 -0.3581
  787POPS   D2A11866  12.077  10.571   6.951  0.1507 -0.1671 -0.2231
  787POPS   C3A11867  11.998  10.785   7.319 -0.0339  0.0836  0.2197
  787POPS   C4A11868  11.811  11.071   7.599 -0.1380  0.0742  0.3628
  787POPS   C1B11869  12.413  10.463   6.617 -0.1259 -0.0029  0.1765
  787POPS   C2B11870  12.298  10.079   6.896 -0.0105  0.4747  0.2390
  787POPS   C3B11871  12.023  10.150   7.280 -0.0037 -0.0318 -0.3530
  787POPS   C4B11872  11.730  10.415   7.639  0.0633 -0.0511  0.1228
  788POPS   CNO11873  17.376  13.727   5.398 -0.1798  0.0512 -0.1738
  788POPS   PO411874  17.792  13.853   5.259  0.2772 -0.2892 -0.0340
  788POPS   GL111875  17.860  13.751   5.708 -0.1416  0.0331 -0.1856
  788POPS   GL211876  17.938  13.949   5.958 -0.0830 -0.1824 -0.0345
  788POPS   C1A11877  17.966  13.440   6.038  0.1598 -0.2174  0.2530
  788POPS   D2A11878  17.717  13.246   6.329 -0.1561 -0.1131 -0.0076
  788POPS   C3A11879  17.766  13.438   6.746  0.0324  0.1097 -0.1609
  788POPS   C4A11880  17.720  13.303   7.150 -0.1763  0.1178 -0.0746
  788POPS   C1B11881  17.820  13.832   6.397 -0.1495 -0.0995 -0.0472
  788POPS   C2B11882  17.952  13.870   6.848  0.2788 -0.0050  0.3201
  788POPS   C3B11883  17.596  13.807   7.136 -0.0563 -0.3711  0.1998
  788POPS   C4B11884  17.199  13.956   7.385  0.2015 -0.1101  0.0693
  789POPS   CNO11885   4.324   4.557   5.393 -0.2138 -0.1860  0.0156
  789POPS   PO411886   4.106   4.422   5.688  0.2201  0.1155  0.1901
  789POPS   GL111887   4.331   4.679   6.010 -0.4571  0.1188  0.0832
  789POPS   GL211888   4.123   4.719   6.177  0.0081  0.0630  0.0798
  789POPS   C1A11889   4.409   5.113   6.259 -0.0039  0.1218  0.1536
  789POPS   D2A11890   4.412   5.366   6.542  0.0760 -0.1692  0.0186
  789POPS   C3A11891   4.478   5.413   7.002 -0.1709 -0.2381 -0.0027
  789POPS   C4A11892   4.508   5.454   7.416  0.4031  0.5205  0.0675
  789POPS   C1B11893   4.212   4.399   6.557 -0.0038  0.0313  0.2215
  789POPS   C2B11894   4.300   4.513   6.988  0.1688  0.1044 -0.2762
  789POPS   C3B11895   4.149   4.366   7.329 -0.2303  0.1256  0.0703
  789POPS   C4B11896   4.275   4.160   7.717 -0.0046  0.0754  0.2412
  790POPS   CNO11897   3.082   0.586   5.871  0.3478  0.3083  0.0034
  790POPS   PO411898   3.122   0.958   5.650 -0.1544 -0.0960 -0.0548
  790POPS   GL111899   3.145   1.077   6.059  0.0873 -0.0373  0.0198
  790POPS   GL211900   2.866   1.258   6.251 -0.2192  0.0079  0.0475
  790POPS   C1A11901   2.938   0.769   6.291 -0.1859 -0.1376  0.2302
  790POPS   D2A11902   2.907   0.618   6.653 -0.0477 -0.0623  0.0769
  790POPS   C3A11903   3.038   0.497   7.055 -0.2493  0.0483 -0.0658
  790POPS   C4A11904   2.993   0.725   7.423 -0.0703 -0.1235 -0.1799
  790POPS   C1B11905   2.946   1.578   6.617  0.2596 -0.1824  0.1754
  790POPS   C2B11906   3.097   1.469   7.005  0.0287  0.4709 -0.1632
  790POPS   C3B11907   3.097   1.560   7.418  0.1613  0.0144  0.0698
  790POPS   C4B11908   3.151   1.612   7.774  0.1566  0.1710 -0.0288
  791YOPS   CNO11909  13.506  15.302   5.159  0.0031 -0.3190  0.1022
  791YOPS   PO411910  13.644  15.049   5.482  0.3117 -0.0335  0.1660
  791YOPS   GL111911  13.710  15.255   5.832  0.2349  0.0819 -0.3160
  791YOPS   GL211912  14.026  15.181   5.999  0.0337  0.0182 -0.1253
  791YOPS   C1A11913  13.759  15.539   6.191 -0.5054 -0.2307  0.1635
  791YOPS   D2A11914  13.720  15.590   6.637  0.0821 -0.0973  0.0128
  791YOPS   C3A11915  13.938  15.856   6.845  0.3375  0.2309  0.4427
  791YOPS   C4A11916  14.050  15.761   7.205 -0.1378 -0.2118 -0.2757
  791YOPS   C1B11917  14.072  15.227   6.547  0.0027  0.0850  0.0779
  791YOPS   C2B11918  14.263  15.504   6.838 -0.0585  0.1117 -0.4156
  791YOPS   D3B11919  14.285  15.257   7.161  0.3248 -0.1154  0.3617
  791YOPS   C4B11920  14.728  15.258   7.447  0.2329 -0.1159  0.0321
  792YOPS   CNO11921  10.473   1.853   5.197 -0.4053  0.1586  0.0782
  792YOPS   PO411922  10.380   2.278   5.410  0.1906  0.0178  0.1351
  792YOPS   GL111923  10.472   2.224   5.834  0.1265  0.1117  0.0007
  792YOPS   GL211924  10.694   2.153   5.921 -0.0113  0.0487 -0.0287
  792YOPS   C1A11925  10.163   1.965   6.082  0.1888  0.2115  0.1218
  792YOPS   D2A11926   9.889   1.727   6.395 -0.0257 -0.0947 -0.0671
  792YOPS   C3A11927   9.905   1.639   6.759  0.0643  0.0669 -0.1252
  792YOPS   C4A11928  10.206   1.437   7.023 -0.1127  0.0584  0.0792
  792YOPS   C1B11929  10.418   2.303   6.325 -0.3057  0.0239 -0.0617
  792YOPS   C2B11930  10.495   2.542   6.592  0.2202  0.1975 -0.1525
  792YOPS   D3B11931  10.286   2.503   6.953 -0.0840  0.3009 -0.0165
  792YOPS   C4B11932  10.597   2.536   7.210 -0.1309  0.0383  0.1762
  793YOPS   CNO11933  13.661  12.105   5.237  0.0895 -0.0057 -0.2896
  793YOPS   PO411934  13.842  12.017   5.658 -0.1479  0.0911  0.0245
  793YOPS   GL111935  13.978  11.931   6.078 -0.1496  0.1519 -0.1800
  793YOPS   GL211936  14.271  12.118   6.181  0.1595 -0.1102 -0.0337
  793YOPS   C1A11937  14.053  11.911   6.557  0.1678  0.0146 -0.0143
  793YOPS   D2A11938  14.046  11.912   7.037 -0.3598 -0.0539 -0.2303
  793YOPS   C3A11939  14.050  11.929   7.483  0.0809  0.2319 -0.1126
  793YOPS   C4A11940  13.794  12.299   7.646  0.1936  0.0516 -0.0653
  793YOPS   C1B11941  14.137  12.405   6.488  0.0926 -0.0968 -0.1837
  793YOPS   C2B11942  13.982  12.411   6.915 -0.0126  0.1331 -0.1134
  793YOPS   D3B11943  14.076  12.491   7.323  0.1378 -0.0337 -0.0355
  793YOPS   C4B11944  14.209  12.893   7.542  0.1144 -0.1041  0.0060
  794YOPS   CNO11945   5.007  12.643   5.650  0.1993  0.1346 -0.0027
  794YOPS   PO411946   4.871  13.044   5.551 -0.0783  0.1783  0.0013
  794YOPS   GL111947   4.590  12.890   5.855  0.3200 -0.0014  0.0086
  794YOPS   GL211948   4.520  12.632   5.666  0.1095 -0.0939  0.0453
  794YOPS   C1A11949   4.547  12.879   6.360  0.2348 -0.0808  0.2069
  794YOPS   D2A11950   4.544  12.913   6.837 -0.2909  0.1034  0.0532
  794YOPS   C3A11951   4.550  12.918   7.290  0.2004 -0.0952 -0.3885
  794YOPS   C4A11952   4.380  12.614   7.529  0.1089 -0.2180 -0.1152
  794YOPS   C1B11953   4.678  12.373   6.021  0.4803  0.0105  0.1090
  794YOPS   C2B11954   5.015  12.250   6.186 -0.0819  0.0052 -0.5827
  794YOPS   D3B11955   4.835  12.258   6.664  0.0396 -0.1290 -0.0310
  794YOPS   C4B11956   4.471  12.401   6.473  0.0106 -0.0821 -0.0861
  795YOPS   CNO11957   8.765   3.511   5.872  0.1422  0.1191 -0.2185
  795YOPS   PO411958   8.899   3.130   5.934  0.1089  0.0022  0.0753
  795YOPS   GL111959   8.819   3.273   6.363  0.1790  0.1885 -0.0283
  795YOPS   GL211960   8.710   3.197   6.505 -0.1822 -0.0780 -0.1910
  795YOPS   C1A11961   8.898   3.697   6.701  0.0387 -0.0021  0.0498
  795YOPS   D2A11962   9.132   3.810   6.963  0.1911 -0.1625 -0.0322
  795YOPS   C3A11963   9.243   3.861   7.388 -0.1795 -0.2401 -0.2766
  795YOPS   C4A11964   8.995   3.708   7.637 -0.2358 -0.0440  0.1850
  795YOPS   C1B11965   8.784   2.979   6.910 -0.0502  0.0082  0.2289
  795YOPS   C2B11966   8.846   2.893   7.294 -0.1859  0.1004 -0.0382
  795YOPS   D3B11967   8.845   3.045   7.645  0.0490  0.0905  0.1489
  795YOPS   C4B11968   8.677   2.881   7.861  0.0509  0.1155  0.1381
  796YOPS   CNO11969   4.631  17.892   5.484 -0.0409  0.1193  0.1411
  796YOPS   PO411970   4.197  17.687   5.709  0.1617  0.2766  0.1558
  796YOPS   GL111971   4.476  17.842   6.030 -0.1047  0.2734 -0.2599
  796YOPS   GL211972   4.590  18.135   5.924  0.0248  0.0284  0.0757
  796YOPS   C1A11973   4.670  17.735   6.414 -0.0811  0.0698 -0.1685
  796YOPS   D2A11974   4.954  17.505   6.758 -0.0613 -0.0556 -0.0285
  796YOPS   C3A11975   5.141  17.344   7.160 -0.0913 -0.2280 -0.0226
  796YOPS   C4A11976   5.127  17.597   7.501  0.1842  0.1157 -0.0865
  796YOPS   C1B11977   4.500  18.415   6.302  0.2139  0.1403 -0.1386
  796YOPS   C2B11978   4.612  18.311   6.709  0.1085 -0.2310  0.3049
  796YOPS   D3B11979   4.913  18.336   7.056 -0.0965  0.0214  0.2665
  796YOPS   C4B11980   4.838  18.477   7.534  0.0977 -0.0718  0.4040
  797YOPS   CNO11981  12.018  13.793   5.261 -0.0264  0.0276  0.0508
  797YOPS   PO411982  12.128  14.039   5.577  0.1657  0.2234  0.3379
  797YOPS   GL111983  12.048  14.201   5.959 -0.1823 -0.0361  0.1862
  797YOPS   GL211984  12.167  14.554   5.929  0.1356  0.0839 -0.1266
  797YOPS   C1A11985  11.970  14.349   6.313 -0.2588  0.1856 -0.0059
  797YOPS   D2A11986  12.003  14.110   6.628 -0.0893  0.0110  0.0414
  797YOPS   C3A11987  11.743  14.202   6.940  0.0766 -0.2206  0.0236
  797YOPS   C4A11988  11.734  14.664   7.117 -0.2000 -0.0472  0.0019
  797YOPS   C1B11989  12.462  14.354   6.225 -0.2770 -0.0737  0.2169
  797YOPS   C2B11990  12.496  14.263   6.665  0.1277  0.1191 -0.1535
  797YOPS   D3B11991  12.291  14.433   6.855 -0.0426 -0.0601 -0.1744
  797YOPS   C4B11992  12.202  14.532   7.208 -0.1374  0.1305 -0.2315
  798YOPS   CNO11993  17.750   9.735   5.109 -0.2873  0.0606  0.3228
  798YOPS   PO411994  17.983   9.555   5.453 -0.0607 -0.2703  0.0469
  798YOPS   GL111995  17.930   9.655   5.844  0.1096  0.3452  0.0270
  798YOPS   GL211996  18.078   9.865   6.022  0.1150  0.3061  0.1816
  798YOPS   C1A11997  17.843   9.456   6.261  0.0153  0.0758 -0.1411
  798YOPS   D2A11998  17.815   9.481   6.698 -0.1786 -0.1515 -0.3995
  798YOPS   C3A11999  17.989   9.862   6.941  0.0773  0.2416 -0.0738
  798YOPS   C4A12000  17.998   9.931   7.400 -0.1869 -0.0496 -0.3150
  798YOPS   C1B12001  18.295   9.855   6.400 -0.0378  0.0783  0.1960
  798YOPS   C2B12002  18.344   9.584   6.628 -0.3672 -0.1456  0.3115
  798YOPS   D3B12003  18.395   9.541   7.020 -0.1168  0.0713 -0.1773
  798YOPS   C4B12004  18.712   9.244   7.307  0.2867  0.4396 -0.0607
  799YOPS   CNO12005   8.672   2.355   5.865 -0.5738  0.2476  0.1375
  799YOPS   PO412006   8.489   2.658   5.848 -0.0431 -0.2830 -0.2640
  799YOPS   GL112007   8.597   2.748   6.222  0.0393  0.1193  0.0271
  799YOPS   GL212008   8.833   2.750   6.278 -0.2587 -0.3008 -0.1553
  799YOPS   C1A12009   8.446   2.730   6.629  0.5602  0.0228 -0.0027
  799YOPS   D2A12010   8.333   2.588   6.844  0.1694  0.1284  0.0189
  799YOPS   C3A12011   8.242   2.554   7.192  0.0088 -0.1279  0.3546
  799YOPS   C4A12012   8.510   2.607   7.465  0.0294 -0.0125 -0.0916
  799YOPS   C1B12013   8.973   2.557   6.619 -0.0673  0.2295  0.1308
  799YOPS   C2B12014   8.760   2.459   7.016  0.2442 -0.1422 -0.1839
  799YOPS   D3B12015   8.692   2.161   7.355 -0.1933 -0.1960  0.0918
  799YOPS   C4B12016   8.446   2.186   7.702  0.3979 -0.0392 -0.0904
  800YOPS   CNO12017   4.171   0.472   5.302  0.0520 -0.2340 -0.2115
  800YOPS   PO412018   3.826   0.349   5.509 -0.3822  0.3401  0.0435
  800YOPS   GL112019   3.970   0.175   5.927  0.1895  0.0372  0.0201
  800YOPS   GL212020   3.906   0.305   6.215 -0.3357 -0.0672  0.3260
  800YOPS   C1A12021   4.337   0.109   6.121 -0.0542  0.2227  0.1145
  800YOPS   D2A12022   4.508   0.402   6.453  0.0899 -0.3290  0.1270
  800YOPS   C3A12023   4.844   0.576   6.645 -0.0909 -0.1206 -0.2650
  800YOPS   C4A12024   5.075   0.460   7.014  0.0014  0.1378  0.0882
  800YOPS   C1B12025   3.789   0.090   6.570 -0.1247  0.2186 -0.3111
  800YOPS   C2B12026   3.981   0.116   6.968 -0.0311 -0.0824  0.1855
  800YOPS   D3B12027   3.960   0.104   7.305 -0.1486 -0.1602  0.0685
  800YOPS   C4B12028   4.325   0.240   7.455 -0.1403 -0.0512 -0.1887
  801YOPS   CNO12029   9.740  14.128   5.327  0.0134 -0.2581 -0.0416
  801YOPS   PO412030  10.039  14.049   5.603 -0.2462 -0.0138 -0.2042
  801YOPS   GL112031  10.100  14.157   6.041 -0.1097 -0.1585  0.3666
  801YOPS   GL212032  10.490  14.301   6.104  0.0427 -0.4696 -0.2052
  801YOPS   C1A12033  10.094  13.941   6.388 -0.0592 -0.1032  0.0249
  801YOPS   D2A12034  10.240  13.775   6.778 -0.2306  0.3182 -0.0325
  801YOPS   C3A12035  10.268  13.792   7.211 -0.0856  0.0977 -0.2171
  801YOPS   C4A12036  10.555  13.655   7.457 -0.0202 -0.3844  0.3434
  801YOPS   C1B12037  10.470  14.278   6.537  0.0488 -0.0155 -0.0221
  801YOPS   C2B12038  10.351  14.279   7.009  0.3023 -0.0417 -0.2573
  801YOPS   D3B12039  10.084  14.151   7.390  0.1865 -0.0963  0.2859
  801YOPS   C4B12040   9.929  14.423   7.610 -0.3045  0.2157 -0.5055
  802YOPS   CNO12041   1.195  13.286   5.629  0.0642 -0.2823 -0.0186
  802YOPS   PO412042   1.175  13.662   5.667  0.0695 -0.1782 -0.2237
  802YOPS   GL112043   1.044  13.842   5.990 -0.0236 -0.2415 -0.1880
  802YOPS   GL212044   0.826  14.042   5.975  0.2143  0.0501  0.1060
  802YOPS   C1A12045   1.125  14.093   6.410  0.1153  0.0358 -0.5255
  802YOPS   D2A12046   1.068  14.382   6.749  0.1228 -0.4010 -0.1939
  802YOPS   C3A12047   1.245  14.615   7.134  0.3025 -0.1469  0.2297
  802YOPS   C4A12048   1.499  14.365   7.485 -0.2191  0.0440  0.1628
  802YOPS   C1B12049   0.597  13.645   6.228  0.2011  0.1445  0.2166
  802YOPS   C2B12050   0.375  13.595   6.630 -0.0717  0.0620 -0.2563
  802YOPS   D3B12051   0.144  13.631   7.121  0.3651  0.1330  0.0507
  802YOPS   C4B12052  -0.322  13.870   7.119  0.3194  0.1286 -0.2337
  803YOPS   CNO12053  15.204   0.291   5.754 -0.0525  0.2471 -0.1259
  803YOPS   PO412054  15.068   0.570   5.905  0.2540  0.1854 -0.4025
  803YOPS   GL112055  14.789   0.584   6.161  0.0448  0.0242 -0.0283
  803YOPS   GL212056  14.700   0.901   6.230 -0.2319  0.0810  0.1263
  803YOPS   C1A12057  14.856   0.579   6.656  0.0982  0.1798  0.1520
  803YOPS   D2A12058  14.679   0.719   7.026  0.1220  0.2187 -0.1346
  803YOPS   C3A12059  14.300   0.843   7.184  0.0577  0.0732 -0.1819
  803YOPS   C4A12060  14.230   1.200   7.460  0.1304 -0.0221 -0.1734
  803YOPS   C1B12061  14.749   1.053   6.690  0.1835 -0.4148  0.2009
  803YOPS   C2B12062  14.964   1.354   6.992  0.0504  0.4579  0.2169
  803YOPS   D3B12063  15.314   1.400   7.299  0.6313  0.1170 -0.1127
  803YOPS   C4B12064  15.818   1.542   7.206  0.5989 -0.0130  0.0835
  804YOPS   CNO12065   9.683   8.492   5.382 -0.1327 -0.1656  0.2060
  804YOPS   PO412066  10.051   8.302   5.472 -0.0830  0.0497  0.1865
  804YOPS   GL112067   9.945   8.375   6.017  0.0690  0.3665 -0.0486
  804YOPS   GL212068  10.053   8.180   6.359  0.0639  0.0164  0.0811
  804YOPS   C1A12069   9.717   8.581   6.205  0.0962  0.0607  0.0227
  804YOPS   D2A12070   9.269   8.509   6.207 -0.1345  0.0595  0.4317
  804YOPS   C3A12071   8.937   8.784   6.151  0.3010  0.4459  0.0309
  804YOPS   C4A12072   8.673   8.888   6.445 -0.0497 -0.1908  0.0213
  804YOPS   C1B12073  10.081   8.225   6.796  0.1179  0.0170  0.3459
  804YOPS   C2B12074  10.088   8.090   7.161  0.2043  0.1346  0.0904
  804YOPS   D3B12075   9.783   7.986   7.452  0.0089 -0.1836 -0.0491
  804YOPS   C4B12076   9.487   8.308   7.447  0.2987 -0.1835 -0.0993
  805YOPS   CNO12077   5.917  13.400   5.509 -0.0180  0.1474  0.1424
  805YOPS   PO412078   5.684  13.356   5.873 -0.2244 -0.0074  0.0540
  805YOPS   GL112079   5.565  13.621   6.193  0.3003  0.0838  0.3956
  805YOPS   GL212080   5.938  13.607   6.329 -0.0710  0.3453 -0.0029
  805YOPS   C1A12081   5.581  14.060   6.335 -0.1860  0.1594 -0.1911
  805YOPS   D2A12082   5.502  14.351   6.091 -0.1106 -0.3227  0.1808
  805YOPS   C3A12083   5.482  14.759   6.069 -0.1105 -0.0963 -0.0628
  805YOPS   C4A12084   5.905  14.910   6.214 -0.2252 -0.0145  0.1842
  805YOPS   C1B12085   5.850  13.722   6.761  0.1076 -0.1242  0.1584
  805YOPS   C2B12086   5.878  13.817   7.144  0.4025  0.1812 -0.1007
  805YOPS   D3B12087   6.084  13.707   7.427 -0.1188 -0.0937  0.2105
  805YOPS   C4B12088   6.218  13.858   7.868 -0.3142 -0.0371  0.4306
  806YOPS   CNO12089  15.670  14.001   5.455 -0.0861 -0.0034 -0.2236
  806YOPS   PO412090  15.287  13.889   5.662  0.0524 -0.0572  0.1590
  806YOPS   GL112091  15.362  13.644   5.999  0.1070  0.2005 -0.1370
  806YOPS   GL212092  15.304  13.363   5.941 -0.0497 -0.1541 -0.2863
  806YOPS   C1A12093  15.389  13.598   6.457 -0.2947  0.1218 -0.0124
  806YOPS   D2A12094  15.283  13.760   6.849  0.1245  0.1387 -0.1591
  806YOPS   C3A12095  15.066  14.040   7.202 -0.3215  0.6535 -0.1516
  806YOPS   C4A12096  14.625  14.047   7.001 -0.0607  0.0660 -0.3892
  806YOPS   C1B12097  15.240  13.063   6.284  0.0843 -0.1556 -0.1719
  806YOPS   C2B12098  15.605  13.104   6.500  0.0493 -0.1952  0.2046
  806YOPS   D3B12099  15.972  13.052   6.741 -0.0254 -0.1641  0.0299
  806YOPS   C4B12100  16.181  13.389   6.888 -0.0485  0.0536 -0.0738
  807YOPS   CNO12101  17.545   4.691   5.487 -0.0922 -0.3858  0.3387
  807YOPS   PO412102  17.169   4.577   5.380 -0.0014 -0.4205 -0.1230
  807YOPS   GL112103  17.074   4.585   5.761  0.2262 -0.4178  0.4311
  807YOPS   GL212104  16.902   4.389   6.037 -0.2608 -0.0463 -0.0049
  807YOPS   C1A12105  17.348   4.691   5.979  0.0326  0.4163 -0.0552
  807YOPS   D2A12106  17.431   4.893   6.344  0.0109  0.0722 -0.3503
  807YOPS   C3A12107  17.666   4.833   6.678 -0.1646 -0.2690 -0.0199
  807YOPS   C4A12108  18.005   5.157   6.772 -0.1731  0.2774  0.0972
  807YOPS   C1B12109  17.108   4.449   6.355  0.0366 -0.2348  0.0864
  807YOPS   C2B12110  17.250   4.545   6.739  0.0484 -0.2548  0.1401
  807YOPS   D3B12111  17.362   4.694   7.013  0.2448 -0.3431 -0.2755
  807YOPS   C4B12112  17.715   5.038   7.196  0.1490 -0.1551 -0.0205
  808YOPS   CNO12113  13.020  17.493   5.053  0.0177  0.2397 -0.1543
  808YOPS   PO412114  13.129  17.637   5.379 -0.0051  0.1837 -0.1054
  808YOPS   GL112115  13.062  17.467   5.871 -0.2273 -0.2311  0.0883
  808YOPS   GL212116  13.282  17.720   6.111  0.0353 -0.1472  0.1000
  808YOPS   C1A12117  13.099  17.294   6.246  0.2747  0.4553 -0.3597
  808YOPS   D2A12118  12.978  17.414   6.671  0.1710 -0.2939 -0.0406
  808YOPS   C3A12119  12.527  17.202   6.946  0.2224 -0.0739 -0.0704
  808YOPS   C4A12120  12.375  17.420   7.242 -0.1583 -0.2547 -0.0071
  808YOPS   C1B12121  13.154  18.139   6.119  0.2723  0.4273  0.1236
  808YOPS   C2B12122  12.992  18.686   6.202 -0.1533  0.1262 -0.1328
  808YOPS   D3B12123  12.678  18.942   6.416 -0.1905  0.1136 -0.1375
  808YOPS   C4B12124  12.657  18.843   6.775 -0.0976  0.1634 -0.2331
  809YOPS   CNO12125  12.017  16.110   4.841 -0.0719 -0.1729  0.1627
  809YOPS   PO412126  11.785  15.802   4.924  0.3442  0.2162  0.1757
  809YOPS   GL112127  12.032  15.756   5.286 -0.1868 -0.4005 -0.2767
  809YOPS   GL212128  12.360  15.665   5.354  0.1381  0.5364  0.0751
  809YOPS   C1A12129  12.165  15.913   5.785  0.1195 -0.2358 -0.2317
  809YOPS   D2A12130  12.360  15.981   6.176 -0.1280 -0.2953 -0.0294
  809YOPS   C3A12131  12.301  15.770   6.580 -0.1231  0.2219 -0.1106
  809YOPS   C4A12132  12.130  15.758   7.016  0.0338 -0.2423 -0.0566
  809YOPS   C1B12133  12.050  15.384   5.670 -0.3873 -0.0408 -0.2284
  809YOPS   C2B12134  12.141  15.082   5.981  0.0359  0.1956 -0.1513
  809YOPS   D3B12135  12.074  14.825   6.415  0.3122 -0.2607 -0.0465
  809YOPS   C4B12136  12.137  14.884   6.830  0.2385  0.0747  0.2434
  810YOPS   CNO12137   3.524  12.391   5.308 -0.1442  0.0391  0.1256
  810YOPS   PO412138   3.192  12.173   5.440 -0.0939  0.1517  0.3010
  810YOPS   GL112139   3.250  12.329   5.843 -0.0114 -0.1153 -0.4841
  810YOPS   GL212140   3.647  12.305   5.920 -0.1169  0.2639 -0.1437
  810YOPS   C1A12141   3.386  12.571   6.199  0.1504  0.0650  0.0091
  810YOPS   D2A12142   3.596  12.715   6.617  0.1379 -0.3975  0.0120
  810YOPS   C3A12143   3.584  12.437   7.004 -0.2128 -0.2779  0.3565
  810YOPS   C4A12144   3.382  11.993   6.890  0.1811  0.2193 -0.0154
  810YOPS   C1B12145   3.833  12.375   6.353 -0.1926  0.0453 -0.1088
  810YOPS   C2B12146   4.015  12.372   6.718  0.0431  0.1568  0.0423
  810YOPS   D3B12147   4.057  12.120   7.084  0.0763  0.2399 -0.2269
  810YOPS   C4B12148   3.954  11.604   7.337 -0.3854  0.1837 -0.3053
  811YOPS   CNO12149   5.128   7.211   5.177 -0.0276 -0.2622  0.1263
  811YOPS   PO412150   5.152   6.843   5.527 -0.3634 -0.0183  0.1285
  811YOPS   GL112151   5.066   6.800   5.949  0.1898  0.0606 -0.2539
  811YOPS   GL212152   5.103   6.512   6.060  0.1630  0.3370  0.1985
  811YOPS   C1A12153   4.843   7.047   6.237 -0.0263 -0.2559 -0.2647
  811YOPS   D2A12154   4.447   7.070   6.294 -0.0252  0.0452 -0.2333
  811YOPS   C3A12155   4.112   7.092   6.601 -0.3461  0.1196  0.0282
  811YOPS   C4A12156   4.397   7.068   7.022  0.1400  0.0512 -0.2417
  811YOPS   C1B12157   4.966   6.548   6.435 -0.1262  0.0128  0.1447
  811YOPS   C2B12158   4.965   6.384   6.788 -0.0880 -0.1679  0.0611
  811YOPS   D3B12159   5.125   6.100   6.596  0.1035  0.3104 -0.0322
  811YOPS   C4B12160   5.172   5.984   6.160  0.2991  0.1911 -0.1131
  812YOPS   CNO12161   1.973  15.006   5.716 -0.0073  0.2726 -0.2267
  812YOPS   PO412162   2.204  14.672   5.657 -0.1904 -0.2117  0.0653
  812YOPS   GL112163   2.089  14.580   6.030  0.3427 -0.0312  0.0088
  812YOPS   GL212164   1.976  14.197   5.936 -0.2727  0.0158  0.3316
  812YOPS   C1A12165   2.283  14.308   6.260 -0.0549 -0.2821  0.2142
  812YOPS   D2A12166   2.622  14.383   6.451 -0.1201  0.0097  0.1875
  812YOPS   C3A12167   2.698  14.661   6.907 -0.1435 -0.1218  0.1096
  812YOPS   C4A12168   3.048  14.931   7.179 -0.0125  0.3298 -0.4407
  812YOPS   C1B12169   1.694  14.359   6.282 -0.2075  0.1149  0.0879
  812YOPS   C2B12170   1.548  14.230   6.693  0.0010 -0.0409  0.1114
  812YOPS   D3B12171   1.314  14.074   7.106 -0.0902  0.2581 -0.3859
  812YOPS   C4B12172   1.472  13.885   7.435 -0.0416 -0.0795 -0.1025
  813YOPS   CNO12173   0.230   6.843   5.331 -0.2199  0.3363 -0.0734
  813YOPS   PO412174   0.557   7.012   5.244  0.0883  0.0365  0.0190
  813YOPS   GL112175   0.605   7.189   5.639 -0.0594  0.2889  0.0000
  813YOPS   GL212176   0.945   7.244   5.743 -0.1270 -0.1266 -0.3308
  813YOPS   C1A12177   0.552   7.378   6.050  0.0381 -0.0662  0.4361
  813YOPS   D2A12178   0.276   7.393   6.365 -0.0400  0.0402  0.1002
  813YOPS   C3A12179   0.038   6.953   6.530 -0.0487  0.0770  0.0957
  813YOPS   C4A12180   0.191   6.791   6.964  0.0654  0.1774 -0.0593
  813YOPS   C1B12181   1.099   7.445   6.149  0.0751  0.0890  0.0969
  813YOPS   C2B12182   1.242   7.427   6.546 -0.0898  0.1517  0.0715
  813YOPS   D3B12183   1.257   7.117   6.874 -0.0980  0.1830  0.0586
  813YOPS   C4B12184   0.911   7.274   7.146 -0.0579 -0.0254 -0.0482
  814YOPS   CNO12185   3.109   1.803   5.259  0.1295  0.1333  0.1112
  814YOPS   PO412186   3.417   1.822   5.531  0.0325 -0.1582  0.1467
  814YOPS   GL112187   3.352   1.723   5.953  0.1807 -0.3224  0.2628
  814YOPS   GL212188   3.059   1.705   6.096  0.0897 -0.2827 -0.0658
  814YOPS   C1A12189   3.591   1.605   6.298  0.2384  0.0830 -0.0155
  814YOPS   D2A12190   3.908   1.455   6.616 -0.0784  0.2334  0.1146
  814YOPS   C3A12191   4.063   1.117   6.759 -0.0292 -0.1065  0.2184
  814YOPS   C4A12192   3.776   0.937   6.988  0.0360 -0.2177 -0.3132
  814YOPS   C1B12193   3.254   1.974   6.375  0.1119  0.0292  0.0641
  814YOPS   C2B12194   3.465   1.825   6.748  0.0648 -0.1332  0.1156
  814YOPS   D3B12195   3.518   1.751   7.091  0.0888  0.0071 -0.1345
  814YOPS   C4B12196   3.959   1.878   7.236 -0.1228  0.0836 -0.1245
  815YOPS   CNO12197  10.745   7.467   5.345 -0.0012  0.1457 -0.0088
  815YOPS   PO412198  10.787   7.866   5.587  0.0461 -0.1767 -0.3379
  815YOPS   GL112199  10.876   8.154   5.940 -0.1679 -0.0335 -0.1704
  815YOPS   GL212200  10.822   8.041   6.250  0.3265 -0.1678  0.1163
  815YOPS   C1A12201  10.834   8.497   6.296 -0.3173 -0.1002 -0.3055
  815YOPS   D2A12202  10.831   8.627   6.731  0.0087 -0.0920 -0.1812
  815YOPS   C3A12203  10.806   8.632   7.137  0.1153 -0.0412  0.0340
  815YOPS   C4A12204  10.928   9.010   7.277  0.0404 -0.2179 -0.0376
  815YOPS   C1B12205  10.681   8.131   6.665 -0.2312 -0.0563  0.1975
  815YOPS   C2B12206  10.568   8.175   7.027 -0.0843  0.0232 -0.0082
  815YOPS   D3B12207  10.828   8.135   7.290 -0.0462 -0.0484 -0.0331
  815YOPS   C4B12208  11.316   8.116   7.391  0.0478 -0.4469  0.0892
  816YOPS   CNO12209  15.705   4.180   5.192  0.2217 -0.2000  0.3043
  816YOPS   PO412210  15.645   4.563   5.380 -0.1947  0.0288 -0.2826
  816YOPS   GL112211  15.669   4.416   5.842  0.0620  0.0691  0.3442
  816YOPS   GL212212  15.467   4.687   6.013 -0.2246 -0.0530 -0.0869
  816YOPS   C1A12213  15.835   4.502   6.265 -0.0614 -0.0193 -0.0306
  816YOPS   D2A12214  15.881   4.444   6.671 -0.2261 -0.0406 -0.0256
  816YOPS   C3A12215  15.798   4.435   7.078  0.0002  0.2254 -0.0508
  816YOPS   C4A12216  16.172   4.405   7.294 -0.0040 -0.1853 -0.2492
  816YOPS   C1B12217  15.415   4.554   6.473  0.0525  0.2856 -0.3248
  816YOPS   C2B12218  15.326   4.401   7.004 -0.1164  0.0124 -0.1331
  816YOPS   D3B12219  15.096   4.261   7.350 -0.1633 -0.1648 -0.1743
  816YOPS   C4B12220  14.707   4.411   7.531  0.0322 -0.0200  0.1377
  817YOPS   CNO12221   4.168   8.241   4.984 -0.0359 -0.3601 -0.0596
  817YOPS   PO412222   4.139   8.190   5.391 -0.0257  0.1439 -0.0524
  817YOPS   GL112223   4.167   8.252   5.739  0.0686 -0.0148 -0.1911
  817YOPS   GL212224   3.878   8.240   5.889 -0.1801  0.2338 -0.2701
  817YOPS   C1A12225   4.361   8.484   6.045  0.0181  0.3564  0.1200
  817YOPS   D2A12226   4.339   8.675   6.395 -0.0398  0.1956  0.2094
  817YOPS   C3A12227   4.259   9.065   6.661  0.3125 -0.0959 -0.0766
  817YOPS   C4A12228   4.364   9.355   6.921  0.2431  0.4651 -0.0934
  817YOPS   C1B12229   3.890   8.496   6.253 -0.0941 -0.0929 -0.5491
  817YOPS   C2B12230   3.893   8.514   6.767 -0.2447  0.0866  0.0884
  817YOPS   D3B12231   3.906   8.894   7.001  0.1290 -0.0949 -0.0974
  817YOPS   C4B12232   3.794   9.332   7.253 -0.0250  0.0805 -0.0321
  818YOPS   CNO12233   0.407   0.299   5.747  0.1595 -0.0283 -0.2334
  818YOPS   PO412234   0.638  -0.026   5.712  0.0325  0.2118  0.1355
  818YOPS   GL112235   0.642   0.070   6.145  0.0050  0.1012  0.0511
  818YOPS   GL212236   0.315  -0.032   6.116  0.0589 -0.0910 -0.2731
  818YOPS   C1A12237   0.780  -0.007   6.523  0.3555  0.2037  0.0839
  818YOPS   D2A12238   1.089  -0.155   6.818 -0.2277 -0.1709 -0.2803
  818YOPS   C3A12239   1.457  -0.202   6.714 -0.0342  0.1216 -0.0007
  818YOPS   C4A12240   1.602   0.144   6.554 -0.0880 -0.0525  0.1769
  818YOPS   C1B12241   0.174   0.162   6.491 -0.0404 -0.0495  0.0462
  818YOPS   C2B12242   0.214   0.466   6.854 -0.0478  0.0825  0.0218
  818YOPS   D3B12243   0.492   0.578   7.157 -0.1086 -0.1982  0.3505
  818YOPS   C4B12244   0.565   0.222   7.496 -0.0959 -0.0122  0.1499
  819YOPS   CNO12245  12.132   6.050   5.081  0.1841 -0.2318  0.2586
  819YOPS   PO412246  12.107   6.115   5.544  0.0046  0.1255  0.0176
  819YOPS   GL112247  12.406   6.065   5.953 -0.0495 -0.3177  0.1953
  819YOPS   GL212248  12.346   5.767   5.953 -0.1442  0.2783  0.2477
  819YOPS   C1A12249  12.636   5.916   6.377 -0.0298 -0.0449 -0.2395
  819YOPS   D2A12250  12.809   6.057   6.820  0.3591 -0.0089  0.3419
  819YOPS   C3A12251  12.849   6.440   6.961 -0.0998  0.2507 -0.1692
  819YOPS   C4A12252  12.734   6.565   7.311  0.0897  0.2232 -0.0782
  819YOPS   C1B12253  12.159   5.887   6.321  0.0048  0.0428  0.1983
  819YOPS   C2B12254  12.092   5.837   6.775  0.0563 -0.2732  0.0059
  819YOPS   D3B12255  12.064   5.833   7.122  0.0899 -0.1280  0.1463
  819YOPS   C4B12256  11.731   5.548   7.295 -0.1277 -0.1910  0.1199
  820YOPS   CNO12257   3.249  16.361   5.878 -0.2348 -0.3776 -0.0298
  820YOPS   PO412258   3.689  16.589   5.820  0.0562  0.0029  0.0189
  820YOPS   GL112259   3.678  16.469   6.217  0.0733 -0.1971 -0.1203
  820YOPS   GL212260   4.005  16.401   6.176 -0.0031  0.2781 -0.4634
  820YOPS   C1A12261   3.670  16.605   6.663 -0.0997 -0.2301  0.0672
  820YOPS   D2A12262   3.556  16.544   6.975 -0.1874 -0.0778  0.2384
  820YOPS   C3A12263   3.552  16.675   7.388 -0.0680 -0.1177  0.0414
  820YOPS   C4A12264   3.827  16.871   7.750  0.0861 -0.0252  0.1269
  820YOPS   C1B12265   4.235  16.449   6.568  0.0894  0.1500  0.0680
  820YOPS   C2B12266   4.139  16.270   6.917 -0.0297  0.1264 -0.1854
  820YOPS   D3B12267   4.235  16.035   7.298 -0.0460 -0.1677  0.4482
  820YOPS   C4B12268   4.538  15.926   7.577  0.0772  0.0520  0.0908
  821POPE   NH312269   4.728   5.989   4.985  0.1934  0.3053 -0.0593
  821POPE   PO412270   4.757   6.044   5.462  0.0401 -0.1465 -0.0141
  821POPE   GL112271   4.536   5.945   5.806 -0.3159 -0.0091  0.0302
  821POPE   GL212272   4.700   6.127   5.989 -0.0176 -0.1277 -0.1847
  821POPE   C1A12273   4.237   5.655   5.963 -0.0846  0.4811  0.0396
  821POPE   D2A12274   3.990   5.309   6.096 -0.2699  0.2072 -0.0548
  821POPE   C3A12275   3.955   5.162   6.491  0.0263  0.0353 -0.3232
  821POPE   C4A12276   4.172   5.049   6.831  0.2667  0.1062  0.0517
  821POPE   C1B12277   4.705   5.976   6.385 -0.0186 -0.1937  0.2672
  821POPE   C2B12278   4.478   5.863   6.745 -0.1958  0.0931  0.1872
  821POPE   C3B12279   4.647   5.844   7.193  0.0269  0.2243  0.0594
  821POPE   C4B12280   4.408   5.975   7.542  0.0792 -0.1299 -0.1335
  822POPE   NH312281   3.338   6.078   5.703  0.3625  0.2954  0.3459
  822POPE   PO412282   3.639   6.261   5.575 -0.3431  0.2598 -0.4625
  822POPE   GL112283   3.422   6.546   5.900  0.1670  0.0202  0.0996
  822POPE   GL212284   3.601   6.917   5.906 -0.0150 -0.0642 -0.1091
  822POPE   C1A12285   3.427   6.742   6.384 -0.0544 -0.0270  0.0508
  822POPE   D2A12286   3.380   6.593   6.705 -0.0061  0.2486 -0.3199
  822POPE   C3A12287   3.068   6.496   6.957  0.2668 -0.0967 -0.1020
  822POPE   C4A12288   2.912   6.320   7.275 -0.2180  0.2910  0.1543
  822POPE   C1B12289   3.788   7.126   6.221 -0.0056 -0.3078  0.1069
  822POPE   C2B12290   3.589   7.148   6.698  0.1003  0.0803 -0.0769
  822POPE   C3B12291   3.811   7.246   7.076  0.0268  0.0202  0.2991
  822POPE   C4B12292   4.085   6.989   7.365 -0.1233 -0.3112  0.1893
  823POPE   NH312293   3.716   2.146   5.849  0.0674 -0.2588 -0.1803
  823POPE   PO412294   3.624   2.495   5.560  0.5634 -0.1132  0.0058
  823POPE   GL112295   3.286   2.367   5.926  0.1194  0.3107  0.1911
  823POPE   GL212296   3.374   2.442   6.160  0.1059  0.0277 -0.2549
  823POPE   C1A12297   2.853   2.204   6.268  0.2029  0.0213 -0.1554
  823POPE   D2A12298   2.597   2.498   6.435 -0.1206 -0.1609  0.0086
  823POPE   C3A12299   2.474   2.875   6.409 -0.0797  0.2408 -0.1705
  823POPE   C4A12300   2.169   3.233   6.333  0.0811 -0.0929  0.0858
  823POPE   C1B12301   3.750   2.413   6.473 -0.0306 -0.2006 -0.0022
  823POPE   C2B12302   3.939   2.587   6.835  0.0799  0.0716 -0.0285
  823POPE   C3B12303   3.785   2.640   7.276  0.1378  0.0767 -0.2125
  823POPE   C4B12304   3.431   2.525   7.683 -0.0860  0.1475  0.2374
  824POPE   NH312305   5.966  12.802   5.740  0.2352  0.1175 -0.0542
  824POPE   PO412306   5.782  12.406   5.611 -0.1462  0.0107 -0.0341
  824POPE   GL112307   5.744  12.326   6.065 -0.1815 -0.0414 -0.2395
  824POPE   GL212308   6.095  12.271   6.182 -0.2062  0.1330 -0.1872
  824POPE   C1A12309   5.456  12.397   6.353 -0.0204  0.2080 -0.3109
  824POPE   D2A12310   5.342  12.355   6.763 -0.0229 -0.1223  0.0775
  824POPE   C3A12311   5.014  12.167   7.116 -0.1689 -0.2603  0.0671
  824POPE   C4A12312   5.009  11.759   7.371  0.0835  0.3532  0.1020
  824POPE   C1B12313   6.523  12.376   6.380 -0.1521 -0.3409  0.0344
  824POPE   C2B12314   6.708  12.673   6.665  0.0362  0.1762  0.4946
  824POPE   C3B12315   6.985  12.982   6.868  0.6191  0.4732 -0.0423
  824POPE   C4B12316   7.110  13.169   7.196 -0.1918  0.1937  0.0376
  825POPE   NH312317  15.166   4.811   5.606  0.3642 -0.5663  0.2086
  825POPE   PO412318  14.770   4.605   5.572  0.0356 -0.2155 -0.0416
  825POPE   GL112319  14.555   4.559   5.932 -0.1701 -0.0546 -0.1264
  825POPE   GL212320  14.229   4.699   5.895 -0.0907 -0.2035  0.2184
  825POPE   C1A12321  14.747   4.507   6.392  0.0146 -0.1561 -0.0568
  825POPE   D2A12322  14.845   4.501   6.800 -0.3201 -0.0499 -0.0927
  825POPE   C3A12323  14.727   4.121   7.033 -0.0600 -0.2995  0.0089
  825POPE   C4A12324  14.393   3.944   7.274  0.2126  0.1159 -0.0743
  825POPE   C1B12325  14.228   4.515   6.348 -0.2978 -0.1293  0.0882
  825POPE   C2B12326  14.318   4.511   6.741  0.1319  0.3401  0.1367
  825POPE   C3B12327  14.481   4.582   7.178  0.2766 -0.1385  0.3153
  825POPE   C4B12328  14.964   4.780   7.288 -0.0130  0.3811  0.1462
  826POPE   NH312329   2.987  18.824   5.735 -0.1713  0.2007 -0.1805
  826POPE   PO412330   2.635  19.143   5.838  0.1320 -0.0636 -0.0419
  826POPE   GL112331   2.604  18.878   6.105  0.0416 -0.0513  0.0821
  826POPE   GL212332   2.957  19.036   6.210  0.0162 -0.2419  0.2304
  826POPE   C1A12333   2.453  18.801   6.427  0.2048  0.1770  0.0779
  826POPE   D2A12334   2.486  18.790   6.888  0.1901 -0.0011  0.1568
  826POPE   C3A12335   2.240  18.634   7.163 -0.2653 -0.0240  0.0217
  826POPE   C4A12336   2.124  18.131   7.278 -0.1239  0.2842  0.3703
  826POPE   C1B12337   2.910  18.973   6.711  0.3994  0.1851 -0.2459
  826POPE   C2B12338   3.015  18.889   7.241  0.2300 -0.1328 -0.0032
  826POPE   C3B12339   3.069  19.045   7.584 -0.0752  0.1125  0.0155
  826POPE   C4B12340   3.358  19.415   7.731 -0.2055  0.0611 -0.2435
  827POPE   NH312341   2.886  15.532   5.579 -0.0603  0.0492 -0.0292
  827POPE   PO412342   2.753  15.208   5.586 -0.3453  0.0178  0.5847
  827POPE   GL112343   2.698  15.258   5.955 -0.0525  0.2127  0.2151
  827POPE   GL212344   2.291  15.031   6.080 -0.2925 -0.1814 -0.0127
  827POPE   C1A12345   2.649  15.240   6.357  0.1119 -0.0370 -0.0085
  827POPE   D2A12346   2.950  15.203   6.672 -0.2345 -0.1696  0.0252
  827POPE   C3A12347   2.976  15.435   6.987 -0.1283 -0.1022 -0.2240
  827POPE   C4A12348   2.908  15.375   7.500  0.1502  0.1450  0.1405
  827POPE   C1B12349   2.370  14.786   6.505 -0.2327 -0.1143  0.1302
  827POPE   C2B12350   2.138  14.605   6.638  0.1609 -0.2035 -0.2018
  827POPE   C3B12351   1.744  14.698   6.982 -0.1256  0.3200  0.0894
  827POPE   C4B12352   1.839  14.683   7.392 -0.0266  0.3184 -0.3230
  828POPE   NH312353  12.999  12.979   5.638 -0.3311 -0.1215 -0.1978
  828POPE   PO412354  13.144  12.621   5.611  0.0993  0.0546 -0.2128
  828POPE   GL112355  12.932  12.430   5.979 -0.2280  0.0103  0.0344
  828POPE   GL212356  13.022  12.116   6.013  0.5360  0.0464 -0.0562
  828POPE   C1A12357  12.672  12.505   6.262  0.0752  0.1472  0.1890
  828POPE   D2A12358  12.465  12.644   6.529 -0.1294  0.0916 -0.2549
  828POPE   C3A12359  12.335  12.683   6.937  0.0192  0.0336  0.0357
  828POPE   C4A12360  12.140  12.919   7.274  0.0703  0.2047  0.0913
  828POPE   C1B12361  13.175  12.232   6.473  0.2551  0.0061  0.1390
  828POPE   C2B12362  13.204  12.157   6.888 -0.2597 -0.1761  0.0018
  828POPE   C3B12363  12.842  12.057   7.148  0.0954 -0.1554  0.0878
  828POPE   C4B12364  12.586  12.323   7.319 -0.4525 -0.0037  0.0109
  829POPE   NH312365  14.860  17.845   5.312 -0.0464 -0.1328  0.2070
  829POPE   PO412366  14.845  17.511   5.508 -0.1569  0.1497  0.3541
  829POPE   GL112367  14.818  17.238   5.919  0.3274  0.1488  0.0601
  829POPE   GL212368  15.075  17.305   6.175 -0.2609 -0.0611 -0.1368
  829POPE   C1A12369  14.735  16.881   6.245  0.0944 -0.0351 -0.3266
  829POPE   D2A12370  14.448  16.953   6.466 -0.2353 -0.1007  0.0356
  829POPE   C3A12371  14.703  16.825   6.781  0.2222  0.0723  0.0100
  829POPE   C4A12372  15.027  16.682   7.123  0.3590  0.0177  0.0149
  829POPE   C1B12373  14.847  17.295   6.523 -0.0932 -0.2091  0.1916
  829POPE   C2B12374  14.979  17.157   7.052 -0.0342  0.0430 -0.1306
  829POPE   C3B12375  15.112  17.077   7.530 -0.1929 -0.3946  0.0351
  829POPE   C4B12376  15.232  17.434   7.589 -0.0180  0.0613  0.1227
  830POPE   NH312377  14.555   2.279   5.922 -0.1215  0.0592 -0.2979
  830POPE   PO412378  14.846   1.987   5.878  0.1543  0.0258  0.0764
  830POPE   GL112379  14.848   1.878   6.252 -0.0781 -0.1755 -0.2142
  830POPE   GL212380  14.783   2.224   6.423  0.0161  0.1112 -0.3058
  830POPE   C1A12381  15.002   1.828   6.699 -0.1191 -0.2285  0.3343
  830POPE   D2A12382  15.085   1.856   7.183  0.1560  0.2004  0.1729
  830POPE   C3A12383  14.985   1.671   7.577 -0.0800 -0.2333  0.0429
  830POPE   C4A12384  14.793   1.529   7.894 -0.3174  0.2911  0.2955
  830POPE   C1B12385  14.928   2.315   6.980 -0.1653  0.0202 -0.0438
  830POPE   C2B12386  14.837   2.592   7.164  0.2199  0.1167  0.2027
  830POPE   C3B12387  14.828   2.909   7.470  0.1566  0.2196  0.0072
  830POPE   C4B12388  14.815   2.841   8.008 -0.2895 -0.0580 -0.0830
  831POPE   NH312389  10.838   2.691   5.448 -0.1590 -0.0383 -0.0435
  831POPE   PO412390  11.166   2.636   5.849  0.0108  0.3790  0.0749
  831POPE   GL112391  11.276   2.480   6.257 -0.0759 -0.2112  0.1865
  831POPE   GL212392  11.593   2.629   6.310  0.1210 -0.4097 -0.0087
  831POPE   C1A12393  10.922   2.195   6.428  0.3585 -0.0006 -0.2855
  831POPE   D2A12394  10.890   2.357   6.830 -0.2664 -0.0367  0.0208
  831POPE   C3A12395  11.127   2.352   7.052  0.2527  0.1613  0.2028
  831POPE   C4A12396  11.420   2.356   7.366 -0.2752  0.1350 -0.0293
  831POPE   C1B12397  11.614   2.937   6.601  0.0316  0.4733  0.1636
  831POPE   C2B12398  11.856   3.262   6.933  0.3045  0.4572  0.2737
  831POPE   C3B12399  11.967   3.040   7.212 -0.1099 -0.1642  0.3311
  831POPE   C4B12400  12.142   2.924   7.558 -0.1668  0.0400  0.3218
  832POPE   NH312401  12.040   3.286   5.889  0.1511  0.2419  0.3660
  832POPE   PO412402  12.071   3.707   5.901  0.1880  0.0325  0.0670
  832POPE   GL112403  11.922   3.745   6.246  0.0756 -0.1520  0.4310
  832POPE   GL212404  11.591   3.781   6.226  0.1337 -0.0156 -0.0842
  832POPE   C1A12405  11.796   3.733   6.673  0.2515  0.1323  0.0043
  832POPE   D2A12406  11.579   3.736   7.019 -0.0636  0.0603  0.0318
  832POPE   C3A12407  11.327   4.105   7.071  0.0342  0.0946 -0.0586
  832POPE   C4A12408  10.990   4.290   7.392 -0.2184 -0.2938 -0.0514
  832POPE   C1B12409  11.318   3.846   6.543  0.1664  0.2791 -0.1746
  832POPE   C2B12410  10.933   3.940   6.761  0.1552  0.0755 -0.0747
  832POPE   C3B12411  10.668   4.009   7.068 -0.2430  0.1049  0.1698
  832POPE   C4B12412  10.533   4.125   7.496  0.2888 -0.2219  0.3676
  833POPE   NH312413   1.102   6.242   4.732 -0.1925 -0.1539  0.1198
  833POPE   PO412414   1.144   6.344   5.218  0.1418  0.1946  0.1398
  833POPE   GL112415   1.048   6.816   5.425 -0.0274  0.1979 -0.1543
  833POPE   GL212416   1.346   6.794   5.523 -0.3170 -0.4302  0.1682
  833POPE   C1A12417   0.891   6.760   5.917 -0.0520 -0.1346  0.1391
  833POPE   D2A12418   0.601   6.893   6.087  0.0182 -0.0956 -0.2574
  833POPE   C3A12419   0.770   7.123   6.427  0.1186  0.2284  0.0014
  833POPE   C4A12420   0.750   7.505   6.518  0.0009 -0.0727  0.2138
  833POPE   C1B12421   1.363   7.019   5.855  0.0688 -0.2557 -0.0113
  833POPE   C2B12422   1.184   6.891   6.341 -0.4338  0.3443 -0.2550
  833POPE   C3B12423   0.979   6.690   6.805  0.0627 -0.1343  0.1267
  833POPE   C4B12424   0.901   6.751   7.138  0.1742  0.0341 -0.0651
  834POPE   NH312425   4.078   0.678   5.806  0.0513  0.1401  0.2495
  834POPE   PO412426   4.035   1.174   5.735  0.1881  0.2246 -0.1378
  834POPE   GL112427   3.802   1.089   6.057 -0.0111  0.1244 -0.1626
  834POPE   GL212428   3.983   0.912   6.303 -0.1936 -0.1952 -0.1053
  834POPE   C1A12429   3.590   1.092   6.469 -0.0789 -0.1098 -0.4355
  834POPE   D2A12430   3.221   1.048   6.691 -0.0657 -0.0171  0.1146
  834POPE   C3A12431   3.240   0.937   7.071  0.0910 -0.0784  0.2040
  834POPE   C4A12432   3.512   0.966   7.549  0.0801  0.0232  0.0325
  834POPE   C1B12433   4.105   0.644   6.675 -0.0998 -0.3510 -0.0336
  834POPE   C2B12434   4.418   0.396   6.947 -0.2524  0.0921 -0.0542
  834POPE   C3B12435   4.652   0.682   7.198  0.0061 -0.0669  0.0288
  834POPE   C4B12436   4.516   0.923   7.616  0.0082 -0.0334 -0.0491
  835POPE   NH312437  14.946  16.963   5.452 -0.0657  0.1809 -0.0357
  835POPE   PO412438  15.281  17.223   5.577  0.0856  0.0509  0.2295
  835POPE   GL112439  15.500  17.336   5.930 -0.0141  0.1327  0.2972
  835POPE   GL212440  15.822  17.219   6.163  0.2006 -0.1860  0.2242
  835POPE   C1A12441  15.501  17.625   6.273  0.2266  0.1424  0.0150
  835POPE   D2A12442  15.202  17.864   6.503  0.2736  0.0270 -0.1982
  835POPE   C3A12443  15.389  18.052   6.852  0.0289 -0.1901  0.2864
  835POPE   C4A12444  15.643  18.075   7.226  0.0745  0.3037  0.3199
  835POPE   C1B12445  15.753  17.197   6.570 -0.2208  0.4975  0.0876
  835POPE   C2B12446  15.913  17.293   6.974 -0.1461 -0.1448  0.2493
  835POPE   C3B12447  15.913  17.517   7.267  0.1800  0.2413 -0.2349
  835POPE   C4B12448  15.855  17.614   7.708 -0.1341  0.1809  0.0603
  836POPE   NH312449  13.844   5.414   5.536  0.3651  0.0853 -0.1546
  836POPE   PO412450  13.418   5.485   5.829 -0.0928 -0.0909 -0.2111
  836POPE   GL112451  13.335   5.289   6.115  0.0063 -0.0784 -0.1631
  836POPE   GL212452  13.571   5.343   6.399  0.1360  0.0480 -0.0929
  836POPE   C1A12453  13.013   5.216   6.509 -0.0835 -0.0629  0.0485
  836POPE   D2A12454  12.862   4.944   6.861  0.1887 -0.1198 -0.0875
  836POPE   C3A12455  12.652   5.072   7.120  0.1403 -0.1757  0.0232
  836POPE   C4A12456  12.944   5.239   7.358 -0.1212  0.2636 -0.0323
  836POPE   C1B12457  13.669   5.426   6.789  0.1942  0.0894 -0.0201
  836POPE   C2B12458  13.526   5.567   7.187 -0.0142 -0.0393 -0.0752
  836POPE   C3B12459  13.152   5.711   7.378 -0.2924  0.2016 -0.0921
  836POPE   C4B12460  13.102   5.661   7.830 -0.4647  0.0145  0.0260
  837POPE   NH312461  18.370   9.967   5.571  0.2050  0.1677  0.0085
  837POPE   PO412462  18.640  10.220   5.719 -0.1534 -0.0421 -0.1547
  837POPE   GL112463  18.897  10.197   6.075 -0.1211  0.0256  0.1607
  837POPE   GL212464  18.925  10.517   6.080 -0.0893  0.2571 -0.0000
  837POPE   C1A12465  18.873  10.220   6.429  0.0793 -0.2483 -0.0111
  837POPE   D2A12466  18.708   9.924   6.773 -0.0891  0.1636 -0.2878
  837POPE   C3A12467  18.956   9.969   7.084 -0.1480 -0.2546  0.2871
  837POPE   C4A12468  19.164   9.814   7.483  0.0574 -0.0024  0.4475
  837POPE   C1B12469  18.520  10.573   6.319  0.0888 -0.2950 -0.2983
  837POPE   C2B12470  18.399  10.817   6.706 -0.1606  0.2101 -0.1932
  837POPE   C3B12471  18.303  11.061   7.014  0.1246  0.1137 -0.3283
  837POPE   C4B12472  18.424  11.230   7.457  0.1433  0.0321 -0.1754
  838POPE   NH312473  15.112  13.003   5.680 -0.2156 -0.0157  0.0798
  838POPE   PO412474  15.285  12.655   5.513 -0.2120  0.3059 -0.0124
  838POPE   GL112475  15.292  12.377   5.939 -0.1225 -0.1017 -0.1142
  838POPE   GL212476  15.495  12.044   5.917  0.1877 -0.0747 -0.1703
  838POPE   C1A12477  15.218  12.530   6.301  0.1970 -0.2362 -0.3228
  838POPE   D2A12478  15.404  12.654   6.599  0.0707 -0.0758  0.0407
  838POPE   C3A12479  15.078  12.584   6.979 -0.2945 -0.1361  0.0766
  838POPE   C4A12480  14.959  12.260   7.226 -0.0003 -0.1090 -0.2759
  838POPE   C1B12481  15.345  12.062   6.349 -0.0700 -0.0302  0.1647
  838POPE   C2B12482  15.427  12.133   6.821 -0.1236  0.0955  0.1832
  838POPE   C3B12483  15.680  12.165   7.197 -0.0263 -0.2581 -0.0308
  838POPE   C4B12484  15.857  12.028   7.665  0.1742 -0.0389  0.2217
  839POPE   NH312485   9.517  14.088   5.867 -0.0533  0.3184  0.1619
  839POPE   PO412486   9.736  14.491   5.868  0.0324 -0.1266 -0.1296
  839POPE   GL112487   9.614  14.240   6.392 -0.0929  0.1174 -0.4494
  839POPE   GL212488   9.354  14.241   6.366 -0.0647 -0.0725 -0.2315
  839POPE   C1A12489   9.858  14.140   6.809 -0.0781 -0.0784 -0.3213
  839POPE   D2A12490   9.745  13.778   6.962  0.0103 -0.1140 -0.4719
  839POPE   C3A12491   9.763  13.833   7.413 -0.1216 -0.3120  0.0446
  839POPE   C4A12492   9.634  13.995   7.761 -0.0471 -0.3605  0.1360
  839POPE   C1B12493   9.391  14.041   6.773 -0.0685  0.1204 -0.0061
  839POPE   C2B12494   9.245  13.908   7.168 -0.1305  0.0976  0.0061
  839POPE   C3B12495   9.134  13.947   7.508 -0.2062  0.0806  0.1651
  839POPE   C4B12496   9.163  13.674   7.803  0.0378 -0.2653  0.1901
  840POPE   NH312497   6.593   2.035   5.357 -0.0360  0.2124  0.1584
  840POPE   PO412498   7.015   1.961   5.311 -0.1017 -0.0302  0.2060
  840POPE   GL112499   6.923   1.792   5.676 -0.3339  0.0281  0.1974
  840POPE   GL212500   6.665   1.935   5.858  0.0174  0.2336  0.2914
  840POPE   C1A12501   7.048   1.596   5.988  0.0432 -0.2251 -0.3801
  840POPE   D2A12502   6.846   1.702   6.386 -0.1923  0.1340  0.1895
  840POPE   C3A12503   6.453   1.834   6.671 -0.0515  0.1212 -0.0780
  840POPE   C4A12504   6.263   1.962   7.034  0.0175  0.0429  0.1219
  840POPE   C1B12505   6.493   2.062   6.142 -0.2750  0.1681 -0.0714
  840POPE   C2B12506   6.437   2.514   6.335  0.0847  0.0090  0.1748
  840POPE   C3B12507   6.204   2.835   6.361 -0.1463  0.1169 -0.1029
  840POPE   C4B12508   5.937   3.202   6.418 -0.1411  0.3248  0.2150
  841POPE   NH312509  14.753   5.761   5.807  0.1356  0.2738 -0.1740
  841POPE   PO412510  15.036   6.081   5.620 -0.0066 -0.1244 -0.0988
  841POPE   GL112511  15.110   6.059   6.080  0.2507  0.1132  0.1519
  841POPE   GL212512  15.204   5.833   6.149 -0.0305  0.0519  0.1142
  841POPE   C1A12513  15.034   6.224   6.481  0.1597 -0.2023  0.2482
  841POPE   D2A12514  14.860   6.154   6.907 -0.5291 -0.1731  0.1243
  841POPE   C3A12515  15.146   6.113   7.306  0.2697 -0.2401  0.1485
  841POPE   C4A12516  15.198   6.040   7.710  0.0117  0.0307  0.0782
  841POPE   C1B12517  15.106   5.762   6.541 -0.1073  0.2703  0.0550
  841POPE   C2B12518  15.157   5.708   6.969 -0.2674 -0.1040  0.0041
  841POPE   C3B12519  15.115   5.590   7.463  0.0971 -0.0681  0.2413
  841POPE   C4B12520  15.444   5.486   7.796 -0.0461  0.0076 -0.3907
  842POPE   NH312521  10.572   3.608   5.935 -0.3943  0.1152 -0.0764
  842POPE   PO412522  10.934   3.877   5.866  0.3202  0.0760 -0.4089
  842POPE   GL112523  10.730   4.003   6.198  0.0816 -0.0495 -0.1741
  842POPE   GL212524  10.468   3.939   6.319 -0.0272  0.0413 -0.2058
  842POPE   C1A12525  10.777   4.420   6.307 -0.1045  0.0985 -0.0582
  842POPE   D2A12526  10.976   4.765   6.437 -0.0492 -0.4431 -0.1756
  842POPE   C3A12527  10.826   4.946   6.920  0.2602  0.0224 -0.1673
  842POPE   C4A12528  10.676   4.704   7.273 -0.3460 -0.0093  0.2480
  842POPE   C1B12529  10.426   3.729   6.691  0.0509 -0.2164  0.0817
  842POPE   C2B12530  10.444   3.556   7.104 -0.1261 -0.0415  0.0389
  842POPE   C3B12531  10.519   3.623   7.526  0.0103  0.3940  0.1585
  842POPE   C4B12532  10.384   3.604   7.984 -0.2287  0.3305  0.2606
  843POPE   NH312533   3.360   0.506   5.470 -0.1679  0.0663 -0.0022
  843POPE   PO412534   3.470   0.085   5.804  0.1226 -0.2004  0.0413
  843POPE   GL112535   3.445  -0.193   6.183  0.3269  0.0683 -0.0317
  843POPE   GL212536   3.434  -0.529   6.273  0.0237 -0.1423  0.1804
  843POPE   C1A12537   3.251  -0.101   6.545 -0.2030 -0.2294  0.1155
  843POPE   D2A12538   3.363  -0.055   6.899 -0.0644 -0.0315 -0.1138
  843POPE   C3A12539   3.595  -0.357   7.134 -0.1171 -0.2547 -0.1272
  843POPE   C4A12540   3.799  -0.738   7.234 -0.0668 -0.0511  0.1304
  843POPE   C1B12541   3.618  -0.442   6.620  0.2840 -0.0736  0.0481
  843POPE   C2B12542   3.993  -0.516   6.813 -0.1897 -0.1762  0.0951
  843POPE   C3B12543   4.355  -0.654   7.113  0.0057  0.2808  0.2484
  843POPE   C4B12544   4.492  -0.763   7.503 -0.2814  0.2511  0.0004
  844POPE   NH312545  13.311  11.276   5.706 -0.2870 -0.3184  0.0988
  844POPE   PO412546  13.712  11.028   5.875  0.3868 -0.1905 -0.3298
  844POPE   GL112547  13.404  10.786   6.015 -0.0665  0.0413  0.3056
  844POPE   GL212548  13.563  10.561   6.074  0.3141  0.0052 -0.1460
  844POPE   C1A12549  13.317  10.868   6.506 -0.0817  0.0846 -0.3394
  844POPE   D2A12550  13.327  11.210   6.814 -0.0365  0.1877  0.4366
  844POPE   C3A12551  13.197  11.216   7.220  0.1602 -0.3844  0.1616
  844POPE   C4A12552  12.945  10.892   7.467 -0.0381  0.1749 -0.0867
  844POPE   C1B12553  13.806  10.634   6.475 -0.0789  0.1021  0.2201
  844POPE   C2B12554  13.918  10.583   6.853 -0.1275  0.1308 -0.2396
  844POPE   C3B12555  13.916  10.444   7.239 -0.0055  0.0539  0.0030
  844POPE   C4B12556  13.630  10.151   7.469  0.0711 -0.1840 -0.0428
  845POPE   NH312557  15.643  17.889   5.628 -0.2252 -0.0646  0.0388
  845POPE   PO412558  15.261  18.151   5.530  0.0686  0.0218  0.3487
  845POPE   GL112559  15.202  18.268   5.990  0.0810 -0.1447  0.1931
  845POPE   GL212560  15.486  18.195   6.039  0.0117 -0.0654 -0.0599
  845POPE   C1A12561  15.200  18.321   6.402 -0.2778 -0.1629  0.3928
  845POPE   D2A12562  14.986  18.360   6.798  0.1190 -0.3349 -0.0840
  845POPE   C3A12563  14.685  18.145   7.105  0.4327  0.1264  0.0200
  845POPE   C4A12564  14.707  17.917   7.523  0.0403  0.1047  0.1808
  845POPE   C1B12565  15.718  18.171   6.430 -0.1250  0.0313  0.1527
  845POPE   C2B12566  15.898  18.344   6.872  0.1261 -0.0352 -0.3606
  845POPE   C3B12567  15.737  18.543   7.225  0.1770 -0.1608 -0.0831
  845POPE   C4B12568  15.578  18.499   7.578 -0.2295 -0.1243 -0.0383
  846POPE   NH312569   6.156  17.449   5.063 -0.0003 -0.1889 -0.0368
  846POPE   PO412570   5.856  17.461   5.337 -0.0764 -0.1371 -0.2424
  846POPE   GL112571   5.901  17.210   5.661 -0.0019 -0.2486  0.3597
  846POPE   GL212572   6.008  16.894   5.721 -0.0342 -0.0210  0.1006
  846POPE   C1A12573   5.829  17.351   6.117 -0.2151 -0.1179 -0.0812
  846POPE   D2A12574   5.887  17.346   6.572  0.0968 -0.0288 -0.0775
  846POPE   C3A12575   5.872  17.036   6.918  0.3683  0.2871  0.0126
  846POPE   C4A12576   5.480  16.817   7.057  0.1934  0.1039  0.0114
  846POPE   C1B12577   6.097  16.815   6.107  0.2816  0.1302  0.0379
  846POPE   C2B12578   6.253  16.696   6.609 -0.2651  0.3509 -0.3236
  846POPE   C3B12579   6.378  16.365   6.902  0.0307  0.2725  0.4113
  846POPE   C4B12580   6.306  16.250   7.371  0.0723  0.1713 -0.0867
  847POPE   NH312581  16.941  12.863   5.435  0.0665 -0.2959 -0.3919
  847POPE   PO412582  16.535  12.725   5.526  0.1864 -0.0646  0.0277
  847POPE   GL112583  16.585  13.058   5.883  0.1277  0.1523 -0.0690
  847POPE   GL212584  16.895  13.080   5.887  0.2986 -0.4676  0.0360
  847POPE   C1A12585  16.652  13.265   6.331 -0.0691  0.1499 -0.2596
  847POPE   D2A12586  16.676  13.319   6.778  0.0885  0.1131  0.1916
  847POPE   C3A12587  16.709  13.721   6.948 -0.1726 -0.2379 -0.0833
  847POPE   C4A12588  16.703  13.961   7.349  0.4226 -0.1587  0.0848
  847POPE   C1B12589  17.155  13.273   6.165  0.2525  0.1670 -0.1918
  847POPE   C2B12590  17.153  13.205   6.579 -0.1332  0.0143 -0.0117
  847POPE   C3B12591  17.338  13.109   6.953  0.0571  0.1247 -0.0185
  847POPE   C4B12592  17.283  13.022   7.411  0.2266 -0.1496  0.3189
  848POPE   NH312593  10.776  16.388   5.558  0.1045 -0.0498 -0.0699
  848POPE   PO412594  10.838  16.084   5.207  0.0824 -0.4961 -0.1466
  848POPE   GL112595  10.973  15.920   5.620 -0.4079 -0.1232  0.1889
  848POPE   GL212596  10.815  15.580   5.721  0.2131  0.1007 -0.0313
  848POPE   C1A12597  11.177  15.927   6.038 -0.0083  0.1117 -0.0138
  848POPE   D2A12598  11.226  15.832   6.509 -0.0250 -0.1979  0.1122
  848POPE   C3A12599  11.283  15.986   7.022  0.1659 -0.1185  0.0132
  848POPE   C4A12600  11.321  16.245   7.343  0.0388 -0.0902  0.1382
  848POPE   C1B12601  10.763  15.639   6.121 -0.2305  0.1893  0.1427
  848POPE   C2B12602  10.711  15.862   6.509 -0.3493 -0.2953  0.0573
  848POPE   C3B12603  10.895  16.183   6.779  0.3440  0.0196 -0.2116
  848POPE   C4B12604  11.041  16.535   7.018 -0.3590  0.1406  0.0685
  849POPE   NH312605   9.224   0.526   5.735  0.2176  0.0468 -0.0843
  849POPE   PO412606   9.609   0.659   5.606  0.0298  0.0117  0.2026
  849POPE   GL112607   9.649   0.858   5.992  0.1629  0.1416  0.0387
  849POPE   GL212608   9.332   0.965   6.077  0.0850 -0.4314 -0.0624
  849POPE   C1A12609   9.640   0.785   6.396  0.2013 -0.0337 -0.0155
  849POPE   D2A12610   9.482   0.815   6.760  0.2379  0.0734 -0.1670
  849POPE   C3A12611   9.342   1.010   7.113 -0.1008  0.3784  0.2273
  849POPE   C4A12612   9.048   1.255   7.460  0.0011 -0.0928 -0.1177
  849POPE   C1B12613   9.136   0.979   6.381  0.0143 -0.1135 -0.1421
  849POPE   C2B12614   8.877   0.921   6.782  0.0566 -0.0207  0.1078
  849POPE   C3B12615   8.601   0.741   7.084 -0.0301 -0.1295  0.0272
  849POPE   C4B12616   8.486   0.385   7.130  0.0532  0.2131  0.0926
  850POPE   NH312617   9.501  16.439   5.800  0.0192  0.3249  0.0306
  850POPE   PO412618   9.047  16.687   5.672  0.1465  0.3797  0.0221
  850POPE   GL112619   9.038  16.691   6.201 -0.1392  0.1884 -0.0085
  850POPE   GL212620   9.241  16.904   6.237 -0.1825  0.1591 -0.2673
  850POPE   C1A12621   9.011  16.514   6.605 -0.3452  0.2288  0.0223
  850POPE   D2A12622   8.863  16.221   6.969  0.0344 -0.0813 -0.1847
  850POPE   C3A12623   8.824  15.762   6.932 -0.1852  0.1945 -0.1777
  850POPE   C4A12624   8.819  15.306   7.078  0.2192  0.1335 -0.0776
  850POPE   C1B12625   9.271  16.922   6.691  0.1149 -0.2470 -0.0913
  850POPE   C2B12626   9.189  17.092   7.025  0.0424  0.0401 -0.1987
  850POPE   C3B12627   9.361  17.197   7.279  0.1656 -0.2684 -0.0358
  850POPE   C4B12628   9.402  17.586   7.484  0.1209 -0.0650 -0.1737
  851YOPE   NH312629   8.498  15.133   5.758  0.0191  0.0007  0.3116
  851YOPE   PO412630   8.269  14.892   5.429  0.1194 -0.0821 -0.0506
  851YOPE   GL112631   8.122  14.844   5.935 -0.0112 -0.4957  0.0747
  851YOPE   GL212632   8.282  14.580   6.171  0.2105 -0.2889  0.1646
  851YOPE   C1A12633   7.971  14.935   6.315 -0.3272 -0.0477 -0.0735
  851YOPE   D2A12634   8.142  15.139   6.590 -0.2518 -0.0808 -0.2567
  851YOPE   C3A12635   7.898  15.199   6.956 -0.0911 -0.0074  0.3644
  851YOPE   C4A12636   7.771  15.049   7.379 -0.1446 -0.1703  0.2723
  851YOPE   C1B12637   8.110  14.512   6.624 -0.0067 -0.0719  0.1031
  851YOPE   C2B12638   7.991  14.641   7.091  0.1893 -0.2489  0.4137
  851YOPE   D3B12639   8.055  14.636   7.588  0.1277  0.1317 -0.3058
  851YOPE   C4B12640   7.969  14.956   7.900  0.1836  0.0969  0.1966
  852YOPE   NH312641  15.724  12.451   5.579  0.0072  0.0622 -0.0270
  852YOPE   PO412642  15.837  12.058   5.529 -0.0424  0.1284  0.0582
  852YOPE   GL112643  15.980  12.204   5.912  0.1225  0.0152 -0.1973
  852YOPE   GL212644  16.256  12.316   5.967 -0.1170 -0.0423 -0.1768
  852YOPE   C1A12645  15.861  11.985   6.329 -0.2440  0.2115  0.1841
  852YOPE   D2A12646  15.976  11.773   6.697 -0.0805 -0.2495 -0.0544
  852YOPE   C3A12647  16.068  11.739   7.153  0.2071  0.1067  0.1945
  852YOPE   C4A12648  16.146  11.539   7.552  0.0163 -0.1222 -0.4196
  852YOPE   C1B12649  16.565  12.350   6.431 -0.3115 -0.2690 -0.0573
  852YOPE   C2B12650  16.726  12.354   6.855  0.2418 -0.2312 -0.1879
  852YOPE   D3B12651  16.587  12.413   7.253  0.1917  0.3413  0.0903
  852YOPE   C4B12652  16.171  12.236   7.319  0.3778 -0.2774  0.0452
  853YOPE   NH312653  11.708   0.734   5.609 -0.0675  0.2557  0.2209
  853YOPE   PO412654  11.317   0.905   5.761 -0.2714 -0.1379  0.3048
  853YOPE   GL112655  11.525   0.989   6.033  0.1123 -0.0418 -0.1200
  853YOPE   GL212656  11.328   1.259   6.121 -0.0751 -0.1084 -0.2060
  853YOPE   C1A12657  11.778   1.152   6.346  0.0564 -0.0891  0.1310
  853YOPE   D2A12658  11.809   1.242   6.766  0.2446  0.1619  0.0798
  853YOPE   C3A12659  11.435   1.311   7.044  0.0189 -0.2946 -0.0568
  853YOPE   C4A12660  11.002   1.243   7.082 -0.0402  0.2643 -0.1548
  853YOPE   C1B12661  11.257   1.187   6.598 -0.0246 -0.1092 -0.1632
  853YOPE   C2B12662  11.088   0.831   6.788  0.0914 -0.1798 -0.0594
  853YOPE   D3B12663  11.167   0.581   7.020  0.1228  0.1041  0.0099
  853YOPE   C4B12664  11.191   0.230   7.171  0.0021 -0.0512 -0.2453
  854YOPE   NH312665   5.132   1.145   5.707  0.4914  0.2860  0.0567
  854YOPE   PO412666   4.799   1.338   5.506 -0.3986 -0.0206  0.1293
  854YOPE   GL112667   4.840   1.503   5.916  0.3189  0.3175 -0.0939
  854YOPE   GL212668   4.796   1.220   6.163 -0.1464  0.4817 -0.4701
  854YOPE   C1A12669   4.851   1.657   6.281  0.3302  0.0467 -0.0357
  854YOPE   D2A12670   4.951   1.618   6.752  0.0002  0.2384 -0.2517
  854YOPE   C3A12671   4.794   1.989   6.851  0.1750  0.1260 -0.0115
  854YOPE   C4A12672   4.828   2.429   6.737  0.1308 -0.2600  0.0743
  854YOPE   C1B12673   4.926   1.180   6.549  0.0783  0.1919  0.0026
  854YOPE   C2B12674   4.977   1.170   6.955  0.1517 -0.0368  0.0859
  854YOPE   D3B12675   4.805   1.391   7.280 -0.0826  0.0286  0.0743
  854YOPE   C4B12676   5.000   1.784   7.282  0.0194  0.1763  0.2174
  855YOPE   NH312677   1.474  16.044   5.659 -0.1447 -0.0682  0.0151
  855YOPE   PO412678   1.035  16.162   5.793 -0.4748 -0.1466 -0.1276
  855YOPE   GL112679   1.005  15.956   6.119 -0.0726 -0.0460 -0.2331
  855YOPE   GL212680   1.236  15.767   6.126 -0.4260 -0.0446  0.0987
  855YOPE   C1A12681   0.833  16.035   6.493  0.1125 -0.3960  0.2622
  855YOPE   D2A12682   0.918  16.350   6.805 -0.0358 -0.1169 -0.4750
  855YOPE   C3A12683   0.873  16.323   7.230 -0.2063  0.0834  0.4550
  855YOPE   C4A12684   0.745  16.287   7.720 -0.1499 -0.1507  0.2052
  855YOPE   C1B12685   1.185  15.703   6.582  0.2731  0.0042 -0.1204
  855YOPE   C2B12686   1.124  15.886   6.930 -0.1219 -0.1439 -0.1169
  855YOPE   D3B12687   1.381  16.204   7.217  0.0695  0.0186 -0.1340
  855YOPE   C4B12688   1.764  16.410   7.422 -0.1809  0.0278  0.0738
  856YOPE   NH312689   8.982  17.940   5.782  0.1823 -0.0953  0.2071
  856YOPE   PO412690   9.128  18.370   5.737 -0.0690 -0.0962 -0.0036
  856YOPE   GL112691   9.086  18.257   6.169 -0.0413  0.1293  0.0063
  856YOPE   GL212692   9.030  17.915   6.325  0.1829 -0.0954  0.2389
  856YOPE   C1A12693   9.142  18.309   6.611 -0.0530 -0.0954 -0.1296
  856YOPE   D2A12694   8.991  18.123   6.943  0.1933  0.3521 -0.2915
  856YOPE   C3A12695   8.812  18.207   7.325 -0.1042  0.2314 -0.0567
  856YOPE   C4A12696   8.486  18.216   7.653  0.0899 -0.1284 -0.1965
  856YOPE   C1B12697   8.797  17.887   6.606  0.3338  0.2392  0.1618
  856YOPE   C2B12698   8.519  17.888   6.926 -0.1319  0.0931  0.3850
  856YOPE   D3B12699   8.282  17.778   7.291  0.1739  0.1040 -0.3547
  856YOPE   C4B12700   8.154  17.887   7.784 -0.0124 -0.3625 -0.1347
  857YOPE   NH312701  10.095   5.598   5.575  0.0114  0.3959  0.0279
  857YOPE   PO412702  10.418   5.774   5.496  0.0341  0.1880  0.2292
  857YOPE   GL112703  10.465   5.834   5.933  0.1389  0.1738  0.1206
  857YOPE   GL212704  10.344   5.535   6.031  0.1178  0.1647  0.2434
  857YOPE   C1A12705  10.314   6.012   6.322 -0.0226  0.0430  0.0390
  857YOPE   D2A12706  10.060   5.919   6.574  0.1518  0.0995 -0.0263
  857YOPE   C3A12707   9.869   6.212   6.828  0.0369 -0.3289 -0.1881
  857YOPE   C4A12708   9.823   6.716   6.899 -0.1367  0.4462  0.0446
  857YOPE   C1B12709  10.246   5.421   6.413  0.0467 -0.0832 -0.2102
  857YOPE   C2B12710  10.283   5.206   6.769  0.0963 -0.1914  0.0886
  857YOPE   D3B12711  10.324   5.156   7.203 -0.0986  0.3151  0.0554
  857YOPE   C4B12712  10.207   5.045   7.718  0.2353 -0.2313 -0.1754
  858YOPE   NH312713   4.726  10.928   5.507  0.0296  0.3924  0.0216
  858YOPE   PO412714   4.434  11.232   5.481  0.0381  0.1754 -0.0044
  858YOPE   GL112715   4.275  11.114   5.894  0.0917 -0.0403 -0.0426
  858YOPE   GL212716   4.431  10.841   5.875  0.0010 -0.2543  0.1474
  858YOPE   C1A12717   3.937  11.039   6.080 -0.0005  0.0219 -0.1780
  858YOPE   D2A12718   3.581  11.173   6.275 -0.0235  0.3862  0.1727
  858YOPE   C3A12719   3.567  11.047   6.739  0.0130  0.2968 -0.1690
  858YOPE   C4A12720   3.906  11.129   6.986  0.1331  0.1394 -0.2237
  858YOPE   C1B12721   4.463  11.022   6.310  0.3442  0.2653  0.1409
  858YOPE   C2B12722   4.487  11.043   6.600  0.2951  0.1377 -0.3248
  858YOPE   D3B12723   4.413  11.478   6.806 -0.0138  0.0890  0.1599
  858YOPE   C4B12724   4.513  11.659   7.198 -0.1431 -0.3133 -0.0879
  859YOPE   NH312725   4.919   2.607   5.374  0.2384 -0.2933 -0.0789
  859YOPE   PO412726   4.613   2.588   5.557  0.0635  0.0129  0.0770
  859YOPE   GL112727   4.662   2.295   5.806  0.1882  0.1972  0.0653
  859YOPE   GL212728   4.601   2.459   6.110 -0.0944 -0.0302  0.1329
  859YOPE   C1A12729   4.459   1.949   6.200 -0.2435  0.1608 -0.1093
  859YOPE   D2A12730   4.054   1.909   6.302  0.0161 -0.1865  0.0787
  859YOPE   C3A12731   3.960   1.985   6.725 -0.0727 -0.1374 -0.3974
  859YOPE   C4A12732   3.571   2.264   6.964  0.1098 -0.1763 -0.3102
  859YOPE   C1B12733   4.272   2.359   6.507  0.0037  0.2028 -0.0310
  859YOPE   C2B12734   4.356   2.246   6.935  0.0843  0.2124  0.0126
  859YOPE   D3B12735   4.227   2.283   7.293 -0.2037  0.0080 -0.1402
  859YOPE   C4B12736   4.152   2.707   7.577 -0.0779 -0.1204 -0.2647
  860YOPE   NH312737   9.496  15.234   5.404  0.3503 -0.1576  0.0049
  860YOPE   PO412738   9.542  15.405   5.830  0.0499 -0.0213 -0.2243
  860YOPE   GL112739   9.526  15.170   6.260  0.3816 -0.1714 -0.0062
  860YOPE   GL212740   9.457  14.801   6.293 -0.1913 -0.2050  0.2432
  860YOPE   C1A12741   9.775  15.127   6.652  0.0979 -0.2214 -0.2082
  860YOPE   D2A12742   9.709  15.038   7.077  0.0405  0.3713  0.1531
  860YOPE   C3A12743   9.876  15.243   7.388 -0.0701 -0.0101 -0.2361
  860YOPE   C4A12744   9.956  15.333   7.809  0.1516 -0.0446 -0.1693
  860YOPE   C1B12745   9.587  14.599   6.764  0.2714 -0.0754  0.0586
  860YOPE   C2B12746   9.443  14.397   7.116  0.1067  0.1373 -0.2417
  860YOPE   D3B12747   9.400  14.410   7.573 -0.1110  0.2043 -0.0389
  860YOPE   C4B12748   9.561  14.446   8.029 -0.0513  0.1443  0.1921
  861YOPE   NH312749  14.583  13.575   5.373  0.0427 -0.0408  0.1501
  861YOPE   PO412750  14.439  13.185   5.302 -0.0914  0.1209 -0.2750
  861YOPE   GL112751  14.194  13.292   5.772 -0.2159 -0.1071  0.0960
  861YOPE   GL212752  14.409  13.202   6.072  0.3494 -0.2712 -0.0766
  861YOPE   C1A12753  13.938  13.601   6.017 -0.4518  0.1187 -0.1706
  861YOPE   D2A12754  13.448  13.788   6.118  0.1493 -0.0478  0.0523
  861YOPE   C3A12755  13.314  13.832   6.464  0.2150 -0.1941 -0.0942
  861YOPE   C4A12756  13.338  13.779   6.825  0.1395 -0.4046 -0.3180
  861YOPE   C1B12757  14.050  13.180   6.266  0.1826  0.0745 -0.1345
  861YOPE   C2B12758  13.955  13.119   6.631 -0.0670 -0.2485  0.0969
  861YOPE   D3B12759  13.754  12.911   7.009 -0.1923  0.1074  0.0213
  861YOPE   C4B12760  13.605  12.652   7.216  0.2336  0.2602  0.3732
  862YOPE   NH312761  15.167   7.712   5.752 -0.1975 -0.0542 -0.0976
  862YOPE   PO412762  15.513   7.391   6.022 -0.1295 -0.3046 -0.0694
  862YOPE   GL112763  15.598   7.232   6.362  0.2049 -0.1055  0.1203
  862YOPE   GL212764  15.361   6.986   6.374 -0.2006  0.0760  0.0965
  862YOPE   C1A12765  15.809   7.392   6.723 -0.0015  0.0892 -0.3289
  862YOPE   D2A12766  15.588   7.781   6.920  0.0345  0.1585  0.4413
  862YOPE   C3A12767  15.474   7.814   7.338 -0.1458  0.0468  0.3242
  862YOPE   C4A12768  15.628   7.952   7.618 -0.2924 -0.0700 -0.0408
  862YOPE   C1B12769  15.487   7.051   6.780  0.0601 -0.0654  0.1089
  862YOPE   C2B12770  15.422   7.031   7.149 -0.0294 -0.1886 -0.0258
  862YOPE   D3B12771  15.288   7.300   7.531 -0.1297  0.1083  0.4553
  862YOPE   C4B12772  15.237   7.592   7.847  0.0221  0.0040  0.0660
  863YOPE   NH312773   3.166   8.111   5.178 -0.0520 -0.0254  0.0564
  863YOPE   PO412774   3.411   7.722   5.314  0.2244 -0.3110 -0.0975
  863YOPE   GL112775   3.474   7.863   5.803 -0.4973  0.0050  0.2617
  863YOPE   GL212776   3.595   7.688   5.866 -0.2000  0.3365  0.1105
  863YOPE   C1A12777   3.291   7.958   6.198  0.3581  0.0315 -0.1763
  863YOPE   D2A12778   3.339   7.745   6.563  0.4040  0.0013  0.2455
  863YOPE   C3A12779   3.199   7.432   6.717  0.1107 -0.0496  0.1661
  863YOPE   C4A12780   3.037   6.960   6.653  0.0607  0.4126 -0.0131
  863YOPE   C1B12781   3.796   7.723   6.282 -0.1422 -0.1216  0.2700
  863YOPE   C2B12782   3.825   7.653   6.702 -0.1186 -0.0445  0.0592
  863YOPE   D3B12783   3.561   7.738   7.099  0.1216  0.2820 -0.2568
  863YOPE   C4B12784   3.371   7.976   7.468  0.0736 -0.1349 -0.1093
  864YOPE   NH312785  18.567  16.033   5.917  0.2798 -0.0821 -0.2879
  864YOPE   PO412786  18.845  15.841   5.657 -0.0907  0.0010  0.2056
  864YOPE   GL112787  18.931  15.728   6.124  0.3245 -0.0716 -0.1169
  864YOPE   GL212788  18.686  15.648   6.243 -0.0242  0.2173  0.2638
  864YOPE   C1A12789  19.133  15.971   6.518  0.1164  0.1188  0.0353
  864YOPE   D2A12790  19.402  16.089   6.912  0.1548 -0.0109 -0.1662
  864YOPE   C3A12791  19.207  16.297   7.255  0.0713  0.0857  0.0219
  864YOPE   C4A12792  19.056  16.125   7.650 -0.4171 -0.3556  0.1322
  864YOPE   C1B12793  18.607  15.760   6.692  0.1187 -0.3381 -0.0746
  864YOPE   C2B12794  18.393  15.963   6.959 -0.1440 -0.1613  0.2186
  864YOPE   D3B12795  18.219  16.155   7.194 -0.4173  0.2264 -0.1566
  864YOPE   C4B12796  18.048  16.242   7.606  0.3224  0.1996  0.0512
  865YOPE   NH312797   8.404   3.161   5.933 -0.1554  0.1542  0.2354
  865YOPE   PO412798   8.308   3.615   5.758  0.1209 -0.0381  0.1263
  865YOPE   GL112799   8.340   3.719   6.128 -0.0851  0.0948 -0.2044
  865YOPE   GL212800   8.257   3.435   6.349  0.3680 -0.1907  0.0486
  865YOPE   C1A12801   8.390   3.888   6.557  0.0199 -0.0731 -0.0020
  865YOPE   D2A12802   8.273   3.701   6.996  0.1260  0.0200  0.0696
  865YOPE   C3A12803   8.623   3.497   7.209  0.1011  0.0164  0.0087
  865YOPE   C4A12804   9.067   3.409   7.281 -0.0473 -0.3056 -0.3624
  865YOPE   C1B12805   7.978   3.573   6.546 -0.2350 -0.0233  0.1133
  865YOPE   C2B12806   7.895   3.400   6.923 -0.1068 -0.0755 -0.0624
  865YOPE   D3B12807   7.850   3.539   7.293  0.0500 -0.0586  0.0174
  865YOPE   C4B12808   7.801   3.867   7.693 -0.0041 -0.1122  0.1041
  866YOPE   NH312809   5.849  16.268   4.518  0.0866  0.0572  0.1909
  866YOPE   PO412810   5.903  16.458   5.036 -0.1784  0.3707  0.1838
  866YOPE   GL112811   6.114  16.496   5.453 -0.2679 -0.0863 -0.0683
  866YOPE   GL212812   6.364  16.796   5.306  0.3186 -0.0125 -0.1731
  866YOPE   C1A12813   6.038  16.385   5.837  0.2605 -0.0591 -0.0349
  866YOPE   D2A12814   6.028  16.317   6.334  0.1658 -0.2087  0.3423
  866YOPE   C3A12815   5.802  16.338   6.740 -0.1615 -0.2270  0.3449
  866YOPE   C4A12816   5.937  16.574   7.109 -0.1357  0.0026 -0.1486
  866YOPE   C1B12817   6.506  16.702   5.776  0.1379 -0.1811  0.0960
  866YOPE   C2B12818   6.488  16.490   6.100  0.1240  0.0768 -0.1816
  866YOPE   D3B12819   6.549  16.289   6.458  0.0412 -0.3156  0.1911
  866YOPE   C4B12820   6.782  16.018   6.744 -0.2343 -0.3354  0.1186
  867YOPE   NH312821   0.586   3.504   5.144 -0.1599 -0.2273  0.1809
  867YOPE   PO412822   0.459   3.344   5.595  0.0520  0.1073  0.2354
  867YOPE   GL112823   0.463   3.294   6.018  0.0498  0.1485 -0.0961
  867YOPE   GL212824   0.143   3.404   6.080 -0.1138 -0.0481 -0.0029
  867YOPE   C1A12825   0.616   3.096   6.357  0.0890 -0.1092  0.1938
  867YOPE   D2A12826   0.223   2.998   6.691 -0.2159 -0.0733 -0.3916
  867YOPE   C3A12827   0.197   3.056   7.135  0.3999  0.0851 -0.3907
  867YOPE   C4A12828   0.328   2.997   7.588  0.0355  0.0774  0.0894
  867YOPE   C1B12829   0.007   3.419   6.564 -0.0664  0.1170 -0.0227
  867YOPE   C2B12830  -0.195   3.608   6.973 -0.1723  0.1371 -0.0065
  867YOPE   D3B12831  -0.239   3.818   7.272 -0.2220 -0.0952  0.0524
  867YOPE   C4B12832  -0.060   3.917   7.655 -0.2847  0.1735  0.0862
  868YOPE   NH312833   6.868  14.070   5.567 -0.1774  0.3966  0.1223
  868YOPE   PO412834   6.631  13.787   5.814  0.1685  0.0630  0.0329
  868YOPE   GL112835   6.704  13.746   6.224  0.4552  0.1160 -0.0986
  868YOPE   GL212836   6.449  13.488   6.264  0.5055 -0.0170  0.0410
  868YOPE   C1A12837   6.928  13.537   6.471  0.0822 -0.0800 -0.1686
  868YOPE   D2A12838   6.981  13.550   6.914  0.2823 -0.3308 -0.0981
  868YOPE   C3A12839   7.016  13.775   7.215  0.1651 -0.1256  0.3086
  868YOPE   C4A12840   7.159  13.562   7.495  0.3680  0.0094 -0.2261
  868YOPE   C1B12841   6.421  13.652   6.744  0.4035  0.1309  0.2334
  868YOPE   C2B12842   6.425  13.708   7.056  0.3156  0.2448  0.1287
  868YOPE   D3B12843   6.577  13.668   7.404 -0.0604 -0.1846  0.0778
  868YOPE   C4B12844   6.829  13.935   7.619 -0.4332  0.1550 -0.1709
  869YOPE   NH312845   6.424   6.892   5.204  0.5408 -0.2062  0.3497
  869YOPE   PO412846   6.148   7.235   5.294  0.0055 -0.0359 -0.1047
  869YOPE   GL112847   6.248   7.369   5.807 -0.0930  0.0248  0.1298
  869YOPE   GL212848   5.973   7.509   5.818  0.1089  0.0126  0.0879
  869YOPE   C1A12849   6.375   7.343   6.189  0.2848 -0.1151 -0.0608
  869YOPE   D2A12850   6.374   7.359   6.668  0.2370  0.1587  0.0459
  869YOPE   C3A12851   5.971   7.286   6.828  0.2620 -0.0532  0.0409
  869YOPE   C4A12852   5.890   7.187   7.228 -0.1532 -0.1189 -0.0190
  869YOPE   C1B12853   5.982   7.938   6.009  0.1399 -0.0536 -0.0354
  869YOPE   C2B12854   6.017   8.232   6.256  0.0877 -0.1561 -0.4018
  869YOPE   D3B12855   6.336   8.529   6.442 -0.3129 -0.3104 -0.2700
  869YOPE   C4B12856   6.405   8.897   6.628  0.2263 -0.2957 -0.3825
  870YOPE   NH312857   0.991   9.504   5.645 -0.4572  0.0368 -0.3615
  870YOPE   PO412858   1.126   9.909   5.745 -0.0905 -0.2051 -0.0056
  870YOPE   GL112859   1.187   9.857   6.031 -0.2031  0.2234 -0.2849
  870YOPE   GL212860   1.084   9.609   6.136  0.0729 -0.0987  0.0913
  870YOPE   C1A12861   1.307  10.076   6.398  0.2738 -0.0078 -0.3920
  870YOPE   D2A12862   1.689  10.182   6.596 -0.0846 -0.1670  0.0017
  870YOPE   C3A12863   1.829  10.143   6.926  0.2203 -0.4748 -0.0595
  870YOPE   C4A12864   1.793  10.085   7.409 -0.1792  0.0621  0.3119
  870YOPE   C1B12865   1.135   9.565   6.564 -0.1124 -0.3508 -0.1620
  870YOPE   C2B12866   1.068   9.582   7.086  0.1356  0.3059 -0.0415
  870YOPE   D3B12867   0.884   9.492   7.480 -0.1507 -0.2074 -0.2574
  870YOPE   C4B12868   0.667   9.757   7.945 -0.1784 -0.1585  0.0231
  871YOPE   NH312869   6.456   5.503   5.022  0.2654  0.1034  0.0190
  871YOPE   PO412870   6.500   5.217   5.353 -0.0548 -0.0996 -0.0984
  871YOPE   GL112871   6.469   5.087   5.782 -0.1519 -0.1289 -0.2054
  871YOPE   GL212872   6.274   5.078   6.008  0.0941 -0.1309 -0.0241
  871YOPE   C1A12873   6.600   4.736   6.036 -0.1050  0.0070 -0.2690
  871YOPE   D2A12874   6.720   4.331   6.265 -0.1070 -0.2253 -0.1534
  871YOPE   C3A12875   6.736   4.342   6.595  0.3221  0.1809  0.2889
  871YOPE   C4A12876   6.548   4.589   6.842  0.1491  0.0513  0.0612
  871YOPE   C1B12877   6.447   4.981   6.467  0.1185  0.2115  0.2650
  871YOPE   C2B12878   6.551   5.192   6.846 -0.1102 -0.2411  0.1665
  871YOPE   D3B12879   6.755   5.454   7.238  0.1074 -0.2410 -0.0128
  871YOPE   C4B12880   7.081   5.737   7.361  0.0936 -0.3587 -0.1543
  872YOPE   NH312881   8.044   4.932   5.494  0.1126  0.2028  0.0071
  872YOPE   PO412882   8.118   4.540   5.617  0.0419  0.0539 -0.1119
  872YOPE   GL112883   8.398   4.674   5.925 -0.1149 -0.2312  0.0806
  872YOPE   GL212884   8.326   5.071   5.929 -0.0480  0.2344  0.3042
  872YOPE   C1A12885   8.326   4.758   6.398 -0.0842  0.2401  0.2453
  872YOPE   D2A12886   8.325   4.587   6.755  0.2820 -0.2923  0.1176
  872YOPE   C3A12887   7.993   4.681   7.096  0.1680  0.0339  0.1357
  872YOPE   C4A12888   7.674   4.776   7.430  0.1794 -0.0919 -0.0280
  872YOPE   C1B12889   8.325   5.287   6.407 -0.2510 -0.4684  0.1578
  872YOPE   C2B12890   8.284   5.539   6.821 -0.0531 -0.0568  0.3141
  872YOPE   D3B12891   8.225   5.555   7.259  0.2961 -0.2740 -0.0370
  872YOPE   C4B12892   8.034   5.170   7.346 -0.1294 -0.1291 -0.1020
  873YOPE   NH312893  15.236  10.347   5.478  0.3440  0.2536  0.0009
  873YOPE   PO412894  15.493  10.711   5.486 -0.2346 -0.0081  0.1824
  873YOPE   GL112895  15.725  10.640   5.871  0.0490  0.1553  0.1264
  873YOPE   GL212896  16.061  10.681   6.033  0.3435 -0.0071 -0.1595
  873YOPE   C1A12897  15.825  10.748   6.460 -0.1364  0.0132 -0.0692
  873YOPE   D2A12898  15.704  10.748   6.979  0.1161 -0.2560  0.1347
  873YOPE   C3A12899  15.381  11.107   7.130 -0.2556 -0.0159 -0.3454
  873YOPE   C4A12900  15.253  11.267   7.655 -0.0101 -0.1084 -0.2395
  873YOPE   C1B12901  16.188  10.432   6.330 -0.3260  0.0326 -0.0131
  873YOPE   C2B12902  16.489  10.313   6.549 -0.2771 -0.0457  0.0297
  873YOPE   D3B12903  16.785  10.113   6.612 -0.4534 -0.4125 -0.0473
  873YOPE   C4B12904  17.143  10.152   6.511  0.0469  0.0242 -0.0939
  874YOPE   NH312905   9.887   0.399   5.938 -0.2323  0.1725  0.0750
  874YOPE   PO412906   9.538   0.130   5.821 -0.4904  0.0797  0.0927
  874YOPE   GL112907   9.415   0.295   6.153 -0.4499  0.0316 -0.0725
  874YOPE   GL212908   9.235   0.531   6.256  0.1143 -0.1837 -0.0931
  874YOPE   C1A12909   9.628   0.338   6.630  0.0461 -0.0193  0.0538
  874YOPE   D2A12910   9.592   0.320   7.091  0.1362 -0.2183  0.1526
  874YOPE   C3A12911   9.715  -0.042   7.343  0.0147  0.2224 -0.2344
  874YOPE   C4A12912   9.998  -0.291   7.599  0.1538 -0.0667 -0.2625
  874YOPE   C1B12913   9.105   0.509   6.657  0.4179  0.1004 -0.0508
  874YOPE   C2B12914   9.158   0.483   7.075 -0.1900 -0.2051 -0.0684
  874YOPE   D3B12915   8.973   0.695   7.394 -0.0164  0.1886  0.3187
  874YOPE   C4B12916   8.566   0.766   7.585  0.0183  0.3784 -0.0538
  875YOPE   NH312917   0.589  11.525   5.943 -0.1306 -0.1760  0.0554
  875YOPE   PO412918   0.701  11.234   5.676 -0.3085 -0.1720  0.0309
  875YOPE   GL112919   0.683  11.015   6.095 -0.0277 -0.1835 -0.2304
  875YOPE   GL212920   0.461  10.850   6.113 -0.1967  0.1485 -0.0969
  875YOPE   C1A12921   0.751  10.935   6.475 -0.1587 -0.1772 -0.0949
  875YOPE   D2A12922   0.814  11.100   6.813 -0.0736 -0.0218 -0.1773
  875YOPE   C3A12923   0.844  10.773   7.110 -0.0007 -0.0177  0.0521
  875YOPE   C4A12924   0.777  10.666   7.510 -0.0883  0.0593  0.0324
  875YOPE   C1B12925   0.127  10.785   6.470 -0.0351  0.1522 -0.2179
  875YOPE   C2B12926   0.154  10.557   6.987  0.1539 -0.1323 -0.0421
  875YOPE   D3B12927  -0.235  10.505   7.017 -0.0410 -0.0924  0.1490
  875YOPE   C4B12928  -0.510  10.272   6.703 -0.0098 -0.3172  0.0814
  876YOPE   NH312929  15.935   7.304   5.777  0.1717  0.1666  0.2240
  876YOPE   PO412930  16.020   7.034   5.499  0.0703 -0.2675 -0.1973
  876YOPE   GL112931  16.102   6.838   5.886 -0.3122 -0.0165 -0.1858
  876YOPE   GL212932  15.911   6.866   6.187 -0.1928  0.1826 -0.0916
  876YOPE   C1A12933  16.402   6.484   6.023  0.0549  0.0450 -0.2185
  876YOPE   D2A12934  16.735   6.563   6.363 -0.0949  0.1499 -0.1120
  876YOPE   C3A12935  16.804   6.512   6.809  0.0396  0.2472  0.1075
  876YOPE   C4A12936  17.159   6.474   7.015  0.0069  0.0856 -0.2142
  876YOPE   C1B12937  15.998   6.914   6.693  0.1154 -0.0043  0.0244
  876YOPE   C2B12938  16.138   7.163   7.089  0.4041 -0.1925 -0.0572
  876YOPE   D3B12939  16.515   7.090   7.358  0.0195  0.1996 -0.3750
  876YOPE   C4B12940  16.580   6.833   7.746  0.1584 -0.1318  0.1753
  877YOPE   NH312941   2.370   9.071   5.829  0.0347 -0.1636  0.0249
  877YOPE   PO412942   2.394   9.184   5.414 -0.2627  0.1571 -0.1800
  877YOPE   GL112943   2.366   9.545   5.680 -0.0651  0.1257 -0.0217
  877YOPE   GL212944   2.025   9.496   5.824 -0.1611  0.2167 -0.2101
  877YOPE   C1A12945   2.412   9.627   6.145 -0.1297  0.2444 -0.0528
  877YOPE   D2A12946   2.531   9.444   6.513 -0.1340  0.0563 -0.0971
  877YOPE   C3A12947   2.552   9.233   6.798  0.2158 -0.0932 -0.0753
  877YOPE   C4A12948   2.574   8.815   6.903 -0.0345  0.2673 -0.2237
  877YOPE   C1B12949   1.973   9.376   6.320 -0.0319 -0.0248 -0.2628
  877YOPE   C2B12950   2.013   9.220   6.813 -0.1024 -0.0306  0.2067
  877YOPE   D3B12951   2.005   8.782   7.009 -0.0024 -0.0769 -0.1268
  877YOPE   C4B12952   1.908   8.566   7.451 -0.2002 -0.1127 -0.3534
  878YOPE   NH312953   4.563   7.014   5.692  0.3293 -0.1025 -0.1214
  878YOPE   PO412954   4.108   6.643   5.562  0.1043 -0.3161  0.3312
  878YOPE   GL112955   4.114   6.425   5.907 -0.1256 -0.3042 -0.1435
  878YOPE   GL212956   3.862   6.559   6.107 -0.0808  0.0139 -0.0814
  878YOPE   C1A12957   4.176   6.079   6.211 -0.2879 -0.1012  0.0933
  878YOPE   D2A12958   3.927   6.087   6.617 -0.1937 -0.1785  0.1260
  878YOPE   C3A12959   4.015   6.273   6.933 -0.0010  0.2231  0.2099
  878YOPE   C4A12960   4.169   6.463   7.337 -0.0559  0.0119 -0.1161
  878YOPE   C1B12961   3.998   6.642   6.530  0.1548 -0.1368  0.3052
  878YOPE   C2B12962   3.839   6.772   6.956 -0.0350  0.1754  0.6747
  878YOPE   D3B12963   3.494   6.929   7.253 -0.2056 -0.3775 -0.1171
  878YOPE   C4B12964   3.306   6.639   7.433  0.1393  0.1714 -0.1552
  879YOPE   NH312965  14.445  12.833   5.691  0.1395 -0.2335 -0.0641
  879YOPE   PO412966  14.011  12.851   5.622 -0.1027 -0.2817  0.0111
  879YOPE   GL112967  13.918  12.674   6.005  0.3507 -0.4065 -0.0175
  879YOPE   GL212968  13.910  12.404   5.939  0.3501  0.1134 -0.1192
  879YOPE   C1A12969  13.785  12.716   6.452  0.2032  0.1710 -0.0830
  879YOPE   D2A12970  13.418  12.620   6.734 -0.0891  0.1320  0.0849
  879YOPE   C3A12971  13.134  12.691   6.981 -0.2305 -0.0164  0.4938
  879YOPE   C4A12972  13.180  12.399   7.314  0.3252  0.1243 -0.2337
  879YOPE   C1B12973  13.708  12.200   6.307  0.1432  0.0117 -0.0200
  879YOPE   C2B12974  13.639  12.210   6.683  0.3094 -0.2035  0.1655
  879YOPE   D3B12975  13.634  12.144   7.161  0.0976  0.1363  0.3421
  879YOPE   C4B12976  13.485  11.951   7.409 -0.2084  0.0127  0.0443
  880YOPE   NH312977   7.114   9.540   5.317  0.1528  0.0267  0.1305
  880YOPE   PO412978   6.711   9.799   5.170  0.1159  0.1542  0.1250
  880YOPE   GL112979   6.518   9.705   5.569  0.0575  0.1133 -0.3680
  880YOPE   GL212980   6.792   9.592   5.692  0.6171  0.2061 -0.2964
  880YOPE   C1A12981   6.351   9.445   5.856  0.1452  0.1259 -0.0162
  880YOPE   D2A12982   6.084   9.205   6.151  0.1234 -0.0204 -0.1102
  880YOPE   C3A12983   5.655   9.219   6.227 -0.0480 -0.5167  0.1360
  880YOPE   C4A12984   5.364   9.335   6.090 -0.3898  0.1861 -0.2773
  880YOPE   C1B12985   6.797   9.191   5.851  0.0030 -0.0983 -0.2488
  880YOPE   C2B12986   6.794   8.757   5.755  0.0430  0.1170  0.2482
  880YOPE   D3B12987   7.002   8.404   5.845  0.0657 -0.2668  0.2038
  880YOPE   C4B12988   7.420   8.359   5.950  0.0485 -0.0271  0.0759
  881YOPE   NH312989   4.545  18.395   5.533  0.0803  0.0004 -0.2238
  881YOPE   PO412990   4.184  18.208   5.532 -0.0124 -0.2891  0.2290
  881YOPE   GL112991   4.125  18.274   5.880  0.1513 -0.2688  0.0921
  881YOPE   GL212992   3.815  18.449   5.975  0.0166  0.1631  0.2878
  881YOPE   C1A12993   4.114  18.089   6.310 -0.0605  0.1739  0.0741
  881YOPE   D2A12994   4.240  17.826   6.643 -0.3123 -0.2375 -0.3092
  881YOPE   C3A12995   4.616  17.868   6.897 -0.5273 -0.3999 -0.1440
  881YOPE   C4A12996   4.783  17.833   7.195 -0.0042 -0.0305 -0.1987
  881YOPE   C1B12997   4.018  18.632   6.288  0.1383 -0.2906  0.0552
  881YOPE   C2B12998   4.296  18.742   6.667  0.1167 -0.1161 -0.3585
  881YOPE   D3B12999   4.434  18.728   7.023  0.0871 -0.2415  0.2422
  881YOPE   C4B13000   4.390  18.633   7.370 -0.1749 -0.0192 -0.2726
  882YOPE   NH313001   1.482   4.026   5.545 -0.0818  0.1758 -0.0925
  882YOPE   PO413002   1.760   3.767   5.733  0.0263 -0.2838 -0.0173
  882YOPE   GL113003   2.002   3.766   6.103  0.0426  0.1111 -0.0594
  882YOPE   GL213004   1.748   3.580   6.219 -0.3744  0.3155 -0.0429
  882YOPE   C1A13005   2.060   4.046   6.543 -0.2234 -0.1492 -0.0898
  882YOPE   D2A13006   1.953   4.074   6.890 -0.0469  0.0020 -0.4348
  882YOPE   C3A13007   2.018   4.401   7.136  0.0116 -0.3817 -0.1562
  882YOPE   C4A13008   2.292   4.634   7.395  0.5559  0.0951 -0.0235
  882YOPE   C1B13009   1.773   3.670   6.727 -0.0975 -0.0225 -0.2485
  882YOPE   C2B13010   1.681   3.383   7.115 -0.1502  0.0736 -0.0002
  882YOPE   D3B13011   1.233   3.527   7.282 -0.0144 -0.2270 -0.0161
  882YOPE   C4B13012   0.912   3.706   7.097  0.0343 -0.0983  0.0829
  883YOPE   NH313013  18.269  15.614   5.949  0.0524  0.1962 -0.0226
  883YOPE   PO413014  18.085  16.052   5.896 -0.0991 -0.0641 -0.1246
  883YOPE   GL113015  17.809  15.744   6.158  0.1563  0.0133 -0.1543
  883YOPE   GL213016  17.741  16.090   6.243 -0.0169  0.4076  0.0487
  883YOPE   C1A13017  17.654  15.650   6.520  0.2422  0.0666 -0.2435
  883YOPE   D2A13018  17.528  15.699   6.996  0.3657  0.0495  0.0083
  883YOPE   C3A13019  17.817  15.785   7.265 -0.1644 -0.2746 -0.0407
  883YOPE   C4A13020  18.168  15.724   7.472  0.1046  0.0215 -0.3418
  883YOPE   C1B13021  18.018  16.406   6.474 -0.3292 -0.0459 -0.2874
  883YOPE   C2B13022  18.062  16.497   6.826  0.4102 -0.1525 -0.0836
  883YOPE   D3B13023  18.353  16.794   7.123  0.0278  0.2433  0.4904
  883YOPE   C4B13024  18.528  16.842   7.462  0.1507  0.2173 -0.2072
  884YOPE   NH313025   1.107  14.232   5.526 -0.0066  0.1457 -0.0888
  884YOPE   PO413026   1.562  14.122   5.573 -0.3436  0.0413  0.0220
  884YOPE   GL113027   1.574  13.881   5.888 -0.0525 -0.2444  0.1560
  884YOPE   GL213028   1.888  13.590   5.960 -0.1146 -0.1510 -0.2815
  884YOPE   C1A13029   1.587  13.889   6.328  0.3198 -0.3948 -0.0264
  884YOPE   D2A13030   1.459  13.731   6.701  0.0932 -0.0228  0.1480
  884YOPE   C3A13031   1.765  13.737   6.936 -0.1397  0.0376 -0.0197
  884YOPE   C4A13032   1.908  13.397   7.189  0.2471 -0.0084  0.3337
  884YOPE   C1B13033   1.825  13.445   6.439 -0.2398  0.1353  0.1919
  884YOPE   C2B13034   2.121  13.391   6.728 -0.2070  0.0291  0.0786
  884YOPE   D3B13035   2.342  13.534   7.022 -0.3762  0.0689 -0.2479
  884YOPE   C4B13036   2.164  13.861   7.235 -0.0208  0.1316 -0.2757
  885YOPE   NH313037   4.981   4.599   5.537  0.0520  0.0169 -0.1104
  885YOPE   PO413038   4.647   4.892   5.638 -0.0329 -0.2465 -0.1978
  885YOPE   GL113039   4.878   5.007   5.912 -0.3965 -0.1481  0.0358
  885YOPE   GL213040   5.214   5.026   5.848  0.2726 -0.1523  0.0308
  885YOPE   C1A13041   4.872   5.274   6.365  0.0700  0.0364 -0.2021
  885YOPE   D2A13042   4.883   5.556   6.708 -0.0419 -0.2668  0.0941
  885YOPE   C3A13043   4.952   5.527   6.958 -0.1313  0.1365 -0.3553
  885YOPE   C4A13044   5.030   5.393   7.406  0.2102 -0.0599 -0.0035
  885YOPE   C1B13045   5.390   4.915   6.267 -0.0721  0.2952 -0.0254
  885YOPE   C2B13046   5.307   4.938   6.634 -0.1862  0.1685  0.1290
  885YOPE   D3B13047   5.243   4.710   6.949 -0.2666  0.0218  0.0663
  885YOPE   C4B13048   5.532   4.479   7.344  0.2560 -0.1817  0.2381
  886YOPE   NH313049  18.177   4.007   5.505 -0.1122  0.1221  0.0651
  886YOPE   PO413050  17.763   4.025   5.543  0.4424  0.0172  0.2199
  886YOPE   GL113051  17.690   4.267   5.899  0.0207  0.2567 -0.2346
  886YOPE   GL213052  17.553   4.210   6.064  0.0359  0.2814  0.1324
  886YOPE   C1A13053  17.864   4.612   6.218 -0.0501  0.1087 -0.0005
  886YOPE   D2A13054  17.998   5.008   6.318  0.0075  0.1965 -0.2954
  886YOPE   C3A13055  18.352   5.138   6.472  0.0368 -0.2170  0.1618
  886YOPE   C4A13056  18.578   5.244   6.852  0.2536  0.3934 -0.1690
  886YOPE   C1B13057  17.624   4.283   6.506  0.0536 -0.0128  0.0770
  886YOPE   C2B13058  17.660   4.258   6.918  0.2114  0.1414 -0.1837
  886YOPE   D3B13059  17.601   3.991   7.265 -0.4426 -0.0588  0.0414
  886YOPE   C4B13060  17.641   4.062   7.674 -0.0428 -0.2347  0.2467
  887YOPE   NH313061   5.062   8.640   5.235  0.1555  0.1848  0.1094
  887YOPE   PO413062   5.053   8.230   5.470 -0.1063  0.3219 -0.1085
  887YOPE   GL113063   4.923   8.277   5.875  0.2849  0.1728  0.0400
  887YOPE   GL213064   4.652   8.099   5.983 -0.0107 -0.0262 -0.0910
  887YOPE   C1A13065   4.876   8.497   6.299  0.3167 -0.1429 -0.3692
  887YOPE   D2A13066   4.732   8.501   6.697 -0.1659  0.0622 -0.1150
  887YOPE   C3A13067   4.358   8.394   6.849 -0.2348 -0.0236 -0.2663
  887YOPE   C4A13068   4.129   8.491   7.281 -0.0912 -0.2748  0.5368
  887YOPE   C1B13069   4.620   8.109   6.438 -0.3818 -0.0032 -0.2611
  887YOPE   C2B13070   4.529   7.944   6.892  0.1563  0.3058 -0.2552
  887YOPE   D3B13071   4.065   8.042   7.012 -0.1037  0.0805  0.0818
  887YOPE   C4B13072   3.756   8.204   7.166  0.3305 -0.0977 -0.1596
  888YOPE   NH313073   2.842  13.526   5.955  0.0305 -0.1444  0.2781
  888YOPE   PO413074   2.518  13.238   5.838  0.0650 -0.1694 -0.1736
  888YOPE   GL113075   2.475  12.980   6.143  0.3222  0.4535  0.0304
  888YOPE   GL213076   2.595  13.007   6.440  0.0629  0.3643  0.0000
  888YOPE   C1A13077   2.040  12.994   6.376 -0.1205  0.1759 -0.1830
  888YOPE   D2A13078   1.908  12.950   6.831  0.0910  0.1514 -0.0254
  888YOPE   C3A13079   2.154  12.910   7.105 -0.0749  0.1187  0.1053
  888YOPE   C4A13080   2.050  12.981   7.523  0.0919  0.1505  0.1332
  888YOPE   C1B13081   2.684  13.083   6.876  0.1153 -0.1218  0.1475
  888YOPE   C2B13082   3.103  13.225   6.961  0.2942 -0.1967 -0.1795
  888YOPE   D3B13083   3.369  13.271   7.388  0.1636 -0.0995 -0.0065
  888YOPE   C4B13084   3.821  13.290   7.479  0.0835  0.1418  0.3337
  889YOPE   NH313085   7.879   3.570   5.504  0.0232 -0.2485  0.1990
  889YOPE   PO413086   7.653   3.185   5.447 -0.1871 -0.2949 -0.0875
  889YOPE   GL113087   7.579   3.002   5.894 -0.0173  0.0951  0.1105
  889YOPE   GL213088   7.589   2.711   6.088 -0.2644  0.1082 -0.4339
  889YOPE   C1A13089   7.142   3.122   6.122  0.2113 -0.1952  0.0558
  889YOPE   D2A13090   6.940   3.407   6.475  0.3267 -0.1004  0.4502
  889YOPE   C3A13091   6.917   3.328   6.972 -0.2184 -0.2133  0.0377
  889YOPE   C4A13092   7.151   3.728   7.115  0.0054  0.0824  0.1253
  889YOPE   C1B13093   7.484   2.558   6.525  0.1617  0.1248 -0.1754
  889YOPE   C2B13094   7.338   2.515   6.872  0.1826 -0.0756 -0.1092
  889YOPE   D3B13095   7.079   2.400   7.176 -0.3954  0.1766 -0.1195
  889YOPE   C4B13096   6.569   2.255   7.301  0.0319 -0.0497 -0.0284
  890YOPE   NH313097  17.556   6.422   5.113 -0.0002 -0.0713  0.0432
  890YOPE   PO413098  17.784   6.289   5.398 -0.0103 -0.1059 -0.0350
  890YOPE   GL113099  17.685   6.164   5.761  0.0721 -0.0029  0.0579
  890YOPE   GL213100  18.001   6.193   5.926  0.1483  0.0470  0.1868
  890YOPE   C1A13101  17.735   5.831   6.120  0.1538 -0.2220 -0.1186
  890YOPE   D2A13102  17.801   5.450   6.366 -0.0979 -0.1143  0.1720
  890YOPE   C3A13103  17.551   5.326   6.671  0.0948  0.0816  0.2027
  890YOPE   C4A13104  17.254   5.267   7.138  0.2261 -0.0095 -0.0743
  890YOPE   C1B13105  18.075   6.148   6.309 -0.0713 -0.0405  0.0878
  890YOPE   C2B13106  18.206   6.487   6.579 -0.0221  0.1840 -0.1334
  890YOPE   D3B13107  17.994   6.737   6.849  0.1464 -0.0397  0.2625
  890YOPE   C4B13108  18.168   6.879   7.406  0.2585  0.0046  0.2202
  891YOPE   NH313109  11.816   7.996   5.332  0.2593 -0.1093 -0.0563
  891YOPE   PO413110  11.524   8.220   5.594 -0.3388 -0.1702  0.0484
  891YOPE   GL113111  11.713   8.323   5.977 -0.3001 -0.0558 -0.2669
  891YOPE   GL213112  11.787   8.647   5.993 -0.1762  0.3316  0.1913
  891YOPE   C1A13113  11.771   8.247   6.383  0.1506  0.2016  0.0106
  891YOPE   D2A13114  11.889   8.437   6.719 -0.0170  0.1220 -0.2526
  891YOPE   C3A13115  11.954   8.469   7.181  0.2130  0.3125  0.1845
  891YOPE   C4A13116  11.808   8.526   7.564  0.2939 -0.3082 -0.0500
  891YOPE   C1B13117  11.880   8.911   6.378  0.4169 -0.0437  0.2198
  891YOPE   C2B13118  12.060   8.989   6.731 -0.0410 -0.3164  0.3744
  891YOPE   D3B13119  12.370   9.079   7.093  0.0088  0.2372  0.1805
  891YOPE   C4B13120  12.692   9.008   7.471 -0.0153  0.0542 -0.1287
  892YOPE   NH313121   8.238  10.187   5.365  0.0466 -0.1978 -0.0407
  892YOPE   PO413122   7.800  10.504   5.602  0.1157  0.2717  0.2526
  892YOPE   GL113123   7.817  10.608   6.035 -0.2041 -0.0938 -0.0699
  892YOPE   GL213124   7.986  10.380   6.058 -0.0436 -0.0297 -0.0025
  892YOPE   C1A13125   8.133  10.762   6.366 -0.1423  0.0747  0.0974
  892YOPE   D2A13126   8.373  10.546   6.605  0.3841 -0.0095 -0.0028
  892YOPE   C3A13127   8.373  10.611   7.029 -0.0500 -0.1765  0.2952
  892YOPE   C4A13128   8.125  10.703   7.426 -0.6510  0.2397 -0.0822
  892YOPE   C1B13129   7.716  10.165   6.340  0.2332 -0.0647 -0.0863
  892YOPE   C2B13130   7.565  10.207   6.772  0.0963 -0.0171  0.1538
  892YOPE   D3B13131   7.502  10.078   7.080 -0.0914 -0.1656 -0.1288
  892YOPE   C4B13132   7.449   9.768   7.341  0.1839  0.0588 -0.3958
  893YOPE   NH313133   9.370   4.113   5.588 -0.1227  0.0482 -0.0681
  893YOPE   PO413134   8.935   4.300   5.793  0.1192  0.0226  0.0907
  893YOPE   GL113135   8.807   4.331   6.233  0.1186 -0.1644 -0.1553
  893YOPE   GL213136   8.545   4.360   6.272  0.0757 -0.2558 -0.1320
  893YOPE   C1A13137   8.989   4.647   6.456 -0.1034  0.1578 -0.3306
  893YOPE   D2A13138   8.884   4.730   6.834 -0.2956  0.1595 -0.0717
  893YOPE   C3A13139   8.513   4.589   7.205  0.3881  0.1181 -0.1829
  893YOPE   C4A13140   8.517   4.697   7.644 -0.2396 -0.2467  0.0257
  893YOPE   C1B13141   8.752   4.261   6.736 -0.0207 -0.3651 -0.1905
  893YOPE   C2B13142   8.678   4.018   7.084  0.2238 -0.0190 -0.0099
  893YOPE   D3B13143   8.349   3.923   7.439 -0.1115 -0.0002 -0.1386
  893YOPE   C4B13144   8.089   4.287   7.513 -0.1185  0.2772  0.2790
  894YOPE   NH313145  11.192  11.138   5.490 -0.1107 -0.1395 -0.0934
  894YOPE   PO413146  10.854  11.439   5.604 -0.3316  0.0850  0.1708
  894YOPE   GL113147  10.958  11.549   6.003  0.1417 -0.0353  0.2651
  894YOPE   GL213148  10.877  11.851   6.120 -0.2555  0.3415 -0.2627
  894YOPE   C1A13149  10.991  11.276   6.394 -0.2136  0.2962  0.0888
  894YOPE   D2A13150  11.268  11.086   6.736 -0.2971  0.0381  0.0853
  894YOPE   C3A13151  11.483  10.653   6.657  0.0513 -0.4336  0.0356
  894YOPE   C4A13152  11.376  10.255   6.410  0.0571  0.1327  0.0368
  894YOPE   C1B13153  10.795  11.757   6.588  0.0774 -0.2724  0.1372
  894YOPE   C2B13154  10.727  11.590   6.936 -0.1479 -0.2371 -0.2201
  894YOPE   D3B13155  10.455  11.417   7.150 -0.1660 -0.0191 -0.2906
  894YOPE   C4B13156  10.476  11.650   7.539  0.1993 -0.0487 -0.0296
  895YOPE   NH313157  18.605  17.505   5.913 -0.3709 -0.1119 -0.1878
  895YOPE   PO413158  18.339  17.851   5.987  0.1034 -0.1859 -0.1698
  895YOPE   GL113159  18.694  17.878   6.291 -0.0757 -0.1149 -0.0466
  895YOPE   GL213160  19.111  17.899   6.291 -0.0216  0.0155 -0.3349
  895YOPE   C1A13161  18.906  18.100   6.691 -0.1678  0.2375 -0.0636
  895YOPE   D2A13162  19.219  18.062   6.929  0.0327  0.0078  0.1786
  895YOPE   C3A13163  19.265  18.263   7.393 -0.1244 -0.2304  0.2409
  895YOPE   C4A13164  19.542  18.210   7.762  0.1625 -0.1178  0.1994
  895YOPE   C1B13165  19.437  18.083   6.426  0.0654 -0.2744 -0.0443
  895YOPE   C2B13166  19.585  18.340   6.775 -0.0418  0.2330 -0.1763
  895YOPE   D3B13167  19.547  18.515   7.094  0.1130 -0.2078 -0.0961
  895YOPE   C4B13168  19.832  18.623   7.473 -0.1499  0.1522 -0.1306
  896YOPE   NH313169  15.371  15.442   5.476  0.1023 -0.0038 -0.0977
  896YOPE   PO413170  14.950  15.152   5.429 -0.2725 -0.1717  0.2806
  896YOPE   GL113171  14.956  14.948   5.694 -0.0832  0.0192 -0.1693
  896YOPE   GL213172  15.148  15.223   5.867 -0.0231 -0.0205  0.3912
  896YOPE   C1A13173  14.931  14.704   6.005 -0.0265  0.0434 -0.2066
  896YOPE   D2A13174  14.956  14.582   6.518 -0.1066 -0.0210 -0.2175
  896YOPE   C3A13175  14.744  14.539   6.898  0.3013 -0.1925  0.2722
  896YOPE   C4A13176  14.386  14.435   6.992 -0.0977 -0.0524  0.0793
  896YOPE   C1B13177  15.115  15.541   6.229 -0.3780  0.0011  0.0653
  896YOPE   C2B13178  15.235  15.504   6.669  0.1375 -0.0285 -0.1484
  896YOPE   D3B13179  15.193  15.581   7.128 -0.1123 -0.1768 -0.1988
  896YOPE   C4B13180  15.110  15.528   7.567  0.1982 -0.0574 -0.1038
  897YOPE   NH313181   4.973  16.684   5.356  0.0615  0.1451 -0.1056
  897YOPE   PO413182   4.635  16.449   5.540  0.1263  0.2608  0.2014
  897YOPE   GL113183   4.739  16.169   5.812 -0.2875  0.0586 -0.1198
  897YOPE   GL213184   5.003  16.071   5.622 -0.3873 -0.4845  0.0739
  897YOPE   C1A13185   4.858  16.186   6.149  0.1550  0.0292  0.4976
  897YOPE   D2A13186   5.101  16.028   6.474 -0.0362 -0.0791 -0.2043
  897YOPE   C3A13187   5.074  15.948   6.905 -0.0461  0.2874  0.1690
  897YOPE   C4A13188   4.960  15.835   7.316 -0.0219 -0.1434  0.1316
  897YOPE   C1B13189   5.403  16.207   5.917 -0.1214 -0.0204 -0.0801
  897YOPE   C2B13190   5.650  16.533   6.158 -0.0757 -0.0221  0.0387
  897YOPE   D3B13191   5.707  16.864   6.486  0.1348  0.2421 -0.2046
  897YOPE   C4B13192   5.417  17.112   6.646 -0.1853 -0.2861 -0.0415
  898YOPE   NH313193  18.227   8.630   5.405 -0.2850  0.1611  0.2494
  898YOPE   PO413194  18.516   8.827   5.618  0.1640  0.2275  0.0818
  898YOPE   GL113195  18.397   8.972   6.009 -0.0751 -0.2407 -0.2087
  898YOPE   GL213196  18.530   8.932   6.230 -0.0984 -0.0849  0.1793
  898YOPE   C1A13197  18.333   9.393   6.147  0.2654  0.1701  0.0493
  898YOPE   D2A13198  18.638   9.712   6.071  0.2225  0.2537  0.2463
  898YOPE   C3A13199  19.110   9.800   6.210  0.0006  0.1182 -0.0225
  898YOPE   C4A13200  19.255   9.935   6.651 -0.3954  0.1041 -0.1772
  898YOPE   C1B13201  18.658   8.501   6.414  0.1645 -0.0288  0.0769
  898YOPE   C2B13202  18.529   8.279   6.812 -0.0432 -0.2634  0.2330
  898YOPE   D3B13203  18.543   8.488   7.106  0.1150 -0.1270  0.0504
  898YOPE   C4B13204  18.887   8.309   7.376  0.0567 -0.1476 -0.3123
  899YOPE   NH313205   8.690  12.222   5.458 -0.0964  0.0340  0.0666
  899YOPE   PO413206   8.864  11.848   5.465  0.1104  0.2044  0.1729
  899YOPE   GL113207   9.127  11.871   5.781 -0.0257 -0.0351 -0.4091
  899YOPE   GL213208   9.087  11.564   5.916 -0.0195 -0.1253 -0.0016
  899YOPE   C1A13209   9.072  11.980   6.288  0.0476  0.3114  0.0062
  899YOPE   D2A13210   9.065  12.182   6.660  0.0409  0.0668  0.3932
  899YOPE   C3A13211   9.134  11.816   6.956  0.3896 -0.0560 -0.3636
  899YOPE   C4A13212   9.206  11.389   7.006  0.1008 -0.0677  0.0614
  899YOPE   C1B13213   9.407  11.464   6.189  0.1152 -0.0687  0.2392
  899YOPE   C2B13214   9.512  11.500   6.609 -0.1252 -0.1417  0.2553
  899YOPE   D3B13215   9.745  11.376   7.049 -0.1948  0.4382 -0.2842
  899YOPE   C4B13216  10.051  11.231   7.274 -0.2269 -0.0892 -0.1194
  900YOPE   NH313217  16.139   8.948   5.913 -0.1111 -0.1046  0.2900
  900YOPE   PO413218  16.210   9.384   5.819  0.2590 -0.1027  0.0558
  900YOPE   GL113219  16.324   9.686   6.054  0.1629  0.0697 -0.2693
  900YOPE   GL213220  16.487   9.960   6.154 -0.1006  0.2329  0.3394
  900YOPE   C1A13221  16.070   9.903   6.383 -0.0893  0.1250  0.1308
  900YOPE   D2A13222  15.813  10.332   6.649 -0.1869 -0.0146 -0.0591
  900YOPE   C3A13223  15.712  10.253   7.058 -0.0014  0.1429 -0.0058
  900YOPE   C4A13224  15.944   9.947   7.346  0.0321  0.2210 -0.1064
  900YOPE   C1B13225  16.510   9.717   6.532  0.0612  0.0807 -0.4166
  900YOPE   C2B13226  16.548   9.694   7.022  0.2667  0.3175 -0.2902
  900YOPE   D3B13227  16.567   9.546   7.508  0.3063 -0.3256  0.2788
  900YOPE   C4B13228  16.570   9.355   7.893  0.0946  0.0290  0.0070
  901YOPE   NH313229  14.792  10.975   5.695 -0.0893 -0.0055  0.0144
  901YOPE   PO413230  14.861  10.564   5.322 -0.3503 -0.4405 -0.0538
  901YOPE   GL113231  14.681  10.391   5.676 -0.0703 -0.3217 -0.1276
  901YOPE   GL213232  14.856  10.023   5.764 -0.2609  0.1651 -0.1024
  901YOPE   C1A13233  14.468  10.277   6.056 -0.1077  0.3445  0.3154
  901YOPE   D2A13234  14.253  10.421   6.493  0.0946  0.4537 -0.0685
  901YOPE   C3A13235  14.301  10.308   6.896 -0.2008  0.1291 -0.0759
  901YOPE   C4A13236  14.537  10.413   7.255 -0.1215  0.3013 -0.2782
  901YOPE   C1B13237  14.935  10.329   6.088 -0.0606  0.0449  0.0698
  901YOPE   C2B13238  14.796  10.607   6.379  0.1195  0.1300 -0.2278
  901YOPE   D3B13239  14.651  10.663   6.778 -0.3853 -0.2201 -0.1663
  901YOPE   C4B13240  14.858  10.871   7.129  0.0229 -0.1207  0.0287
  902YOPE   NH313241  18.239  15.341   5.419 -0.3898  0.0107  0.1816
  902YOPE   PO413242  18.604  15.445   5.555  0.0226  0.1024 -0.1177
  902YOPE   GL113243  18.656  15.251   5.916  0.2191  0.2680  0.0240
  902YOPE   GL213244  18.937  15.057   5.872 -0.2260  0.2392  0.0518
  902YOPE   C1A13245  18.499  15.204   6.478  0.0169  0.0847  0.1048
  902YOPE   D2A13246  18.558  15.244   6.866  0.1557  0.1142  0.3962
  902YOPE   C3A13247  18.478  15.470   7.161  0.0299  0.0109 -0.1559
  902YOPE   C4A13248  18.677  15.863   7.338 -0.1961  0.2563  0.0050
  902YOPE   C1B13249  19.027  14.744   6.210 -0.2574  0.3081 -0.3662
  902YOPE   C2B13250  19.116  14.332   6.332 -0.1443  0.1293 -0.0510
  902YOPE   D3B13251  19.407  14.054   6.444 -0.0876  0.0746  0.2124
  902YOPE   C4B13252  19.671  13.983   6.868  0.2711  0.1367 -0.3388
  903YOPE   NH313253   1.246   1.980   4.909 -0.1624 -0.1362  0.2553
  903YOPE   PO413254   1.322   1.747   5.226 -0.0467 -0.1220  0.2570
  903YOPE   GL113255   1.212   1.788   5.677 -0.1303  0.1391  0.2140
  903YOPE   GL213256   1.468   1.776   5.840 -0.0575  0.2227 -0.0945
  903YOPE   C1A13257   0.983   1.877   6.023  0.3892  0.0635  0.3193
  903YOPE   D2A13258   0.697   1.752   6.227  0.2336  0.1073 -0.1761
  903YOPE   C3A13259   0.441   2.006   6.369  0.0129  0.0260 -0.0565
  903YOPE   C4A13260   0.298   2.142   6.816  0.3427 -0.1352 -0.1913
  903YOPE   C1B13261   1.454   1.823   6.202 -0.0962  0.0255  0.0546
  903YOPE   C2B13262   1.237   1.649   6.584 -0.0992 -0.0027 -0.1507
  903YOPE   D3B13263   0.801   1.817   6.828  0.0769 -0.1456 -0.0494
  903YOPE   C4B13264   0.741   2.112   7.121  0.2046 -0.0823  0.0085
  904YOPE   NH313265   7.925  17.065   5.886  0.2250 -0.0498  0.1212
  904YOPE   PO413266   8.273  17.145   6.034 -0.1520 -0.3331  0.1714
  904YOPE   GL113267   8.145  17.173   6.384  0.0651 -0.0748 -0.0290
  904YOPE   GL213268   7.796  17.290   6.320 -0.0525  0.3164 -0.0758
  904YOPE   C1A13269   7.920  17.349   6.767 -0.0697 -0.0956  0.0796
  904YOPE   D2A13270   7.522  17.329   7.024 -0.2036 -0.1839 -0.2544
  904YOPE   C3A13271   7.500  17.186   7.484  0.1547 -0.1932  0.1917
  904YOPE   C4A13272   7.296  17.420   7.865 -0.2359 -0.0862  0.1233
  904YOPE   C1B13273   7.990  17.667   6.376  0.1382 -0.0416  0.0402
  904YOPE   C2B13274   8.126  18.003   6.617  0.1842  0.1846  0.0880
  904YOPE   D3B13275   7.860  18.017   6.968  0.0899 -0.0474  0.2166
  904YOPE   C4B13276   7.411  18.032   7.175 -0.6302  0.1580 -0.0639
  905YOPE   NH313277   1.527   9.943   5.436 -0.1575  0.1509 -0.1830
  905YOPE   PO413278   1.912  10.059   5.234 -0.1810 -0.0839  0.2851
  905YOPE   GL113279   1.913  10.143   5.713 -0.1380 -0.3388  0.2380
  905YOPE   GL213280   1.697   9.929   5.886  0.0788 -0.1195 -0.1596
  905YOPE   C1A13281   2.159   9.996   5.913  0.0275  0.1533  0.0550
  905YOPE   D2A13282   2.632   9.980   5.833 -0.1094  0.1382 -0.3759
  905YOPE   C3A13283   2.881   9.671   5.966  0.1772 -0.0247  0.0470
  905YOPE   C4A13284   2.986   9.373   6.186  0.2546  0.1497 -0.1520
  905YOPE   C1B13285   1.661   9.753   6.299 -0.1002 -0.2380  0.2109
  905YOPE   C2B13286   1.721   9.660   6.720 -0.0787 -0.1462 -0.0357
  905YOPE   D3B13287   1.871   9.636   7.099  0.4888 -0.1946 -0.0288
  905YOPE   C4B13288   1.750   9.599   7.530  0.0127 -0.0819 -0.2317
  906YOPE   NH313289  10.269  14.493   5.597 -0.1556 -0.2102  0.0801
  906YOPE   PO413290  10.371  14.947   5.781 -0.0071  0.0538 -0.2773
  906YOPE   GL113291  10.316  14.777   6.138 -0.0036  0.3755  0.0214
  906YOPE   GL213292   9.933  14.793   6.184 -0.0903  0.0569 -0.0608
  906YOPE   C1A13293  10.621  14.723   6.460  0.0022 -0.1882 -0.1489
  906YOPE   D2A13294  10.838  14.461   6.825  0.0940 -0.3431 -0.1359
  906YOPE   C3A13295  10.720  14.606   7.321  0.0074 -0.0373  0.0475
  906YOPE   C4A13296  10.679  14.892   7.604 -0.0463 -0.0379 -0.1238
  906YOPE   C1B13297  10.091  14.708   6.572  0.2650  0.0722 -0.0443
  906YOPE   C2B13298  10.203  14.830   6.980  0.1761 -0.3342  0.0705
  906YOPE   D3B13299  10.255  14.957   7.434  0.1320 -0.1873  0.2754
  906YOPE   C4B13300  10.173  14.822   7.818  0.1442  0.1596  0.0433
  907YOPE   NH313301  11.647   5.957   5.461 -0.2901  0.1051 -0.0796
  907YOPE   PO413302  11.438   5.636   5.809 -0.0973 -0.1167  0.1460
  907YOPE   GL113303  11.122   5.668   6.054  0.2945 -0.1044  0.0928
  907YOPE   GL213304  11.034   5.360   6.140  0.0095 -0.0634  0.2051
  907YOPE   C1A13305  10.772   5.784   6.354 -0.0589  0.2149  0.2658
  907YOPE   D2A13306  10.593   5.952   6.728 -0.1079  0.0239  0.4789
  907YOPE   C3A13307  10.720   6.348   6.924  0.0749  0.0727  0.3573
  907YOPE   C4A13308  10.740   6.545   7.197 -0.1206 -0.2824 -0.3849
  907YOPE   C1B13309  11.195   5.526   6.531 -0.2035  0.0252  0.0042
  907YOPE   C2B13310  11.081   5.811   6.932 -0.0010 -0.0312 -0.3126
  907YOPE   D3B13311  10.991   5.983   7.239  0.2127  0.2076  0.2762
  907YOPE   C4B13312  11.031   6.119   7.736  0.1106  0.0091  0.0199
  908YOPE   NH313313  11.895   2.449   5.377 -0.1765  0.1049 -0.1171
  908YOPE   PO413314  11.631   2.245   5.661  0.5048  0.2756  0.2072
  908YOPE   GL113315  11.737   2.050   6.032 -0.0956  0.0285  0.2432
  908YOPE   GL213316  11.987   2.244   6.272  0.1498  0.2620  0.1434
  908YOPE   C1A13317  11.551   2.105   6.470 -0.2948 -0.0263  0.1557
  908YOPE   D2A13318  11.622   2.399   6.749 -0.1367  0.1634 -0.1402
  908YOPE   C3A13319  11.575   2.705   7.075 -0.0204 -0.2061 -0.0244
  908YOPE   C4A13320  11.533   2.909   7.465 -0.0644 -0.0309  0.2871
  908YOPE   C1B13321  11.970   2.004   6.661 -0.0578  0.2426 -0.2920
  908YOPE   C2B13322  12.040   1.733   6.905 -0.2156 -0.1202 -0.3552
  908YOPE   D3B13323  11.902   1.474   7.223 -0.0650 -0.1850  0.0031
  908YOPE   C4B13324  11.973   1.316   7.560  0.1401 -0.1707  0.0348
  909YOPE   NH313325  10.908   1.219   5.724 -0.0274  0.1276  0.1601
  909YOPE   PO413326  10.617   0.975   5.923  0.0322  0.0321 -0.0136
  909YOPE   GL113327  10.624   1.209   6.257 -0.4053  0.0237 -0.0192
  909YOPE   GL213328  10.798   1.168   6.447 -0.0286 -0.2015 -0.0608
  909YOPE   C1A13329  10.283   1.271   6.533  0.0828 -0.1920  0.0665
  909YOPE   D2A13330   9.981   1.102   6.645 -0.4363 -0.2886  0.2019
  909YOPE   C3A13331   9.793   1.175   7.009 -0.0147 -0.0913  0.2582
  909YOPE   C4A13332   9.672   1.233   7.440 -0.0929 -0.5721 -0.0922
  909YOPE   C1B13333  10.656   1.433   6.792  0.1133  0.1567 -0.0826
  909YOPE   C2B13334  10.611   1.525   7.264 -0.2105  0.0275  0.0089
  909YOPE   D3B13335  11.015   1.534   7.535  0.0922  0.0437 -0.1722
  909YOPE   C4B13336  11.445   1.390   7.530 -0.1735 -0.0355  0.0429
  910YOPE   NH313337  13.273  14.643   5.478  0.0355  0.0934  0.0350
  910YOPE   PO413338  13.480  14.244   5.802 -0.2451  0.0776 -0.2379
  910YOPE   GL113339  13.628  14.421   6.120  0.3825  0.2167  0.3272
  910YOPE   GL213340  13.628  14.722   5.952  0.0394  0.0123  0.1369
  910YOPE   C1A13341  13.921  14.491   6.457  0.3810 -0.3623  0.1142
  910YOPE   D2A13342  13.917  14.804   6.840  0.2261 -0.0635 -0.0330
  910YOPE   C3A13343  14.154  14.761   7.257 -0.1472 -0.1170  0.1491
  910YOPE   C4A13344  14.345  14.630   7.545 -0.1031 -0.0398  0.0888
  910YOPE   C1B13345  13.639  15.008   6.311 -0.0196 -0.0547  0.1165
  910YOPE   C2B13346  13.390  14.939   6.670 -0.0895  0.1414  0.2315
  910YOPE   D3B13347  13.176  14.726   6.965 -0.1090 -0.0646  0.1141
  910YOPE   C4B13348  12.777  14.548   7.027 -0.0873 -0.0670 -0.3526
  911YOPE   NH313349  17.045  11.930   5.399  0.1327  0.1362 -0.1838
  911YOPE   PO413350  16.934  11.639   5.571  0.0271 -0.2047  0.3915
  911YOPE   GL113351  16.951  11.589   6.003  0.2145  0.0635 -0.1603
  911YOPE   GL213352  17.086  11.303   6.111 -0.1068 -0.0658 -0.0300
  911YOPE   C1A13353  16.874  11.712   6.429  0.1409  0.2232  0.1001
  911YOPE   D2A13354  16.895  11.683   6.748  0.0344 -0.0045  0.0085
  911YOPE   C3A13355  16.981  11.899   7.037  0.1002  0.1931  0.3580
  911YOPE   C4A13356  17.212  12.219   7.396 -0.1421  0.1558 -0.0045
  911YOPE   C1B13357  17.006  11.219   6.542 -0.1799 -0.3582 -0.0455
  911YOPE   C2B13358  16.955  11.260   7.027  0.2207  0.1831  0.1750
  911YOPE   D3B13359  17.173  11.583   7.358  0.2412  0.1157  0.0932
  911YOPE   C4B13360  17.465  11.800   7.710 -0.0496 -0.2809  0.3670
  912YOPE   NH313361   1.883   7.951   5.559  0.0179  0.0574  0.1766
  912YOPE   PO413362   1.977   7.509   5.250 -0.0521 -0.0353 -0.0415
  912YOPE   GL113363   2.025   7.350   5.749 -0.2689  0.0484 -0.2568
  912YOPE   GL213364   2.105   7.044   5.938 -0.1571  0.0245 -0.1669
  912YOPE   C1A13365   1.699   7.301   6.134 -0.0942  0.2070  0.0914
  912YOPE   D2A13366   1.649   7.103   6.520  0.0496 -0.2166 -0.0988
  912YOPE   C3A13367   1.749   6.998   6.977 -0.3246  0.0644 -0.2462
  912YOPE   C4A13368   1.699   6.842   7.332 -0.0301 -0.2191  0.1634
  912YOPE   C1B13369   2.102   6.755   6.318 -0.1187  0.1088 -0.1278
  912YOPE   C2B13370   2.002   6.623   6.732 -0.1282  0.0155 -0.1714
  912YOPE   D3B13371   1.935   6.451   7.186  0.1924 -0.0064  0.0005
  912YOPE   C4B13372   1.825   6.563   7.660  0.0315  0.0131 -0.0320
  913YOPE   NH313373  10.251  16.331   5.555  0.1438  0.2162  0.2004
  913YOPE   PO413374   9.865  16.202   5.636 -0.1699 -0.1293  0.4394
  913YOPE   GL113375   9.977  16.170   5.987 -0.1911 -0.0139 -0.2292
  913YOPE   GL213376  10.138  16.336   6.056  0.0797  0.0578 -0.0786
  913YOPE   C1A13377   9.847  16.138   6.390 -0.0447 -0.0959 -0.1818
  913YOPE   D2A13378   9.810  16.149   6.802  0.1375 -0.1587  0.0793
  913YOPE   C3A13379   9.805  15.757   7.020 -0.0501  0.2566 -0.2368
  913YOPE   C4A13380  10.097  15.386   6.872 -0.2515 -0.0366  0.1084
  913YOPE   C1B13381  10.374  16.359   6.444 -0.1762  0.1874 -0.0583
  913YOPE   C2B13382  10.320  16.288   6.800 -0.2960  0.2606 -0.2684
  913YOPE   D3B13383  10.536  16.356   7.169 -0.2778  0.2199 -0.0632
  913YOPE   C4B13384  10.667  16.690   7.486 -0.2803 -0.0725 -0.2076
  914YOPE   NH313385   1.178  12.780   5.624  0.1885  0.3160 -0.2762
  914YOPE   PO413386   1.608  12.978   5.543  0.1681  0.3698  0.0015
  914YOPE   GL113387   1.508  12.897   5.967 -0.1634 -0.0996 -0.0112
  914YOPE   GL213388   1.266  12.711   6.103 -0.1247 -0.0635 -0.0432
  914YOPE   C1A13389   1.506  13.060   6.445  0.0509 -0.2766 -0.1563
  914YOPE   D2A13390   1.533  13.301   6.834  0.0073  0.0806 -0.0712
  914YOPE   C3A13391   1.342  13.482   7.154  0.1742  0.2821 -0.1578
  914YOPE   C4A13392   1.046  13.628   7.247  0.0308 -0.1173 -0.0077
  914YOPE   C1B13393   1.059  12.908   6.541  0.3872  0.1867  0.0659
  914YOPE   C2B13394   1.142  13.021   6.998  0.0400 -0.0616 -0.1297
  914YOPE   D3B13395   1.063  13.048   7.439  0.1332  0.1337  0.0586
  914YOPE   C4B13396   0.787  12.984   7.764 -0.0692  0.2842 -0.2492
  915YOPE   NH313397   1.695   6.467   5.437  0.4050 -0.2431 -0.1749
  915YOPE   PO413398   1.682   5.965   5.449 -0.1286  0.1389  0.0756
  915YOPE   GL113399   1.345   6.054   5.658 -0.1958 -0.0971 -0.0468
  915YOPE   GL213400   1.343   6.327   5.746 -0.2785 -0.3858  0.1178
  915YOPE   C1A13401   0.908   6.029   5.780  0.0168 -0.0842  0.1808
  915YOPE   D2A13402   0.687   6.146   5.973 -0.3857 -0.1931  0.1401
  915YOPE   C3A13403   0.718   6.436   6.255 -0.2685  0.0053  0.1157
  915YOPE   C4A13404   0.510   6.715   6.550  0.3499 -0.2108 -0.1140
  915YOPE   C1B13405   1.211   6.396   6.153 -0.0042 -0.0913  0.3223
  915YOPE   C2B13406   1.151   6.327   6.500  0.1380 -0.1539 -0.0918
  915YOPE   D3B13407   0.676   6.314   6.764  0.0244 -0.0974 -0.2535
  915YOPE   C4B13408   0.221   6.267   6.825 -0.0102  0.1145  0.0446
  916YOPE   NH313409  13.335  12.123   5.623 -0.2410 -0.2276 -0.0665
  916YOPE   PO413410  13.049  11.742   5.644 -0.0863  0.1579 -0.0079
  916YOPE   GL113411  13.073  11.606   6.088  0.2505  0.0962  0.2818
  916YOPE   GL213412  12.977  11.749   6.384  0.0381 -0.1677  0.0202
  916YOPE   C1A13413  13.299  11.310   6.324  0.1714  0.0233  0.2379
  916YOPE   D2A13414  13.753  11.140   6.363 -0.1678 -0.1068  0.0319
  916YOPE   C3A13415  13.762  11.047   6.770  0.1793  0.2663 -0.0571
  916YOPE   C4A13416  13.684  10.953   7.146  0.1842 -0.0280 -0.0999
  916YOPE   C1B13417  12.964  11.715   6.814  0.0368 -0.0530 -0.3940
  916YOPE   C2B13418  13.164  11.697   7.139 -0.1427 -0.2408  0.3786
  916YOPE   D3B13419  13.184  11.573   7.598 -0.0851 -0.2295  0.1799
  916YOPE   C4B13420  12.868  11.201   7.810  0.1942  0.2537 -0.2157
  917YOPE   NH313421  16.077  13.205   5.611 -0.3073 -0.1311 -0.2777
  917YOPE   PO413422  15.748  13.470   5.566 -0.2776 -0.1284  0.4162
  917YOPE   GL113423  15.850  13.437   6.022 -0.0703 -0.0755  0.1682
  917YOPE   GL213424  16.109  13.215   6.130  0.1867  0.0967 -0.4082
  917YOPE   C1A13425  15.915  13.484   6.495  0.1680 -0.0326 -0.0188
  917YOPE   D2A13426  15.619  13.408   6.877 -0.1923  0.2121  0.1706
  917YOPE   C3A13427  15.915  13.467   7.362  0.2698  0.0921 -0.4147
  917YOPE   C4A13428  16.056  13.800   7.591 -0.2613 -0.2463 -0.1495
  917YOPE   C1B13429  16.363  12.869   6.283  0.2084 -0.4159 -0.0000
  917YOPE   C2B13430  16.460  12.782   6.711  0.4155 -0.3193 -0.0129
  917YOPE   D3B13431  16.293  12.883   7.101 -0.1544 -0.1867  0.2869
  917YOPE   C4B13432  16.080  13.002   7.409 -0.1581  0.0003 -0.0136
  918YOPE   NH313433   5.669   2.029   5.591  0.0158 -0.2200 -0.0667
  918YOPE   PO413434   5.334   1.928   5.120  0.1580  0.0123  0.2321
  918YOPE   GL113435   5.116   2.134   5.538  0.1380  0.0093 -0.1403
  918YOPE   GL213436   5.288   2.398   5.708  0.2255 -0.0104  0.2839
  918YOPE   C1A13437   5.023   1.944   5.911 -0.0170  0.2817 -0.2068
  918YOPE   D2A13438   4.934   2.244   6.336 -0.2763  0.1899 -0.1468
  918YOPE   C3A13439   5.183   2.094   6.630 -0.0850 -0.0038 -0.1583
  918YOPE   C4A13440   5.399   2.026   7.062 -0.1785 -0.1675  0.1177
  918YOPE   C1B13441   5.430   2.249   6.217 -0.1904 -0.0299  0.1199
  918YOPE   C2B13442   5.670   2.352   6.710  0.0662 -0.0564  0.0213
  918YOPE   D3B13443   6.016   2.391   7.101 -0.2681  0.1654 -0.0585
  918YOPE   C4B13444   6.048   2.410   7.483  0.1396 -0.1477 -0.1165
  919YOPE   NH313445   0.579   1.323   5.423 -0.0486  0.0413 -0.3119
  919YOPE   PO413446   0.399   1.595   5.667 -0.2348 -0.2076  0.2345
  919YOPE   GL113447   0.235   1.620   6.078  0.0294  0.2493  0.3299
  919YOPE   GL213448  -0.108   1.541   6.046  0.2440  0.0082 -0.0861
  919YOPE   C1A13449   0.329   1.532   6.571 -0.0011 -0.0990  0.0281
  919YOPE   D2A13450   0.344   1.677   7.020  0.1565 -0.2057  0.3263
  919YOPE   C3A13451   0.705   1.609   7.235  0.3281  0.1406  0.0190
  919YOPE   C4A13452   0.968   1.373   7.122 -0.2278  0.1732 -0.2835
  919YOPE   C1B13453  -0.160   1.785   6.330  0.3662 -0.0115 -0.2175
  919YOPE   C2B13454  -0.136   1.869   6.792 -0.0281  0.1037  0.0380
  919YOPE   D3B13455  -0.297   1.935   7.189 -0.5795 -0.0294  0.0375
  919YOPE   C4B13456  -0.160   1.958   7.576  0.4328 -0.0981 -0.1327
  920YOPE   NH313457   4.522   7.902   5.464  0.2287  0.0893 -0.1010
  920YOPE   PO413458   4.660   7.596   5.720 -0.0530 -0.2622  0.1410
  920YOPE   GL113459   4.395   7.551   6.013 -0.2215 -0.1063  0.0802
  920YOPE   GL213460   4.164   7.671   5.895 -0.0981  0.0944  0.2634
  920YOPE   C1A13461   4.323   7.563   6.488 -0.1408 -0.2080  0.2289
  920YOPE   D2A13462   4.244   7.529   6.948 -0.0462 -0.1843 -0.1341
  920YOPE   C3A13463   4.496   7.542   7.334 -0.4123 -0.0662 -0.1998
  920YOPE   C4A13464   4.360   7.397   7.705  0.0595  0.2384  0.1038
  920YOPE   C1B13465   4.228   8.028   6.177  0.0061  0.1825 -0.1891
  920YOPE   C2B13466   4.011   8.114   6.571  0.0452 -0.0356  0.0532
  920YOPE   D3B13467   3.548   8.173   6.632 -0.0500 -0.0654 -0.0405
  920YOPE   C4B13468   3.226   8.079   6.926 -0.1889  0.1157 -0.0917
  921POPC   NC313469  11.274  17.582   5.038 -0.2371  0.0947  0.4867
  921POPC   PO413470  10.906  17.751   5.308  0.0200  0.2054  0.2984
  921POPC   GL113471  10.982  17.766   5.757 -0.3208 -0.0219  0.1295
  921POPC   GL213472  10.817  17.943   5.858  0.1619 -0.0603  0.0538
  921POPC   C1A13473  11.290  17.890   6.032 -0.0550 -0.0636 -0.0109
  921POPC   D2A13474  11.672  18.158   6.212 -0.0880  0.0285  0.0025
  921POPC   C3A13475  11.903  18.115   6.503  0.0401 -0.2424  0.1354
  921POPC   C4A13476  12.267  18.035   6.492 -0.0028 -0.0814  0.0921
  921POPC   C1B13477  10.732  17.640   6.170  0.2161 -0.0343  0.3568
  921POPC   C2B13478  10.778  17.361   6.508 -0.0418  0.4081  0.4329
  921POPC   C3B13479  11.042  17.180   6.939 -0.4624  0.1792  0.5143
  921POPC   C4B13480  11.117  16.964   7.329  0.2217 -0.0341  0.0980
  922POPC   NC313481   6.199  11.794   5.311  0.1403 -0.1111  0.1627
  922POPC   PO413482   5.909  11.515   5.506  0.2962  0.3416 -0.0198
  922POPC   GL113483   6.105  11.450   5.910  0.2198  0.1799 -0.1366
  922POPC   GL213484   6.355  11.738   5.946  0.0721  0.1435 -0.0716
  922POPC   C1A13485   6.519  11.178   5.913 -0.0668 -0.1524  0.1660
  922POPC   D2A13486   6.911  11.371   5.976 -0.1004  0.2587 -0.1937
  922POPC   C3A13487   7.096  11.364   6.454 -0.0057 -0.2581  0.2179
  922POPC   C4A13488   7.321  11.479   6.870 -0.1521  0.0760  0.1134
  922POPC   C1B13489   6.118  11.746   6.273 -0.0530 -0.1520 -0.2294
  922POPC   C2B13490   6.207  12.024   6.634 -0.3076 -0.0626 -0.2534
  922POPC   C3B13491   6.290  12.290   6.819  0.1392 -0.1000 -0.0199
  922POPC   C4B13492   6.431  12.618   7.109 -0.2652 -0.3342  0.1099
  923POPC   NC313493  13.168  15.555   4.848  0.2718  0.2687 -0.2922
  923POPC   PO413494  13.405  15.793   5.176  0.3441 -0.1196 -0.0911
  923POPC   GL113495  13.320  15.618   5.541 -0.1382 -0.0488 -0.1383
  923POPC   GL213496  12.951  15.622   5.532  0.1408  0.2074 -0.0877
  923POPC   C1A13497  13.254  15.704   5.916  0.1899 -0.0934 -0.2021
  923POPC   D2A13498  13.234  15.933   6.289 -0.2623 -0.1676  0.0690
  923POPC   C3A13499  13.239  15.832   6.657 -0.0308  0.1084  0.0558
  923POPC   C4A13500  13.435  15.799   7.076 -0.2198  0.1088 -0.0696
  923POPC   C1B13501  12.736  15.862   5.853  0.3596 -0.2338  0.1595
  923POPC   C2B13502  12.786  15.726   6.294 -0.1544 -0.1837 -0.2623
  923POPC   C3B13503  12.731  15.620   6.696  0.1027  0.5860  0.1009
  923POPC   C4B13504  12.511  15.425   7.055  0.0412 -0.3413 -0.1802
  924POPC   NC313505  16.991  10.720   5.831 -0.4058  0.1735  0.2106
  924POPC   PO413506  17.191  10.436   5.513 -0.0724  0.2739 -0.0288
  924POPC   GL113507  17.458  10.433   5.921  0.3328 -0.0291 -0.1033
  924POPC   GL213508  17.601  10.135   6.087  0.1310 -0.2868 -0.1518
  924POPC   C1A13509  17.574  10.558   6.457 -0.0996  0.0892 -0.1366
  924POPC   D2A13510  17.431  10.485   6.872  0.2804 -0.2911 -0.1846
  924POPC   C3A13511  17.122  10.174   7.083  0.3405 -0.2463  0.1268
  924POPC   C4A13512  17.059   9.931   7.469 -0.4090 -0.0629  0.0645
  924POPC   C1B13513  17.810  10.021   6.425 -0.2539 -0.2714 -0.0513
  924POPC   C2B13514  17.570  10.051   6.762 -0.2301  0.2898 -0.2677
  924POPC   C3B13515  17.548   9.926   7.125 -0.0992 -0.1566 -0.0082
  924POPC   C4B13516  17.450   9.640   7.524 -0.1307  0.2249 -0.0248
  925POPC   NC313517   2.056  18.510   5.511 -0.2588  0.1067 -0.1014
  925POPC   PO413518   2.205  18.162   5.525 -0.2095 -0.2730 -0.0568
  925POPC   GL113519   2.084  17.955   5.941 -0.0672  0.5422  0.0157
  925POPC   GL213520   2.186  17.652   5.967 -0.1697  0.0870  0.0043
  925POPC   C1A13521   1.748  17.862   6.117  0.0386 -0.0381 -0.0563
  925POPC   D2A13522   1.720  18.002   6.524  0.0806  0.2474 -0.1114
  925POPC   C3A13523   2.057  17.994   6.721  0.2879  0.0647 -0.0501
  925POPC   C4A13524   2.342  18.260   6.831 -0.2433  0.0290 -0.1436
  925POPC   C1B13525   2.321  17.722   6.344 -0.0043 -0.2761  0.1555
  925POPC   C2B13526   2.490  17.775   6.707  0.1818 -0.1133 -0.1802
  925POPC   C3B13527   2.269  17.733   7.068 -0.1217  0.1672 -0.0312
  925POPC   C4B13528   2.357  17.670   7.490 -0.2095  0.2999  0.1684
  926POPC   NC313529   6.622  18.446   5.428  0.1540 -0.0749 -0.0675
  926POPC   PO413530   6.262  18.704   5.729  0.2764 -0.0335  0.3237
  926POPC   GL113531   6.373  18.606   6.001  0.1835  0.0970 -0.0741
  926POPC   GL213532   6.277  18.940   6.151 -0.1151  0.1437 -0.1188
  926POPC   C1A13533   6.337  18.310   6.403  0.1165 -0.0499 -0.1920
  926POPC   D2A13534   6.396  18.255   6.804  0.2112 -0.3508 -0.1869
  926POPC   C3A13535   6.491  17.947   6.988  0.1314  0.0605  0.2640
  926POPC   C4A13536   6.896  18.006   7.202  0.3481  0.3054  0.1192
  926POPC   C1B13537   6.339  19.102   6.564 -0.2010  0.1329 -0.0282
  926POPC   C2B13538   6.436  18.806   6.755  0.0757  0.0596  0.3930
  926POPC   C3B13539   6.487  18.634   7.103  0.2425  0.0107 -0.0733
  926POPC   C4B13540   6.393  18.743   7.574  0.0251  0.0843  0.2229
  927POPC   NC313541  11.177   6.504   5.762 -0.1210 -0.1687 -0.3297
  927POPC   PO413542  11.369   6.692   6.024 -0.0206  0.1512  0.0991
  927POPC   GL113543  11.134   6.816   6.420 -0.1714 -0.0418  0.1012
  927POPC   GL213544  10.756   6.774   6.448  0.0271  0.0992  0.0706
  927POPC   C1A13545  11.072   6.931   6.850  0.0251  0.1964 -0.0125
  927POPC   D2A13546  11.214   6.899   7.323  0.3227  0.1312  0.3110
  927POPC   C3A13547  11.107   6.681   7.588  0.1781  0.0833  0.6572
  927POPC   C4A13548  10.676   6.470   7.676 -0.0523 -0.1181 -0.2208
  927POPC   C1B13549  10.528   6.852   6.780 -0.2453  0.1200 -0.3960
  927POPC   C2B13550  10.182   6.994   7.004  0.1073  0.3686  0.1050
  927POPC   C3B13551   9.997   7.155   7.352  0.3111  0.2350 -0.1167
  927POPC   C4B13552   9.943   7.417   7.671  0.0017  0.0112 -0.0232
  928POPC   NC313553   9.620  10.244   5.417  0.2465  0.0459 -0.0806
  928POPC   PO413554   9.184  10.267   5.516  0.0708  0.1079  0.2542
  928POPC   GL113555   9.177  10.104   5.897  0.4003 -0.0291 -0.1357
  928POPC   GL213556   9.530  10.105   5.929  0.0061 -0.0463  0.1135
  928POPC   C1A13557   8.811   9.985   6.242 -0.1823  0.0446 -0.0714
  928POPC   D2A13558   8.766   9.873   6.589 -0.3725  0.3918  0.0978
  928POPC   C3A13559   8.737  10.196   6.979 -0.2694 -0.0446 -0.0401
  928POPC   C4A13560   8.763  10.470   7.285 -0.0305  0.1494 -0.1813
  928POPC   C1B13561   9.298  10.013   6.361  0.2818 -0.1237 -0.1974
  928POPC   C2B13562   9.162   9.547   6.560 -0.2069  0.1124  0.0630
  928POPC   C3B13563   9.146   9.179   6.464 -0.0424  0.1622  0.0336
  928POPC   C4B13564   9.160   8.838   6.557  0.1379  0.0031  0.1466
  929POPC   NC313565  14.019   2.093   5.612 -0.2129 -0.2831 -0.2419
  929POPC   PO413566  14.350   1.804   5.693  0.0756 -0.1517 -0.2055
  929POPC   GL113567  14.285   1.583   6.095 -0.1640  0.1534 -0.0611
  929POPC   GL213568  14.333   1.295   6.042 -0.0702  0.0637 -0.3165
  929POPC   C1A13569  13.922   1.379   6.272 -0.1533  0.2809  0.1081
  929POPC   D2A13570  13.506   1.349   6.383 -0.1430 -0.0110 -0.2015
  929POPC   C3A13571  13.418   1.210   6.745  0.1512  0.2083 -0.1541
  929POPC   C4A13572  13.419   1.327   7.169  0.1940 -0.1668 -0.1035
  929POPC   C1B13573  14.095   0.920   6.151  0.2771 -0.1717  0.0749
  929POPC   C2B13574  13.950   0.502   6.320 -0.0927  0.0305 -0.3478
  929POPC   C3B13575  13.569   0.418   6.600 -0.1931  0.0620 -0.0624
  929POPC   C4B13576  13.262   0.702   6.796 -0.0207  0.1821  0.0216
  930POPC   NC313577  16.634   6.500   5.220 -0.5052 -0.0289  0.0586
  930POPC   PO413578  17.014   6.491   5.168 -0.0286 -0.1025 -0.0513
  930POPC   GL113579  17.218   6.548   5.467  0.0579 -0.4086  0.1296
  930POPC   GL213580  16.925   6.521   5.697  0.2256 -0.2942 -0.0303
  930POPC   C1A13581  17.355   6.553   5.883  0.1647  0.4254  0.0768
  930POPC   D2A13582  17.245   6.605   6.241 -0.0489  0.2681  0.0497
  930POPC   C3A13583  17.156   6.188   6.540 -0.0026  0.0778  0.0842
  930POPC   C4A13584  17.102   5.941   6.918 -0.2382 -0.1182 -0.0034
  930POPC   C1B13585  16.858   6.219   5.973 -0.0992  0.1482 -0.1165
  930POPC   C2B13586  16.617   6.070   6.281 -0.0409 -0.0086 -0.0560
  930POPC   C3B13587  16.585   5.981   6.614  0.2559 -0.2114 -0.1699
  930POPC   C4B13588  16.599   6.128   7.064  0.2520 -0.1356  0.2582
  931POPC   NC313589  14.435   8.558   5.324 -0.0939 -0.0984  0.3032
  931POPC   PO413590  14.258   8.925   5.391 -0.0817 -0.0848  0.1743
  931POPC   GL113591  14.314   8.820   5.880 -0.0564  0.1860  0.2050
  931POPC   GL213592  14.031   8.700   6.123 -0.1315 -0.2754 -0.0871
  931POPC   C1A13593  14.476   8.850   6.226  0.0268 -0.0970 -0.0462
  931POPC   D2A13594  14.696   8.641   6.523 -0.3300  0.2729  0.0489
  931POPC   C3A13595  14.604   8.683   6.963  0.1769 -0.0142  0.0854
  931POPC   C4A13596  14.635   8.887   7.194  0.3198  0.4997  0.0166
  931POPC   C1B13597  13.900   8.866   6.505  0.1647 -0.0692  0.0236
  931POPC   C2B13598  13.632   8.789   6.909 -0.0881  0.2904 -0.0205
  931POPC   C3B13599  13.290   8.475   7.096  0.2748  0.1834 -0.3207
  931POPC   C4B13600  13.008   8.621   7.396 -0.2175 -0.1776 -0.0777
  932POPC   NC313601  17.798  11.659   5.499 -0.1548  0.0537 -0.1319
  932POPC   PO413602  17.527  11.887   5.485  0.1069 -0.2199 -0.2094
  932POPC   GL113603  17.716  11.944   5.901  0.0943  0.2818 -0.3187
  932POPC   GL213604  17.506  11.701   6.036 -0.0763 -0.2770  0.1331
  932POPC   C1A13605  18.117  12.080   6.284 -0.2761  0.0446 -0.2090
  932POPC   D2A13606  18.376  12.257   6.628  0.1345 -0.0703 -0.1279
  932POPC   C3A13607  18.675  12.238   6.979  0.1302 -0.0264 -0.1802
  932POPC   C4A13608  18.526  12.194   7.415 -0.0334 -0.0591 -0.4516
  932POPC   C1B13609  17.352  11.519   6.485  0.1110 -0.0845 -0.0869
  932POPC   C2B13610  17.389  11.651   6.847 -0.0129 -0.1039  0.0311
  932POPC   C3B13611  17.561  11.875   7.183  0.1071  0.0171  0.0285
  932POPC   C4B13612  17.808  12.192   7.450  0.3175 -0.0960 -0.1736
  933POPC   NC313613   2.005   4.532   5.244 -0.1841 -0.0009  0.1388
  933POPC   PO413614   2.329   4.401   5.471 -0.1527  0.3319  0.1050
  933POPC   GL113615   2.044   4.191   5.876 -0.2278  0.1055  0.3326
  933POPC   GL213616   2.253   4.214   6.073 -0.1509 -0.1222  0.1334
  933POPC   C1A13617   1.891   4.478   6.225  0.1439  0.0394  0.0058
  933POPC   D2A13618   2.014   4.512   6.603  0.0281  0.3554  0.3220
  933POPC   C3A13619   1.847   4.808   6.913  0.0849 -0.2128  0.1547
  933POPC   C4A13620   1.880   5.016   7.310 -0.0375  0.2808 -0.2261
  933POPC   C1B13621   2.436   4.404   6.356 -0.3058  0.0167 -0.3289
  933POPC   C2B13622   2.411   4.308   6.785 -0.0288 -0.0074  0.1463
  933POPC   C3B13623   2.855   4.301   6.909 -0.0517 -0.1191 -0.1849
  933POPC   C4B13624   3.042   4.419   7.306  0.0294 -0.0929 -0.0015
  934POPC   NC313625   2.110  17.190   5.697 -0.0401 -0.0337  0.1971
  934POPC   PO413626   2.532  17.334   5.809  0.2134  0.2416 -0.4096
  934POPC   GL113627   2.714  17.477   6.138  0.2359  0.1404  0.0456
  934POPC   GL213628   3.006  17.267   6.172 -0.0027 -0.2244 -0.1692
  934POPC   C1A13629   2.861  17.416   6.598  0.2124 -0.0242 -0.2021
  934POPC   D2A13630   2.735  17.286   6.933  0.2061  0.0121 -0.0277
  934POPC   C3A13631   2.963  17.045   7.390 -0.3682 -0.1116 -0.1973
  934POPC   C4A13632   3.071  16.668   7.496 -0.1556  0.4575 -0.2231
  934POPC   C1B13633   3.154  17.009   6.525  0.1434 -0.0466  0.2504
  934POPC   C2B13634   2.758  16.798   6.627 -0.2574  0.1788 -0.0359
  934POPC   C3B13635   2.657  16.747   7.036 -0.3986  0.1479 -0.1225
  934POPC   C4B13636   2.570  16.748   7.401 -0.2163 -0.1060 -0.0494
  935POPC   NC313637   8.562   8.997   5.260  0.0634  0.1062  0.1513
  935POPC   PO413638   8.407   8.738   5.440  0.1729  0.1448  0.2649
  935POPC   GL113639   8.232   8.724   5.752 -0.1369  0.2178  0.1402
  935POPC   GL213640   8.045   8.517   5.849  0.1067 -0.0291  0.0229
  935POPC   C1A13641   8.210   8.853   6.209 -0.1614  0.0416 -0.0100
  935POPC   D2A13642   8.180   9.075   6.621 -0.0729 -0.1961  0.3610
  935POPC   C3A13643   8.359   9.088   6.959 -0.1111 -0.0300  0.1031
  935POPC   C4A13644   8.556   9.000   7.350 -0.1383 -0.0910 -0.0134
  935POPC   C1B13645   7.777   8.632   6.165 -0.2117  0.0764  0.0659
  935POPC   C2B13646   7.768   8.665   6.561 -0.1532  0.0418 -0.1674
  935POPC   C3B13647   7.734   8.442   7.013  0.1471 -0.1169 -0.0906
  935POPC   C4B13648   8.061   8.685   7.442  0.3518 -0.1504  0.0812
  936POPC   NC313649  11.933   8.600   5.534 -0.2137 -0.0637  0.3113
  936POPC   PO413650  12.377   8.594   5.425 -0.2311 -0.3882 -0.0380
  936POPC   GL113651  12.519   8.464   5.779 -0.0580  0.2003 -0.1678
  936POPC   GL213652  12.258   8.500   5.962 -0.1281 -0.0040  0.0729
  936POPC   C1A13653  12.733   8.491   6.162  0.1976  0.1867 -0.0543
  936POPC   D2A13654  12.805   8.768   6.458  0.2104  0.1317 -0.1825
  936POPC   C3A13655  12.493   9.046   6.596 -0.1244  0.0448  0.5400
  936POPC   C4A13656  12.206   9.308   6.415  0.0356 -0.0465  0.1872
  936POPC   C1B13657  12.280   8.640   6.360 -0.0761  0.0411 -0.0301
  936POPC   C2B13658  12.327   8.612   6.869 -0.0341 -0.1661 -0.4271
  936POPC   C3B13659  12.565   8.481   7.283 -0.0669 -0.1113 -0.3523
  936POPC   C4B13660  12.664   8.586   7.743 -0.0937  0.1472 -0.0862
  937POPC   NC313661   8.081  18.115   5.904 -0.0504  0.0402  0.1350
  937POPC   PO413662   8.473  18.001   5.646 -0.1381 -0.0130 -0.1004
  937POPC   GL113663   8.539  17.924   6.123  0.0497  0.0852  0.0168
  937POPC   GL213664   8.489  17.608   6.242  0.0562  0.1120 -0.0965
  937POPC   C1A13665   8.568  18.286   6.368  0.0199 -0.2188  0.0725
  937POPC   D2A13666   8.562  18.372   6.767  0.1350 -0.1648  0.0585
  937POPC   C3A13667   8.251  18.285   7.069 -0.0634 -0.0359 -0.0522
  937POPC   C4A13668   7.954  18.216   7.459  0.0069  0.0857 -0.2548
  937POPC   C1B13669   8.437  17.422   6.661  0.1724 -0.0739 -0.1431
  937POPC   C2B13670   8.374  17.364   7.007 -0.1981  0.0403 -0.0915
  937POPC   C3B13671   8.490  17.285   7.352 -0.1209 -0.1474 -0.1962
  937POPC   C4B13672   8.501  17.326   7.800  0.2167 -0.1532  0.0858
  938POPC   NC313673  16.457   5.910   5.599  0.1650 -0.0072  0.0169
  938POPC   PO413674  16.644   5.462   5.549  0.1049 -0.1176 -0.1117
  938POPC   GL113675  16.863   5.418   5.874  0.0368  0.3099  0.1581
  938POPC   GL213676  16.849   5.732   5.912  0.3781  0.0567 -0.0656
  938POPC   C1A13677  16.663   5.451   6.353 -0.2281  0.5405 -0.2966
  938POPC   D2A13678  16.344   5.513   6.671  0.0549  0.1005  0.2492
  938POPC   C3A13679  16.332   5.676   7.021  0.1248 -0.2454 -0.2644
  938POPC   C4A13680  16.332   5.873   7.378  0.1748 -0.2801 -0.0733
  938POPC   C1B13681  17.030   5.781   6.327 -0.1488  0.3344 -0.1409
  938POPC   C2B13682  17.436   5.777   6.543 -0.0324 -0.1732  0.0090
  938POPC   C3B13683  17.609   5.770   6.923 -0.1575 -0.1079 -0.4191
  938POPC   C4B13684  17.660   6.079   7.331  0.0072  0.3625 -0.0125
  939POPC   NC313685  16.050   4.544   5.176 -0.3107 -0.0779  0.3665
  939POPC   PO413686  16.243   4.204   5.371 -0.0413  0.0523 -0.0765
  939POPC   GL113687  16.169   4.367   5.754 -0.1718  0.2344  0.2245
  939POPC   GL213688  16.050   4.653   5.702 -0.0848 -0.0633  0.3078
  939POPC   C1A13689  16.342   4.408   6.189 -0.2958  0.1922  0.2336
  939POPC   D2A13690  16.305   4.660   6.499  0.0211 -0.3815  0.0854
  939POPC   C3A13691  16.491   4.450   6.869  0.0883  0.2052 -0.1622
  939POPC   C4A13692  16.765   4.473   7.021 -0.0663 -0.0945  0.0757
  939POPC   C1B13693  16.088   4.825   6.040  0.2867  0.0435 -0.0744
  939POPC   C2B13694  16.235   5.140   6.207 -0.1377 -0.1751  0.0438
  939POPC   C3B13695  16.040   5.587   6.309 -0.0433 -0.4097  0.1436
  939POPC   C4B13696  15.624   5.697   6.290 -0.0391 -0.1117  0.1090
  940POPC   NC313697  17.714  17.206   5.983  0.0706  0.1653 -0.0474
  940POPC   PO413698  18.106  17.389   5.832 -0.2033 -0.1301 -0.1301
  940POPC   GL113699  18.140  17.402   6.276  0.3347 -0.0979 -0.0316
  940POPC   GL213700  18.447  17.341   6.415 -0.0043  0.1798  0.0707
  940POPC   C1A13701  17.993  17.388   6.670  0.0122  0.2359 -0.2705
  940POPC   D2A13702  18.177  17.326   7.012  0.0144 -0.1007  0.0264
  940POPC   C3A13703  18.358  17.661   7.219 -0.1609  0.1576  0.1927
  940POPC   C4A13704  18.490  18.085   7.122  0.5506 -0.3652  0.0779
  940POPC   C1B13705  18.579  17.217   6.782 -0.1899  0.4201  0.4401
  940POPC   C2B13706  18.712  17.251   7.222 -0.0034 -0.3725 -0.0148
  940POPC   C3B13707  18.903  17.493   7.506  0.1664 -0.1646 -0.2209
  940POPC   C4B13708  19.216  17.738   7.697 -0.2446 -0.1285 -0.4679
  941POPC   NC313709   3.903  16.249   5.484  0.1535 -0.1045 -0.0412
  941POPC   PO413710   4.225  16.110   5.643 -0.0114  0.0795  0.0762
  941POPC   GL113711   4.301  15.931   5.959 -0.0982 -0.1313 -0.0514
  941POPC   GL213712   4.393  16.073   6.166  0.0708  0.0738  0.1434
  941POPC   C1A13713   4.252  15.524   6.229  0.0157 -0.3901  0.1031
  941POPC   D2A13714   4.201  15.348   6.649  0.0904  0.2261 -0.2500
  941POPC   C3A13715   4.025  15.274   7.131  0.0470 -0.1341  0.0587
  941POPC   C4A13716   3.872  15.092   7.421 -0.2300  0.0242 -0.0267
  941POPC   C1B13717   4.096  15.963   6.491 -0.2580  0.1057 -0.0490
  941POPC   C2B13718   3.706  16.105   6.610  0.0282  0.1900  0.0773
  941POPC   C3B13719   3.509  15.994   7.056  0.0948  0.0873 -0.0782
  941POPC   C4B13720   3.363  16.235   7.431  0.0264 -0.3836 -0.3109
  942POPC   NC313721   2.026   1.606   5.717  0.0093  0.2314  0.0197
  942POPC   PO413722   1.981   1.103   5.647  0.1296  0.1261 -0.1417
  942POPC   GL113723   2.312   1.291   6.012  0.1305  0.2040 -0.1566
  942POPC   GL213724   2.460   0.998   6.156 -0.1328  0.0652  0.1066
  942POPC   C1A13725   2.362   1.381   6.460  0.1203 -0.0042 -0.0060
  942POPC   D2A13726   2.528   1.417   6.882 -0.0175  0.0231  0.1110
  942POPC   C3A13727   2.276   1.584   7.230  0.3234 -0.0755 -0.0963
  942POPC   C4A13728   2.065   1.680   7.702  0.0074  0.1523  0.1628
  942POPC   C1B13729   2.618   1.000   6.558  0.0894 -0.1861 -0.1966
  942POPC   C2B13730   2.692   0.874   6.999  0.2136 -0.0400 -0.2137
  942POPC   C3B13731   2.723   1.191   7.331 -0.0665  0.2245  0.4526
  942POPC   C4B13732   2.543   1.389   7.715  0.2794 -0.2554 -0.1133
  943POPC   NC313733  15.297   2.776   5.688  0.2074  0.0567 -0.0460
  943POPC   PO413734  15.569   2.529   5.507 -0.0461  0.1140 -0.2535
  943POPC   GL113735  15.737   2.368   5.959 -0.0896  0.3698 -0.0365
  943POPC   GL213736  15.740   2.658   6.013 -0.0037 -0.1961  0.0413
  943POPC   C1A13737  15.936   2.288   6.322 -0.2191  0.0035 -0.0305
  943POPC   D2A13738  16.042   2.327   6.718 -0.1566 -0.2260  0.1611
  943POPC   C3A13739  15.911   2.577   7.015  0.1628  0.1156 -0.1162
  943POPC   C4A13740  15.952   2.943   7.158  0.2698  0.1564  0.3021
  943POPC   C1B13741  15.625   2.699   6.363  0.1781 -0.0248  0.1138
  943POPC   C2B13742  15.493   2.704   6.724 -0.0278  0.1575 -0.1412
  943POPC   C3B13743  15.481   2.691   7.117  0.2660 -0.2560 -0.0791
  943POPC   C4B13744  15.340   2.806   7.600  0.0924  0.0919  0.3180
  944POPC   NC313745   7.719   8.935   5.108  0.1234  0.3151 -0.1081
  944POPC   PO413746   7.288   9.074   5.178  0.1118  0.2983 -0.1090
  944POPC   GL113747   7.214   9.022   5.626 -0.0489 -0.4629  0.2346
  944POPC   GL213748   7.222   9.348   5.774  0.2723  0.0833 -0.0994
  944POPC   C1A13749   7.309   8.818   6.022 -0.0526 -0.3030  0.0307
  944POPC   D2A13750   7.248   8.537   6.376 -0.3505  0.0776 -0.0260
  944POPC   C3A13751   7.189   8.717   6.792 -0.0097 -0.3232 -0.0045
  944POPC   C4A13752   7.268   8.857   7.250  0.0539 -0.0513  0.1804
  944POPC   C1B13753   7.182   9.267   6.197 -0.1071  0.2269 -0.3182
  944POPC   C2B13754   7.465   9.061   6.602 -0.0178 -0.2649  0.0079
  944POPC   C3B13755   7.350   9.297   7.042 -0.2431  0.0247  0.1038
  944POPC   C4B13756   7.537   9.257   7.410 -0.1021 -0.0701 -0.1876
  945POPC   NC313757  10.948   9.319   5.789  0.1301 -0.0688  0.0577
  945POPC   PO413758  10.605   9.485   5.725 -0.1137  0.1794  0.1559
  945POPC   GL113759  10.585   9.483   6.126 -0.1198 -0.3389 -0.1490
  945POPC   GL213760  10.761   9.785   6.107 -0.0993  0.1901 -0.0277
  945POPC   C1A13761  10.761   9.548   6.535 -0.3644  0.3547 -0.1344
  945POPC   D2A13762  10.746   9.502   6.926  0.0825 -0.2402 -0.1018
  945POPC   C3A13763  10.830   9.831   7.043  0.0665 -0.1970 -0.0254
  945POPC   C4A13764  10.743  10.278   7.066 -0.2521  0.2213  0.1134
  945POPC   C1B13765  11.086   9.737   6.233  0.0723  0.0888  0.0210
  945POPC   C2B13766  11.520   9.824   6.156 -0.1089  0.3172  0.1510
  945POPC   C3B13767  11.833   9.702   6.407 -0.0791 -0.3942  0.0899
  945POPC   C4B13768  11.803   9.430   6.763 -0.0854  0.0768 -0.0341
  946POPC   NC313769  14.212   3.979   5.911  0.1844  0.1210  0.1804
  946POPC   PO413770  14.387   3.543   5.970  0.0599  0.1509 -0.1969
  946POPC   GL113771  14.186   3.349   6.300 -0.4548  0.1253 -0.1599
  946POPC   GL213772  14.158   2.983   6.308  0.3666 -0.3514  0.3442
  946POPC   C1A13773  14.199   3.545   6.678 -0.1083 -0.1687 -0.4638
  946POPC   D2A13774  14.033   3.682   6.984  0.0815  0.1719  0.2122
  946POPC   C3A13775  13.743   3.546   7.272 -0.2893  0.1397 -0.0844
  946POPC   C4A13776  13.804   3.248   7.581  0.2352 -0.0248 -0.1252
  946POPC   C1B13777  14.032   3.090   6.737  0.0079 -0.1409 -0.1541
  946POPC   C2B13778  14.036   3.198   7.168 -0.3880 -0.1832 -0.0340
  946POPC   C3B13779  14.402   3.459   7.316  0.4048 -0.1216 -0.0835
  946POPC   C4B13780  14.896   3.375   7.345 -0.3985  0.4146  0.0106
  947POPC   NC313781   9.367   6.428   5.269 -0.0806  0.1268  0.1907
  947POPC   PO413782   9.759   6.564   5.479 -0.2164 -0.0289 -0.1798
  947POPC   GL113783   9.383   6.492   5.747 -0.1881 -0.1823  0.1948
  947POPC   GL213784   9.360   6.212   5.882 -0.0006 -0.2220  0.1666
  947POPC   C1A13785   9.145   6.664   6.075  0.0230  0.1447  0.5708
  947POPC   D2A13786   8.799   6.833   6.365  0.1930  0.3223 -0.2701
  947POPC   C3A13787   8.771   6.789   6.812  0.0180 -0.1853  0.0707
  947POPC   C4A13788   8.456   6.957   7.119 -0.1677 -0.0351 -0.1064
  947POPC   C1B13789   9.211   5.992   6.287 -0.1428  0.2376 -0.3481
  947POPC   C2B13790   9.426   6.014   6.616 -0.2559 -0.0536  0.0022
  947POPC   C3B13791   9.575   5.813   7.007  0.5879  0.0607  0.1797
  947POPC   C4B13792   9.541   5.776   7.455  0.0769  0.0638  0.0077
  948POPC   NC313793  11.486  13.272   5.632  0.1285  0.0044  0.1075
  948POPC   PO413794  11.168  13.498   5.573 -0.1098 -0.2336  0.1538
  948POPC   GL113795  11.405  13.649   6.025 -0.2756  0.3696 -0.2717
  948POPC   GL213796  11.430  13.263   6.190 -0.0099 -0.1797 -0.0727
  948POPC   C1A13797  11.633  13.973   6.342  0.1115  0.1032  0.2707
  948POPC   D2A13798  11.347  14.260   6.504  0.1491 -0.1221 -0.0594
  948POPC   C3A13799  11.326  14.540   6.761 -0.0405 -0.2763 -0.3212
  948POPC   C4A13800  11.245  14.620   7.186  0.0641  0.2502  0.1215
  948POPC   C1B13801  11.673  13.088   6.581 -0.1697 -0.0927 -0.3866
  948POPC   C2B13802  11.797  12.827   6.881 -0.0786  0.0069  0.0292
  948POPC   C3B13803  11.875  12.540   7.148  0.0745  0.0022 -0.0052
  948POPC   C4B13804  11.867  12.513   7.674  0.3057  0.1921 -0.1355
  949POPC   NC313805   5.689   8.897   5.004 -0.0684 -0.0460 -0.0316
  949POPC   PO413806   5.551   8.492   5.237  0.1812  0.2996 -0.0135
  949POPC   GL113807   5.587   8.412   5.635 -0.2189 -0.3166 -0.2168
  949POPC   GL213808   6.044   8.510   5.811  0.2830 -0.0096  0.2652
  949POPC   C1A13809   5.442   8.353   6.047 -0.1572 -0.2062  0.0079
  949POPC   D2A13810   5.490   8.298   6.467 -0.1846 -0.2765  0.2619
  949POPC   C3A13811   5.912   8.453   6.688 -0.0133 -0.2945 -0.3046
  949POPC   C4A13812   6.242   8.269   6.937 -0.0698  0.1684  0.2135
  949POPC   C1B13813   6.451   8.440   5.943  0.0264 -0.0188 -0.1200
  949POPC   C2B13814   6.767   8.492   6.255 -0.0378 -0.0480  0.0301
  949POPC   C3B13815   6.884   8.879   6.389  0.0919 -0.1393  0.1574
  949POPC   C4B13816   6.973   9.276   6.627  0.2828 -0.1604  0.2863
  950POPC   NC313817  11.845   5.077   5.924  0.1574  0.2086 -0.3178
  950POPC   PO413818  12.016   5.448   5.825 -0.2627 -0.3093 -0.0480
  950POPC   GL113819  11.897   5.436   6.240 -0.0156 -0.0317 -0.2543
  950POPC   GL213820  11.606   5.665   6.265  0.0341 -0.2333 -0.0779
  950POPC   C1A13821  11.800   5.364   6.663 -0.2602  0.0485  0.2043
  950POPC   D2A13822  11.607   5.660   6.826 -0.0809  0.0546  0.1091
  950POPC   C3A13823  11.563   5.970   7.054  0.0252 -0.1470 -0.1929
  950POPC   C4A13824  11.390   6.210   7.370 -0.0546  0.4137  0.2144
  950POPC   C1B13825  11.680   6.009   6.484 -0.3038  0.0056  0.1730
  950POPC   C2B13826  11.830   6.258   6.798 -0.1451 -0.3776 -0.1388
  950POPC   C3B13827  11.993   6.640   6.824 -0.1370  0.1311  0.0295
  950POPC   C4B13828  12.384   6.763   7.031 -0.1569 -0.0085  0.1653
  951POPC   NC313829  15.988   8.130   5.786  0.0333  0.1897 -0.0780
  951POPC   PO413830  15.864   8.561   6.012 -0.3449  0.0443 -0.4051
  951POPC   GL113831  15.510   8.364   6.220 -0.3426  0.0397 -0.0925
  951POPC   GL213832  15.319   8.579   6.377 -0.0110 -0.0897  0.4069
  951POPC   C1A13833  15.622   8.224   6.613 -0.0693  0.0937  0.3354
  951POPC   D2A13834  15.458   8.268   7.056  0.0515  0.1922  0.1516
  951POPC   C3A13835  15.466   8.416   7.556 -0.1057  0.0307  0.0989
  951POPC   C4A13836  15.308   8.393   8.030  0.2442  0.1438  0.1189
  951POPC   C1B13837  15.083   8.460   6.788 -0.0455 -0.0136 -0.1043
  951POPC   C2B13838  15.106   8.632   7.239 -0.1828  0.2138 -0.2436
  951POPC   C3B13839  15.159   8.799   7.572  0.1574 -0.0514  0.1922
  951POPC   C4B13840  15.091   9.035   7.910 -0.3379  0.1111 -0.0881
  952POPC   NC313841  13.850   8.793   5.608  0.1093  0.1438 -0.0688
  952POPC   PO413842  14.124   8.416   5.646  0.0623 -0.0824 -0.0436
  952POPC   GL113843  13.840   8.247   5.881  0.2030 -0.0697 -0.0685
  952POPC   GL213844  13.604   8.399   5.924  0.1454 -0.2602 -0.1180
  952POPC   C1A13845  13.731   7.895   6.121 -0.3050 -0.0302 -0.2387
  952POPC   D2A13846  13.847   7.884   6.510 -0.1792 -0.0554 -0.0597
  952POPC   C3A13847  13.996   7.463   6.576 -0.2016  0.0167 -0.2111
  952POPC   C4A13848  13.837   7.057   6.450 -0.0740  0.1274 -0.2862
  952POPC   C1B13849  13.681   8.399   6.437 -0.1460  0.2406  0.2841
  952POPC   C2B13850  13.590   8.230   6.813 -0.1289  0.0967 -0.0277
  952POPC   C3B13851  13.753   7.980   7.178 -0.0860  0.0588  0.2474
  952POPC   C4B13852  13.784   7.935   7.618  0.0000 -0.1599  0.2585
  953POPC   NC313853  13.049   9.751   5.749 -0.2011  0.0019 -0.0111
  953POPC   PO413854  12.906  10.073   5.761  0.0713 -0.2615  0.2143
  953POPC   GL113855  12.853   9.972   6.186 -0.3901  0.0424 -0.2795
  953POPC   GL213856  12.754   9.665   6.234 -0.3825 -0.1831  0.1050
  953POPC   C1A13857  12.711  10.059   6.574 -0.2067 -0.4776 -0.1031
  953POPC   D2A13858  12.839   9.998   7.001 -0.0420  0.0599  0.1720
  953POPC   C3A13859  12.561   9.658   7.342 -0.0779 -0.1917  0.0546
  953POPC   C4A13860  12.263   9.306   7.518 -0.0585  0.0882  0.0103
  953POPC   C1B13861  12.733   9.519   6.643 -0.1868  0.1042 -0.2473
  953POPC   C2B13862  12.762   9.338   7.043 -0.0492 -0.1173  0.1810
  953POPC   C3B13863  13.147   9.470   7.296  0.4724  0.2510  0.0502
  953POPC   C4B13864  13.278   9.642   7.702 -0.1959  0.1083 -0.1496
  954POPC   NC313865   7.056   8.355   5.335 -0.2369 -0.0298 -0.1279
  954POPC   PO413866   6.706   8.130   5.301 -0.1334 -0.3660  0.0727
  954POPC   GL113867   6.950   7.973   5.693 -0.2195 -0.0165 -0.0344
  954POPC   GL213868   6.907   7.640   5.705  0.0586 -0.1422 -0.1461
  954POPC   C1A13869   7.000   8.025   6.127  0.0939  0.1932 -0.0809
  954POPC   D2A13870   6.904   8.084   6.517 -0.4533  0.3270  0.3007
  954POPC   C3A13871   6.706   8.449   6.736  0.0295 -0.4224 -0.1352
  954POPC   C4A13872   6.768   8.845   7.016 -0.0614 -0.2173  0.3417
  954POPC   C1B13873   6.911   7.553   6.205  0.3967 -0.0333 -0.3658
  954POPC   C2B13874   6.979   7.593   6.591  0.4168 -0.2732  0.1995
  954POPC   C3B13875   7.189   7.800   6.888  0.0904  0.0373 -0.1309
  954POPC   C4B13876   7.269   8.252   6.885 -0.0842 -0.3017 -0.1250
  955POPC   NC313877   2.670   8.792   5.293  0.1921  0.0657 -0.1099
  955POPC   PO413878   2.811   8.349   5.445  0.0522  0.0847 -0.0756
  955POPC   GL113879   2.631   8.120   5.808 -0.2327 -0.0539 -0.3210
  955POPC   GL213880   2.239   8.127   5.893 -0.0230 -0.0625  0.2532
  955POPC   C1A13881   2.777   8.063   6.240  0.1633 -0.0651  0.0982
  955POPC   D2A13882   2.926   8.292   6.555  0.2181  0.0798  0.1012
  955POPC   C3A13883   2.888   8.405   6.978 -0.4320  0.0556  0.0339
  955POPC   C4A13884   2.716   8.653   7.337 -0.1371  0.0292  0.3256
  955POPC   C1B13885   2.203   7.878   6.228 -0.0534 -0.1242 -0.1397
  955POPC   C2B13886   2.286   7.845   6.631 -0.2649  0.0013  0.1301
  955POPC   C3B13887   2.466   7.776   6.973 -0.0027  0.2761  0.0504
  955POPC   C4B13888   2.690   8.019   7.204  0.0165 -0.0821  0.0749
  956POPC   NC313889  17.379   2.201   5.723  0.0002  0.1152  0.0842
  956POPC   PO413890  16.972   2.511   5.633  0.0725  0.0751 -0.3184
  956POPC   GL113891  17.098   2.466   6.107 -0.1361 -0.0702  0.2856
  956POPC   GL213892  17.421   2.340   6.220  0.3858 -0.0012  0.2156
  956POPC   C1A13893  16.971   2.506   6.568  0.1164  0.2256  0.1601
  956POPC   D2A13894  16.872   2.911   6.810 -0.0366  0.0999  0.3350
  956POPC   C3A13895  17.199   2.984   7.049  0.3987 -0.0212  0.0725
  956POPC   C4A13896  17.464   2.763   7.356 -0.2090 -0.0029  0.2326
  956POPC   C1B13897  17.296   2.148   6.541 -0.2016  0.0265 -0.0313
  956POPC   C2B13898  17.448   1.973   6.897  0.0460 -0.1065 -0.1701
  956POPC   C3B13899  17.533   1.782   7.373  0.0688 -0.1538  0.3198
  956POPC   C4B13900  17.455   1.623   7.782 -0.1541  0.0500 -0.1011
  957POPC   NC313901  17.972   6.863   5.367 -0.0233 -0.0136  0.2423
  957POPC   PO413902  17.622   6.901   5.354 -0.2905 -0.3189 -0.0080
  957POPC   GL113903  17.415   7.085   5.769  0.0985  0.0510 -0.1068
  957POPC   GL213904  17.365   7.406   5.835  0.2783  0.2000  0.1461
  957POPC   C1A13905  17.541   6.950   6.152 -0.0938 -0.1592  0.1329
  957POPC   D2A13906  17.684   7.167   6.459 -0.4598 -0.0575 -0.0816
  957POPC   C3A13907  17.387   7.416   6.765  0.0215  0.1662  0.1670
  957POPC   C4A13908  17.280   7.518   7.147  0.0135  0.2100  0.0502
  957POPC   C1B13909  17.247   7.380   6.203 -0.0077  0.3398 -0.0556
  957POPC   C2B13910  16.935   7.486   6.487  0.1801  0.0765  0.1291
  957POPC   C3B13911  16.839   7.756   6.894  0.2072 -0.0803  0.1006
  957POPC   C4B13912  16.955   7.918   7.360  0.1777  0.0044  0.0038
  958POPC   NC313913  14.501  15.852   4.841  0.0564 -0.0170  0.1434
  958POPC   PO413914  14.425  15.704   5.278 -0.1167  0.1471  0.0045
  958POPC   GL113915  14.318  15.845   5.718  0.2690 -0.0994  0.4525
  958POPC   GL213916  14.068  15.738   5.912 -0.2803 -0.1611 -0.0773
  958POPC   C1A13917  14.099  16.299   5.831 -0.0293  0.1607  0.0510
  958POPC   D2A13918  13.710  16.451   6.110 -0.1896 -0.1816  0.1480
  958POPC   C3A13919  13.845  16.462   6.499  0.0330 -0.3681 -0.2944
  958POPC   C4A13920  14.226  16.528   6.779  0.0449  0.0494  0.1948
  958POPC   C1B13921  14.344  15.723   6.358 -0.0550  0.1523 -0.2358
  958POPC   C2B13922  14.435  16.000   6.803 -0.0883  0.1549 -0.0257
  958POPC   C3B13923  14.157  16.262   7.182 -0.1439 -0.1536  0.1912
  958POPC   C4B13924  14.095  16.528   7.468 -0.0395 -0.2264 -0.1657
  959POPC   NC313925   4.483  13.004   5.277 -0.1076 -0.1753 -0.1668
  959POPC   PO413926   4.079  13.042   5.397 -0.0846  0.2290 -0.1276
  959POPC   GL113927   4.110  13.001   5.824  0.2043  0.2338 -0.5031
  959POPC   GL213928   4.108  13.308   5.959  0.0413  0.1138  0.1393
  959POPC   C1A13929   4.177  12.641   6.042 -0.0967 -0.1925  0.2146
  959POPC   D2A13930   4.216  12.195   6.027  0.0677  0.1374  0.1479
  959POPC   C3A13931   4.128  11.946   6.460  0.2827 -0.0283 -0.0654
  959POPC   C4A13932   3.886  11.682   6.816  0.1170  0.0503  0.1654
  959POPC   C1B13933   3.841  13.446   6.277  0.0750  0.0726  0.1197
  959POPC   C2B13934   3.843  13.655   6.711 -0.0879 -0.0730  0.1758
  959POPC   C3B13935   3.964  13.682   7.107  0.2255 -0.0191 -0.0233
  959POPC   C4B13936   4.154  13.774   7.353  0.0820  0.3029  0.2236
  960POPC   NC313937   7.573   1.985   5.501 -0.2955  0.2621 -0.2008
  960POPC   PO413938   7.835   2.208   5.459 -0.0982  0.0125  0.0442
  960POPC   GL113939   7.819   2.217   5.873 -0.3730 -0.0900 -0.0754
  960POPC   GL213940   8.065   2.389   5.977 -0.1561  0.0752  0.0750
  960POPC   C1A13941   7.621   2.136   6.247 -0.2123 -0.2668 -0.0034
  960POPC   D2A13942   7.450   2.043   6.690 -0.0620 -0.4735  0.4087
  960POPC   C3A13943   7.159   1.808   6.740 -0.1234 -0.2280 -0.1842
  960POPC   C4A13944   6.852   1.954   6.964  0.2958 -0.1439  0.0060
  960POPC   C1B13945   7.949   2.483   6.396 -0.1410 -0.1292  0.0588
  960POPC   C2B13946   7.858   2.333   6.710  0.2800 -0.0568 -0.2174
  960POPC   C3B13947   7.770   2.246   7.124 -0.3785  0.0683 -0.1268
  960POPC   C4B13948   7.831   1.909   7.300  0.1593 -0.0340 -0.0164
  961YOPC   NC313949  16.203  18.680   5.330 -0.0178  0.0675  0.0860
  961YOPC   PO413950  16.131  18.908   5.676  0.1635  0.1397  0.0499
  961YOPC   GL113951  16.499  18.860   6.031  0.2919 -0.0095 -0.3227
  961YOPC   GL213952  16.388  18.979   6.290 -0.0798  0.1040  0.1458
  961YOPC   C1A13953  16.885  19.055   6.364 -0.0425 -0.3124  0.0195
  961YOPC   D2A13954  17.176  18.901   6.644 -0.0468  0.1302 -0.0127
  961YOPC   C3A13955  17.572  19.090   6.429  0.1062 -0.1149 -0.2862
  961YOPC   C4A13956  17.754  19.261   6.091  0.2122  0.2210  0.0927
  961YOPC   C1B13957  16.192  19.470   6.326 -0.1123 -0.0741  0.0118
  961YOPC   C2B13958  16.270  19.772   6.610 -0.3658 -0.2728  0.1059
  961YOPC   D3B13959  16.031  20.203   6.850  0.3282  0.2114 -0.2561
  961YOPC   C4B13960  16.013  20.659   6.818 -0.0028 -0.1790  0.0677
  962YOPC   NC313961   8.217  13.137   5.225 -0.0141  0.3516 -0.4086
  962YOPC   PO413962   8.493  13.346   5.464  0.0379 -0.1368  0.2389
  962YOPC   GL113963   8.215  13.443   5.810  0.0944 -0.1670  0.2396
  962YOPC   GL213964   8.337  13.720   5.986  0.0819 -0.2830  0.4060
  962YOPC   C1A13965   8.089  13.177   6.028 -0.1540  0.0342 -0.0111
  962YOPC   D2A13966   7.948  13.210   6.521 -0.0952 -0.3330 -0.0816
  962YOPC   C3A13967   7.908  13.564   6.685 -0.0113 -0.1334 -0.3082
  962YOPC   C4A13968   8.012  13.921   6.731  0.3744  0.0407  0.0452
  962YOPC   C1B13969   8.348  13.639   6.380 -0.3389  0.2515  0.2852
  962YOPC   C2B13970   8.495  13.597   6.745 -0.0774  0.3668  0.1409
  962YOPC   D3B13971   8.206  13.618   7.055  0.0637  0.0999  0.2683
  962YOPC   C4B13972   8.153  13.564   7.558  0.2192 -0.0885  0.0502
  963YOPC   NC313973   7.329   6.158   5.367  0.0947  0.0476  0.0208
  963YOPC   PO413974   6.886   6.220   5.443  0.0175 -0.1365 -0.0648
  963YOPC   GL113975   6.880   6.089   5.769  0.0879 -0.0205 -0.1127
  963YOPC   GL213976   6.607   6.062   5.881  0.0768 -0.1953 -0.2680
  963YOPC   C1A13977   7.108   5.958   6.059  0.0619  0.1063  0.1093
  963YOPC   D2A13978   7.429   5.640   6.258 -0.0306  0.0200  0.1304
  963YOPC   C3A13979   7.681   5.814   6.567 -0.0520  0.0843  0.3943
  963YOPC   C4A13980   8.106   5.719   6.348  0.1149 -0.2012  0.1836
  963YOPC   C1B13981   6.641   5.959   6.240  0.2771  0.5778  0.0283
  963YOPC   C2B13982   6.942   5.692   6.522 -0.0626  0.4165 -0.2089
  963YOPC   D3B13983   7.216   5.709   6.810  0.1229 -0.4229  0.0105
  963YOPC   C4B13984   7.440   6.006   7.046  0.0657 -0.0655  0.2967
  964YOPC   NC313985  17.015  14.369   4.721  0.0946 -0.0890 -0.0442
  964YOPC   PO413986  16.827  14.553   5.112 -0.2080  0.0343 -0.1285
  964YOPC   GL113987  16.567  14.430   5.476  0.0054  0.1191  0.0197
  964YOPC   GL213988  16.244  14.536   5.602  0.0071  0.1581  0.0505
  964YOPC   C1A13989  16.445  14.181   5.891 -0.2187  0.0074 -0.1204
  964YOPC   D2A13990  16.191  14.220   6.286  0.1174 -0.2301 -0.1969
  964YOPC   C3A13991  16.393  14.226   6.626 -0.2170 -0.0344 -0.1483
  964YOPC   C4A13992  16.493  14.193   6.994  0.0557 -0.4065 -0.3016
  964YOPC   C1B13993  16.463  14.625   6.072  0.2662 -0.2625 -0.0741
  964YOPC   C2B13994  16.594  14.664   6.464 -0.3341 -0.0355  0.2534
  964YOPC   D3B13995  16.230  14.691   6.678 -0.1553  0.0552  0.0627
  964YOPC   C4B13996  15.888  14.515   6.807 -0.0091 -0.0924 -0.1031
  965YOPC   NC313997  16.022   2.251   5.559 -0.0058  0.2831 -0.0182
  965YOPC   PO413998  16.044   2.657   5.589  0.0859 -0.1205 -0.0944
  965YOPC   GL113999  16.231   2.524   5.936 -0.4171  0.0825  0.0845
  965YOPC   GL214000  16.604   2.665   6.060  0.0150  0.0795  0.3318
  965YOPC   C1A14001  16.377   2.381   6.375 -0.3010 -0.0893 -0.4102
  965YOPC   D2A14002  16.543   2.392   6.866  0.0679 -0.1362  0.2428
  965YOPC   C3A14003  17.002   2.290   7.021 -0.0863 -0.1089 -0.1014
  965YOPC   C4A14004  17.321   2.208   7.299  0.1133 -0.0312  0.0092
  965YOPC   C1B14005  16.984   2.904   6.299 -0.3251 -0.1396  0.2414
  965YOPC   C2B14006  17.183   3.202   6.574  0.1314  0.2754  0.4303
  965YOPC   D3B14007  17.610   3.210   6.699 -0.0563 -0.0944 -0.0978
  965YOPC   C4B14008  17.715   3.101   7.121 -0.0013 -0.0240 -0.2752
  966YOPC   NC314009   5.025   9.466   5.434  0.3132 -0.2205  0.2647
  966YOPC   PO414010   4.811   9.053   5.458  0.3060  0.1549 -0.1505
  966YOPC   GL114011   4.844   8.886   5.887  0.0532 -0.0979  0.5118
  966YOPC   GL214012   5.196   8.720   5.800 -0.0218  0.2983  0.1551
  966YOPC   C1A14013   4.744   8.954   6.410  0.0693  0.3472 -0.1255
  966YOPC   D2A14014   4.798   8.985   6.870 -0.2612 -0.0612  0.4682
  966YOPC   C3A14015   4.427   8.875   7.157 -0.1462  0.0612  0.1149
  966YOPC   C4A14016   4.212   8.984   7.550  0.1372  0.2734  0.1476
  966YOPC   C1B14017   5.275   8.828   6.201  0.0670 -0.0982  0.0601
  966YOPC   C2B14018   5.204   8.705   6.713 -0.0464  0.3625  0.0681
  966YOPC   D3B14019   5.424   8.629   7.006  0.2395 -0.0215 -0.1525
  966YOPC   C4B14020   5.466   8.804   7.487  0.2768  0.1109  0.1655
  967YOPC   NC314021  11.659  11.660   5.429  0.2517  0.0431 -0.0760
  967YOPC   PO414022  11.481  11.461   5.714  0.1061 -0.1552  0.0750
  967YOPC   GL114023  11.776  11.589   6.084 -0.0967  0.1546  0.1605
  967YOPC   GL214024  12.117  11.771   6.059 -0.1688  0.0403  0.0594
  967YOPC   C1A14025  11.981  11.672   6.529 -0.1963 -0.2240 -0.1232
  967YOPC   D2A14026  11.840  11.740   7.038 -0.0703 -0.1092  0.1505
  967YOPC   C3A14027  11.686  11.994   7.164 -0.1624 -0.2957 -0.1082
  967YOPC   C4A14028  11.570  12.204   7.515  0.1213  0.1153  0.1002
  967YOPC   C1B14029  12.464  11.599   6.342  0.0626 -0.0391  0.2449
  967YOPC   C2B14030  12.454  11.652   6.772 -0.1474  0.0127 -0.0211
  967YOPC   D3B14031  12.303  11.587   7.148 -0.0405 -0.0377 -0.1014
  967YOPC   C4B14032  12.213  11.424   7.480  0.2444  0.1682 -0.1680
  968YOPC   NC314033   4.946  11.690   5.105  0.4967 -0.2164  0.0069
  968YOPC   PO414034   5.018  11.312   5.335 -0.0551  0.0285 -0.1347
  968YOPC   GL114035   5.098  11.277   5.752  0.0941 -0.3585  0.0880
  968YOPC   GL214036   4.824  11.131   5.990  0.1066  0.0650  0.2735
  968YOPC   C1A14037   5.204  11.456   6.134  0.1743 -0.0186  0.1099
  968YOPC   D2A14038   5.179  11.757   6.437  0.2683 -0.2718 -0.0415
  968YOPC   C3A14039   4.850  11.816   6.749  0.0134  0.0854 -0.0255
  968YOPC   C4A14040   4.455  11.967   6.833  0.0695 -0.1381  0.1549
  968YOPC   C1B14041   4.852  11.348   6.451  0.1604 -0.0218  0.0882
  968YOPC   C2B14042   4.903  11.289   6.907 -0.2038 -0.0584  0.1955
  968YOPC   D3B14043   4.636  11.155   7.077  0.4595  0.2725  0.2658
  968YOPC   C4B14044   4.401  10.782   7.031 -0.0205 -0.2020  0.0796
  969YOPC   NC314045   5.429  13.274   5.422 -0.3529  0.0369 -0.0766
  969YOPC   PO414046   5.526  12.875   5.550  0.0325 -0.0950 -0.0085
  969YOPC   GL114047   5.463  12.709   5.924 -0.1396 -0.2121  0.2576
  969YOPC   GL214048   5.605  12.840   6.143 -0.2054  0.2700  0.2246
  969YOPC   C1A14049   5.062  12.721   6.183  0.0596  0.2614 -0.2216
  969YOPC   D2A14050   5.032  12.894   6.534 -0.2082  0.0377 -0.1965
  969YOPC   C3A14051   5.005  12.683   6.974 -0.2748  0.3121  0.0450
  969YOPC   C4A14052   4.961  12.573   7.468 -0.0492  0.2028  0.2279
  969YOPC   C1B14053   5.748  12.831   6.483  0.2254  0.4037 -0.0418
  969YOPC   C2B14054   5.861  12.428   6.646 -0.1304 -0.0080  0.2000
  969YOPC   D3B14055   5.785  12.329   7.084  0.1047 -0.0965  0.2778
  969YOPC   C4B14056   5.474  12.600   7.316 -0.2417  0.0412 -0.1296
  970YOPC   NC314057   1.083  17.135   5.371  0.1080 -0.0246 -0.1203
  970YOPC   PO414058   0.943  17.529   5.709  0.3697 -0.2807  0.1984
  970YOPC   GL114059   0.976  17.195   6.022  0.0146 -0.0319  0.2111
  970YOPC   GL214060   1.206  17.335   6.167  0.1644  0.5191 -0.1901
  970YOPC   C1A14061   0.780  16.941   6.353  0.1072  0.0902  0.0587
  970YOPC   D2A14062   0.579  16.563   6.405 -0.1094  0.0002 -0.1209
  970YOPC   C3A14063   0.240  16.496   6.645 -0.1768 -0.0499 -0.1434
  970YOPC   C4A14064  -0.010  16.687   6.952  0.1104  0.3269 -0.1861
  970YOPC   C1B14065   1.054  17.258   6.649 -0.0796 -0.0768  0.0138
  970YOPC   C2B14066   0.861  17.153   6.935  0.0267 -0.1463  0.1426
  970YOPC   D3B14067   1.096  17.192   7.299 -0.1232  0.3529 -0.0316
  970YOPC   C4B14068   1.260  16.969   7.654 -0.0393 -0.0250 -0.1081
  971YOPC   NC314069  18.829   4.893   5.717  0.0770  0.1532 -0.0100
  971YOPC   PO414070  19.188   4.959   5.464  0.0788  0.1231  0.3550
  971YOPC   GL114071  19.319   5.180   5.821 -0.3497  0.0288  0.1127
  971YOPC   GL214072  19.059   5.334   5.985 -0.0282 -0.0235 -0.1434
  971YOPC   C1A14073  19.584   5.266   6.031 -0.0850  0.4589 -0.2154
  971YOPC   D2A14074  19.621   5.669   6.203  0.1759 -0.0258  0.2106
  971YOPC   C3A14075  19.756   5.910   6.649  0.1385  0.0821  0.1421
  971YOPC   C4A14076  19.981   6.038   6.983 -0.0354 -0.1194 -0.0891
  971YOPC   C1B14077  19.219   5.275   6.369 -0.1060 -0.1632 -0.0428
  971YOPC   C2B14078  19.142   5.362   6.775 -0.1447 -0.1105 -0.3331
  971YOPC   D3B14079  19.346   5.748   6.940  0.4300 -0.0499  0.0892
  971YOPC   C4B14080  19.529   5.931   7.233 -0.0687 -0.1836  0.2314
  972YOPC   NC314081  12.458   9.971   5.563  0.0334 -0.1217 -0.0569
  972YOPC   PO414082  12.591   9.635   5.695  0.0013  0.0712  0.2047
  972YOPC   GL114083  12.350   9.787   6.046 -0.3841 -0.2010 -0.0699
  972YOPC   GL214084  12.312  10.019   6.126  0.1219 -0.1980 -0.2744
  972YOPC   C1A14085  12.338   9.749   6.508  0.0244 -0.0699  0.0983
  972YOPC   D2A14086  12.273   9.530   6.900  0.2528 -0.0255  0.0640
  972YOPC   C3A14087  11.905   9.609   7.227 -0.2762  0.0128  0.0360
  972YOPC   C4A14088  11.670   9.381   7.468 -0.2343  0.0510 -0.1171
  972YOPC   C1B14089  12.035  10.190   6.415 -0.0112  0.0030  0.1752
  972YOPC   C2B14090  11.831  10.211   6.736  0.0648 -0.5158 -0.1050
  972YOPC   D3B14091  11.608   9.896   6.898  0.0901 -0.2080  0.1594
  972YOPC   C4B14092  11.289   9.650   6.942 -0.0911 -0.2456  0.2254
  973YOPC   NC314093  18.281   7.816   5.554 -0.0326 -0.0628 -0.1123
  973YOPC   PO414094  17.974   7.675   5.712  0.2557 -0.0952  0.2042
  973YOPC   GL114095  17.711   7.750   6.007  0.1247 -0.0246  0.0351
  973YOPC   GL214096  17.607   8.122   5.973 -0.3409  0.0943  0.0798
  973YOPC   C1A14097  17.578   7.711   6.423  0.0704 -0.0632 -0.4511
  973YOPC   D2A14098  17.565   7.923   6.734 -0.1158 -0.2077  0.0122
  973YOPC   C3A14099  17.180   8.155   6.898 -0.3298  0.0444 -0.2756
  973YOPC   C4A14100  16.836   8.283   7.012 -0.1684 -0.1010 -0.3100
  973YOPC   C1B14101  17.853   8.199   6.320  0.3279 -0.0225 -0.0028
  973YOPC   C2B14102  18.026   8.141   6.689 -0.0770 -0.2665  0.1368
  973YOPC   D3B14103  17.955   7.945   7.072  0.1896  0.2406 -0.0926
  973YOPC   C4B14104  17.737   7.631   7.352 -0.4203 -0.0861  0.3549
  974YOPC   NC314105  15.826   7.446   5.235 -0.0365 -0.2300  0.1943
  974YOPC   PO414106  15.705   7.721   5.611  0.2008  0.2558  0.3251
  974YOPC   GL114107  15.654   7.896   6.068 -0.0524 -0.0557  0.0501
  974YOPC   GL214108  15.353   7.893   6.159  0.0662  0.2295  0.2036
  974YOPC   C1A14109  15.748   7.796   6.440 -0.1152 -0.1077 -0.2304
  974YOPC   D2A14110  16.063   7.863   6.752  0.0346 -0.0092  0.2114
  974YOPC   C3A14111  16.120   7.655   7.186  0.0907 -0.0774 -0.0288
  974YOPC   C4A14112  16.494   7.589   7.336  0.0064  0.1174  0.1478
  974YOPC   C1B14113  15.162   8.024   6.512  0.1210 -0.1789 -0.1318
  974YOPC   C2B14114  15.112   7.955   6.939  0.2624  0.1651  0.0282
  974YOPC   D3B14115  14.926   8.159   7.188  0.0165 -0.2429 -0.2180
  974YOPC   C4B14116  14.587   8.394   7.322  0.1276 -0.0474  0.0206
  975YOPC   NC314117   2.849   4.271   5.342  0.1430  0.1202 -0.2565
  975YOPC   PO414118   2.780   3.915   5.630  0.1085 -0.0949  0.4285
  975YOPC   GL114119   2.766   4.024   6.084  0.2339 -0.1534 -0.2516
  975YOPC   GL214120   2.906   4.255   6.240  0.2378 -0.0134 -0.1708
  975YOPC   C1A14121   2.518   3.896   6.405 -0.1120  0.1906 -0.0730
  975YOPC   D2A14122   2.486   3.764   6.822 -0.0850  0.1436  0.0360
  975YOPC   C3A14123   2.157   3.410   6.935  0.0796 -0.2503  0.2994
  975YOPC   C4A14124   2.259   3.003   6.899 -0.0418 -0.2587  0.0018
  975YOPC   C1B14125   3.267   4.133   6.608  0.2390 -0.0124  0.0356
  975YOPC   C2B14126   3.392   4.101   7.094 -0.0318 -0.2334  0.3159
  975YOPC   D3B14127   3.407   3.793   7.322 -0.1584  0.0254 -0.1460
  975YOPC   C4B14128   3.282   3.614   7.772  0.1420 -0.1649 -0.2901
  976YOPC   NC314129   2.691  11.295   5.345 -0.0270  0.0908  0.0385
  976YOPC   PO414130   2.506  10.951   5.307  0.2241 -0.0285 -0.0403
  976YOPC   GL114131   2.543  10.933   5.783 -0.0498  0.0037  0.0694
  976YOPC   GL214132   2.458  11.021   5.992 -0.4861  0.1503  0.0550
  976YOPC   C1A14133   2.737  10.597   6.113  0.3205 -0.1134 -0.4043
  976YOPC   D2A14134   2.513  10.260   6.247  0.0727 -0.1227  0.0541
  976YOPC   C3A14135   2.635   9.920   6.455  0.3035  0.2473  0.0834
  976YOPC   C4A14136   2.969   9.685   6.599  0.1904  0.0970  0.2901
  976YOPC   C1B14137   2.340  11.384   6.193 -0.3006  0.0497 -0.1522
  976YOPC   C2B14138   2.096  11.600   6.378  0.0743 -0.0152 -0.0297
  976YOPC   D3B14139   2.019  11.633   6.709  0.1345  0.2131  0.2438
  976YOPC   C4B14140   1.729  11.481   7.043 -0.1641 -0.0626 -0.2003
  977YOPC   NC314141  15.355  14.792   5.432 -0.0062 -0.2215 -0.1548
  977YOPC   PO414142  15.723  14.518   5.409 -0.1892  0.1705  0.1963
  977YOPC   GL114143  15.701  14.693   5.815  0.0845 -0.1259  0.1135
  977YOPC   GL214144  16.024  14.818   5.961  0.2042  0.0089 -0.1267
  977YOPC   C1A14145  15.410  14.786   6.123  0.3088  0.0292  0.4655
  977YOPC   D2A14146  15.082  15.048   6.337  0.1352  0.2121  0.2018
  977YOPC   C3A14147  15.084  14.967   6.798  0.3313 -0.0512 -0.1446
  977YOPC   C4A14148  15.130  15.130   7.211  0.0847 -0.1941  0.0692
  977YOPC   C1B14149  15.872  14.563   6.293 -0.2870  0.0576 -0.1841
  977YOPC   C2B14150  15.498  14.488   6.511 -0.1111  0.1625  0.2213
  977YOPC   D3B14151  15.323  14.256   6.258 -0.1954 -0.4009 -0.0372
  977YOPC   C4B14152  14.929  14.284   6.149 -0.3564  0.3560 -0.2640
  978YOPC   NC314153   6.731   5.738   5.430  0.0625 -0.0119  0.1386
  978YOPC   PO414154   6.288   5.694   5.570 -0.1493 -0.3450  0.4242
  978YOPC   GL114155   6.392   5.547   5.932  0.0240 -0.0100  0.0224
  978YOPC   GL214156   6.730   5.483   5.998  0.2819 -0.0305  0.1625
  978YOPC   C1A14157   6.502   5.515   6.408 -0.1607  0.0116  0.1327
  978YOPC   D2A14158   6.162   5.476   6.718  0.2764  0.1650 -0.0463
  978YOPC   C3A14159   6.243   5.534   7.163 -0.0079  0.1884 -0.1019
  978YOPC   C4A14160   6.349   5.544   7.638 -0.3162  0.0034 -0.1857
  978YOPC   C1B14161   6.920   5.150   6.227 -0.0050  0.1414  0.0237
  978YOPC   C2B14162   6.920   4.888   6.556  0.0642 -0.1626  0.0537
  978YOPC   D3B14163   7.208   4.679   6.684  0.1718  0.1845 -0.0042
  978YOPC   C4B14164   7.475   4.575   7.049 -0.3509  0.0003  0.4188
  979YOPC   NC314165   2.704  13.522   5.478  0.2890  0.0714 -0.0343
  979YOPC   PO414166   2.933  13.951   5.555 -0.1855 -0.0298 -0.0671
  979YOPC   GL114167   3.163  13.941   5.918  0.1989 -0.2240  0.1997
  979YOPC   GL214168   3.342  14.209   5.972 -0.0361  0.0087  0.0312
  979YOPC   C1A14169   3.073  14.012   6.345 -0.3395  0.0831 -0.0149
  979YOPC   D2A14170   3.135  14.250   6.629  0.1442 -0.0230  0.0638
  979YOPC   C3A14171   3.161  14.037   7.012  0.0655 -0.2801  0.1030
  979YOPC   C4A14172   3.097  14.047   7.438  0.1140 -0.2263 -0.0277
  979YOPC   C1B14173   3.317  14.468   6.236  0.0704  0.1977 -0.0723
  979YOPC   C2B14174   3.275  14.719   6.575 -0.1304  0.0369  0.0648
  979YOPC   D3B14175   3.383  14.562   6.958 -0.0361  0.0904 -0.1608
  979YOPC   C4B14176   3.331  14.479   7.357 -0.2924 -0.0215  0.1441
  980YOPC   NC314177  10.861   8.701   5.649 -0.1022 -0.0401 -0.1733
  980YOPC   PO414178  10.460   8.928   5.734  0.1054  0.2614 -0.2077
  980YOPC   GL114179  10.339   8.638   6.137 -0.0809 -0.1659  0.3347
  980YOPC   GL214180  10.117   8.832   6.142 -0.1050 -0.0102 -0.2273
  980YOPC   C1A14181  10.390   8.511   6.571  0.1679  0.0450 -0.1465
  980YOPC   D2A14182  10.287   8.596   7.057  0.3083 -0.1405  0.0334
  980YOPC   C3A14183  10.580   8.534   7.548  0.3472  0.0792  0.4205
  980YOPC   C4A14184  11.110   8.547   7.593  0.0936  0.1765  0.2450
  980YOPC   C1B14185   9.965   8.789   6.666  0.0474 -0.1546 -0.0747
  980YOPC   C2B14186   9.947   9.021   7.128 -0.3881 -0.2350 -0.3003
  980YOPC   D3B14187   9.723   9.491   7.179 -0.4267 -0.0246 -0.0384
  980YOPC   C4B14188   9.730   9.680   7.638 -0.0842  0.1199  0.1050
  981YOPC   NC314189   6.299   4.267   5.194  0.0846 -0.0357  0.1238
  981YOPC   PO414190   6.216   3.876   5.503 -0.0919 -0.0144 -0.1390
  981YOPC   GL114191   5.981   3.603   5.774 -0.0370 -0.2810 -0.3120
  981YOPC   GL214192   5.955   3.301   5.559 -0.1066  0.2643  0.0120
  981YOPC   C1A14193   5.787   3.594   6.153  0.2221 -0.0720  0.1432
  981YOPC   D2A14194   5.939   3.664   6.619 -0.2239 -0.2767  0.0981
  981YOPC   C3A14195   5.616   3.759   6.897 -0.1422  0.3732  0.0035
  981YOPC   C4A14196   5.348   3.704   7.154  0.1000 -0.3247 -0.0616
  981YOPC   C1B14197   5.888   3.120   5.901  0.2078  0.0481 -0.0859
  981YOPC   C2B14198   5.682   2.841   6.170  0.1363  0.1419 -0.3090
  981YOPC   D3B14199   5.900   2.428   6.203 -0.1514 -0.3542  0.2251
  981YOPC   C4B14200   6.113   2.179   6.521 -0.0905 -0.0950  0.0748
  982YOPC   NC314201  12.043  10.169   4.936  0.1915  0.0008  0.0673
  982YOPC   PO414202  11.911  10.026   5.334 -0.0623 -0.0451 -0.0971
  982YOPC   GL114203  11.931   9.979   5.768  0.1817 -0.1948 -0.1600
  982YOPC   GL214204  11.700  10.330   5.966 -0.0315  0.0082  0.0977
  982YOPC   C1A14205  11.922   9.546   5.956 -0.0959  0.0885  0.2393
  982YOPC   D2A14206  11.675   9.283   6.181  0.1457 -0.0495  0.0651
  982YOPC   C3A14207  11.314   9.340   6.378  0.0846 -0.3937  0.0407
  982YOPC   C4A14208  11.012   9.155   6.681  0.0796  0.2086  0.1307
  982YOPC   C1B14209  11.454  10.678   6.138  0.0363  0.1588 -0.0351
  982YOPC   C2B14210  11.510  11.014   6.292 -0.0213 -0.3316 -0.0526
  982YOPC   D3B14211  11.802  11.069   6.703  0.3058  0.0259 -0.0691
  982YOPC   C4B14212  11.931  11.253   7.099  0.0139  0.0919 -0.3206
  983YOPC   NC314213  12.420   0.225   5.712 -0.1819 -0.0288  0.2011
  983YOPC   PO414214  12.222   0.641   5.653 -0.0810 -0.1930 -0.2375
  983YOPC   GL114215  12.038   0.614   6.007  0.4169  0.0290  0.0274
  983YOPC   GL214216  12.173   0.272   6.123 -0.2306  0.2802  0.0536
  983YOPC   C1A14217  12.036   0.733   6.470 -0.0706 -0.0335  0.1700
  983YOPC   D2A14218  12.118   0.885   6.924 -0.0457  0.0709  0.3014
  983YOPC   C3A14219  11.802   0.944   7.225  0.0081 -0.0938  0.0291
  983YOPC   C4A14220  11.359   0.918   7.368  0.3142 -0.1425  0.1376
  983YOPC   C1B14221  12.206   0.253   6.529  0.0155  0.0266 -0.0500
  983YOPC   C2B14222  12.094   0.213   6.820 -0.0361 -0.3587 -0.0484
  983YOPC   D3B14223  12.124   0.400   7.222  0.2843 -0.2644 -0.0890
  983YOPC   C4B14224  12.050   0.644   7.573 -0.2208 -0.2313  0.0823
  984YOPC   NC314225  14.687   9.616   5.035  0.0036 -0.3132 -0.1970
  984YOPC   PO414226  14.357   9.417   5.399  0.0420  0.2986  0.2894
  984YOPC   GL114227  14.388   9.362   5.851  0.1893  0.0189 -0.2279
  984YOPC   GL214228  14.695   9.326   6.044 -0.2411  0.0387 -0.0174
  984YOPC   C1A14229  14.231   9.249   6.293  0.0522 -0.1038  0.2030
  984YOPC   D2A14230  14.341   9.014   6.672 -0.0822 -0.0399  0.0489
  984YOPC   C3A14231  14.092   9.019   7.060  0.1964 -0.0037 -0.1082
  984YOPC   C4A14232  13.962   8.874   7.379  0.2782  0.3898  0.2110
  984YOPC   C1B14233  14.638   9.471   6.499  0.0667 -0.1750  0.0842
  984YOPC   C2B14234  14.705   9.272   6.907 -0.1116  0.0657  0.2991
  984YOPC   D3B14235  14.481   9.413   7.291  0.0349 -0.0620 -0.2831
  984YOPC   C4B14236  14.058   9.428   7.352 -0.2208 -0.2729 -0.1455
  985YOPC   NC314237  14.700  16.102   5.500 -0.1330  0.0608 -0.1862
  985YOPC   PO414238  15.138  16.457   5.431  0.2489 -0.1403  0.1015
  985YOPC   GL114239  15.341  16.530   5.753 -0.1373  0.0771  0.1653
  985YOPC   GL214240  15.208  16.841   5.905  0.1351  0.2711 -0.0696
  985YOPC   C1A14241  15.630  16.482   6.086  0.1982  0.1417 -0.0298
  985YOPC   D2A14242  15.793  16.748   6.431  0.2614  0.0870 -0.0841
  985YOPC   C3A14243  15.852  16.684   6.852 -0.3339  0.0961  0.0116
  985YOPC   C4A14244  15.888  16.340   7.127  0.0068 -0.1525 -0.1467
  985YOPC   C1B14245  15.391  16.891   6.202  0.2299 -0.1325  0.1074
  985YOPC   C2B14246  15.234  16.962   6.618  0.2380  0.0103 -0.0392
  985YOPC   D3B14247  15.301  17.406   6.764  0.0585 -0.0701  0.1147
  985YOPC   C4B14248  15.467  17.462   7.151 -0.1502  0.0703 -0.1970
  986YOPC   NC314249   8.543   0.079   5.650  0.0751 -0.2886  0.1974
  986YOPC   PO414250   8.271  -0.330   5.664 -0.0020 -0.0910  0.0503
  986YOPC   GL114251   8.259  -0.196   6.051 -0.0656 -0.1658 -0.0270
  986YOPC   GL214252   8.102  -0.414   6.247  0.3070 -0.0622  0.0054
  986YOPC   C1A14253   8.395  -0.029   6.482 -0.0545 -0.3800 -0.0448
  986YOPC   D2A14254   8.178   0.251   6.725 -0.1954 -0.1890 -0.1553
  986YOPC   C3A14255   7.885   0.150   7.003  0.1481  0.0127 -0.0552
  986YOPC   C4A14256   7.666   0.097   7.453 -0.1192 -0.0918  0.0440
  986YOPC   C1B14257   8.029  -0.270   6.718  0.2702 -0.0697  0.0172
  986YOPC   C2B14258   8.266  -0.084   7.192 -0.2476  0.1915 -0.1232
  986YOPC   D3B14259   8.170   0.323   7.466  0.0447 -0.1097  0.2099
  986YOPC   C4B14260   8.105   0.611   7.774 -0.0060 -0.1945  0.0092
  987YOPC   NC314261   1.009   8.117   5.505  0.1312  0.0739 -0.0541
  987YOPC   PO414262   1.150   7.608   5.392 -0.0336 -0.2425  0.0866
  987YOPC   GL114263   1.238   7.771   5.790  0.3162  0.2116 -0.2512
  987YOPC   GL214264   1.570   7.750   5.885  0.3211  0.2625 -0.2096
  987YOPC   C1A14265   1.104   7.956   6.160 -0.3383  0.3986 -0.2453
  987YOPC   D2A14266   1.137   7.911   6.535  0.2139  0.0617 -0.1514
  987YOPC   C3A14267   1.153   8.279   6.894  0.0912 -0.1191  0.3682
  987YOPC   C4A14268   1.121   8.595   7.237  0.2917 -0.0833  0.2072
  987YOPC   C1B14269   1.607   7.738   6.311 -0.3292 -0.0033 -0.0507
  987YOPC   C2B14270   1.817   7.587   6.609 -0.1031 -0.0883 -0.0150
  987YOPC   D3B14271   1.628   7.452   6.988  0.0279 -0.0185 -0.1950
  987YOPC   C4B14272   1.406   7.336   7.284 -0.2991  0.0524 -0.1957
  988YOPC   NC314273   5.261  10.262   5.293  0.1624  0.0063  0.0924
  988YOPC   PO414274   5.357   9.938   5.484 -0.0631 -0.0610  0.2841
  988YOPC   GL114275   5.666   9.837   5.689  0.0982 -0.0572  0.0199
  988YOPC   GL214276   6.017   9.996   5.833 -0.1818 -0.0933  0.0800
  988YOPC   C1A14277   5.602   9.803   6.111 -0.1296 -0.1518 -0.0544
  988YOPC   D2A14278   5.353   9.814   6.456 -0.2004 -0.1802  0.0020
  988YOPC   C3A14279   5.459   9.364   6.690 -0.1960  0.1163  0.1161
  988YOPC   C4A14280   5.248   9.121   6.961 -0.1736 -0.1648  0.0222
  988YOPC   C1B14281   6.129   9.742   6.193 -0.3382 -0.1157 -0.0646
  988YOPC   C2B14282   5.937   9.559   6.519 -0.0850 -0.2425 -0.0451
  988YOPC   D3B14283   5.677   9.805   6.877  0.1135  0.1277  0.0018
  988YOPC   C4B14284   5.598  10.206   6.926  0.3850 -0.0728 -0.0669
  989YOPC   NC314285  14.390   8.007   5.337 -0.2266 -0.1648  0.0872
  989YOPC   PO414286  14.699   7.753   5.476  0.0236 -0.0812  0.1797
  989YOPC   GL114287  14.643   7.797   6.000 -0.1314 -0.4350  0.2091
  989YOPC   GL214288  14.721   7.654   6.318  0.1448  0.1183 -0.0416
  989YOPC   C1A14289  14.756   8.118   6.381 -0.2631 -0.3424 -0.0363
  989YOPC   D2A14290  14.616   8.231   6.782 -0.0966  0.1542  0.1094
  989YOPC   C3A14291  14.611   7.827   7.010  0.0949 -0.0864 -0.2914
  989YOPC   C4A14292  14.330   7.421   7.145  0.1703 -0.1843 -0.0106
  989YOPC   C1B14293  15.113   7.507   6.608 -0.1054 -0.0522 -0.2089
  989YOPC   C2B14294  15.160   7.449   7.034 -0.0238 -0.0772 -0.0985
  989YOPC   D3B14295  14.968   7.623   7.333  0.0936 -0.4028 -0.0348
  989YOPC   C4B14296  14.739   7.713   7.571 -0.0553 -0.0567  0.3034
  990YOPC   NC314297  11.198   4.269   5.799  0.0010  0.0018 -0.4475
  990YOPC   PO414298  11.560   4.533   5.856  0.2082 -0.1372 -0.0791
  990YOPC   GL114299  11.667   4.767   6.278 -0.1972  0.2227 -0.2307
  990YOPC   GL214300  11.390   5.054   6.308 -0.0055 -0.0466  0.2863
  990YOPC   C1A14301  11.690   4.869   6.688  0.4598 -0.0123  0.1726
  990YOPC   D2A14302  11.729   5.037   7.122  0.2051 -0.0813 -0.1302
  990YOPC   C3A14303  11.659   4.739   7.486  0.2772 -0.1031  0.2529
  990YOPC   C4A14304  11.294   4.528   7.655  0.2285 -0.1879  0.0914
  990YOPC   C1B14305  11.261   5.125   6.779 -0.1788 -0.1875  0.3332
  990YOPC   C2B14306  11.169   5.350   7.061 -0.2520 -0.0721  0.2663
  990YOPC   D3B14307  10.807   5.249   7.401 -0.1468 -0.0039 -0.0313
  990YOPC   C4B14308  10.613   5.300   7.779  0.1630 -0.0627 -0.2020
  991YOPC   NC314309   6.730   1.187   5.414  0.0567 -0.0270 -0.0659
  991YOPC   PO414310   6.426   1.578   5.543  0.0366 -0.1173 -0.1417
  991YOPC   GL114311   6.635   1.360   5.866  0.3829  0.0828  0.1216
  991YOPC   GL214312   6.397   1.136   6.014 -0.4449  0.0130 -0.1871
  991YOPC   C1A14313   6.844   1.176   6.261 -0.0554  0.0645  0.0367
  991YOPC   D2A14314   6.777   0.799   6.645 -0.0556 -0.1780 -0.1443
  991YOPC   C3A14315   7.092   0.807   7.146  0.1764 -0.1374 -0.0980
  991YOPC   C4A14316   7.047   1.009   7.496 -0.2290 -0.1119  0.3751
  991YOPC   C1B14317   6.378   1.389   6.295 -0.0327 -0.2456 -0.3133
  991YOPC   C2B14318   6.632   1.309   6.667 -0.0351  0.2911 -0.0815
  991YOPC   D3B14319   6.577   1.537   7.093  0.1277  0.1224  0.0251
  991YOPC   C4B14320   6.612   1.546   7.598  0.0126 -0.1202  0.1477
  992YOPC   NC314321   6.581  15.382   5.234  0.2606 -0.0447 -0.1263
  992YOPC   PO414322   6.159  15.115   5.280  0.1589 -0.0489 -0.3480
  992YOPC   GL114323   6.067  15.307   5.679  0.1447 -0.2280  0.0937
  992YOPC   GL214324   6.023  15.664   5.819  0.0958  0.0800 -0.0333
  992YOPC   C1A14325   6.163  15.322   6.097 -0.1231  0.3167  0.0554
  992YOPC   D2A14326   6.518  15.389   6.381  0.3939  0.3561  0.0850
  992YOPC   C3A14327   6.826  15.718   6.339  0.0260 -0.0514 -0.3071
  992YOPC   C4A14328   6.905  16.111   6.212 -0.1291 -0.2007  0.1058
  992YOPC   C1B14329   5.838  15.946   6.055  0.1973  0.2446 -0.0173
  992YOPC   C2B14330   5.603  16.040   6.369  0.1623  0.1151 -0.0044
  992YOPC   D3B14331   5.537  15.862   6.728  0.1776  0.1146  0.3688
  992YOPC   C4B14332   5.575  15.607   7.028  0.0841  0.2440  0.1778
  993YOPC   NC314333  13.691   0.552   5.123 -0.0791  0.1469 -0.0215
  993YOPC   PO414334  13.857   0.500   5.538  0.1144  0.0985  0.2082
  993YOPC   GL114335  13.727   0.549   5.868 -0.1122  0.0241 -0.1100
  993YOPC   GL214336  13.513   0.354   6.035  0.2515 -0.0559 -0.1182
  993YOPC   C1A14337  13.631   0.856   6.173  0.3755 -0.3130 -0.0654
  993YOPC   D2A14338  13.811   0.898   6.615 -0.3046 -0.2004 -0.0302
  993YOPC   C3A14339  13.973   0.551   6.888 -0.4588  0.3017 -0.0036
  993YOPC   C4A14340  14.394   0.283   6.837  0.2318  0.0071 -0.1777
  993YOPC   C1B14341  13.539   0.029   6.277  0.0109  0.0491 -0.3499
  993YOPC   C2B14342  13.351  -0.387   6.436 -0.0123 -0.0479  0.1419
  993YOPC   D3B14343  13.475  -0.421   6.883 -0.0581 -0.1448 -0.0296
  993YOPC   C4B14344  13.248  -0.715   7.169 -0.0171  0.0079  0.1286
  994YOPC   NC314345  15.372  18.675   5.532  0.0181  0.1268  0.0066
  994YOPC   PO414346  14.992  18.659   5.788  0.0691 -0.2107  0.0839
  994YOPC   GL114347  15.030  18.969   6.251 -0.1443 -0.0255 -0.4862
  994YOPC   GL214348  15.302  19.178   6.306 -0.0973  0.1224  0.0704
  994YOPC   C1A14349  14.956  18.923   6.678  0.2847  0.0758  0.1027
  994YOPC   D2A14350  14.782  18.790   7.018  0.0012 -0.0946  0.0882
  994YOPC   C3A14351  14.767  18.782   7.305 -0.2277 -0.2003 -0.1535
  994YOPC   C4A14352  14.762  18.761   7.759 -0.3662 -0.1991 -0.0991
  994YOPC   C1B14353  15.359  19.247   6.712  0.1748  0.0518  0.0253
  994YOPC   C2B14354  15.615  19.125   7.095  0.1669 -0.0157 -0.0570
  994YOPC   D3B14355  15.976  18.927   6.927  0.1288 -0.3441 -0.0219
  994YOPC   C4B14356  16.146  18.689   6.629 -0.0965  0.0029  0.2008
  995YOPC   NC314357   1.902   5.875   5.050 -0.2835 -0.0823 -0.0111
  995YOPC   PO414358   2.349   5.882   5.290  0.0576  0.1889 -0.1845
  995YOPC   GL114359   2.190   6.049   5.630 -0.0077 -0.0708  0.1782
  995YOPC   GL214360   2.407   6.171   5.865 -0.3181  0.1167 -0.3988
  995YOPC   C1A14361   2.067   5.880   6.056  0.2421  0.1709 -0.1790
  995YOPC   D2A14362   2.296   5.737   6.365 -0.1024  0.2736  0.0808
  995YOPC   C3A14363   2.081   5.374   6.471  0.2723  0.0291  0.0846
  995YOPC   C4A14364   1.937   5.104   6.127  0.0748 -0.0383 -0.1168
  995YOPC   C1B14365   2.620   6.071   6.240 -0.0525 -0.2715 -0.0478
  995YOPC   C2B14366   2.645   5.981   6.682  0.0319 -0.0043 -0.0108
  995YOPC   D3B14367   2.950   5.583   6.829 -0.1401 -0.0999  0.1876
  995YOPC   C4B14368   3.214   5.287   7.119  0.0404 -0.0557 -0.0189
  996YOPC   NC314369   7.316  17.774   5.569  0.0835 -0.0746 -0.3358
  996YOPC   PO414370   7.644  17.916   5.688 -0.0855 -0.1312  0.1372
  996YOPC   GL114371   7.427  17.639   6.099  0.1736  0.1029  0.1536
  996YOPC   GL214372   7.110  17.522   5.981 -0.0226 -0.0968  0.3465
  996YOPC   C1A14373   7.516  17.592   6.621  0.2643 -0.2692 -0.1336
  996YOPC   D2A14374   7.137  17.633   6.919  0.1153  0.0513  0.0116
  996YOPC   C3A14375   7.257  17.588   7.388  0.3004  0.3189  0.5597
  996YOPC   C4A14376   7.552  17.848   7.693 -0.0199 -0.1182  0.2310
  996YOPC   C1B14377   7.027  17.646   6.424 -0.1378  0.0613 -0.1751
  996YOPC   C2B14378   6.897  17.979   6.704 -0.0018  0.1050 -0.1534
  996YOPC   D3B14379   7.300  18.166   6.692 -0.0449  0.1384 -0.2183
  996YOPC   C4B14380   7.715  18.237   6.484 -0.1596 -0.2261 -0.3188
  997YOPC   NC314381   8.673  14.421   5.349  0.1920 -0.0607 -0.1015
  997YOPC   PO414382   8.864  14.116   5.656 -0.2325 -0.0688  0.0750
  997YOPC   GL114383   8.683  14.099   6.089  0.1505 -0.0060  0.1305
  997YOPC   GL214384   8.913  14.067   6.340 -0.2009  0.3315 -0.2402
  997YOPC   C1A14385   8.410  14.096   6.466 -0.4361  0.3329 -0.4522
  997YOPC   D2A14386   8.544  14.149   6.943 -0.1372  0.6031  0.2836
  997YOPC   C3A14387   8.239  14.149   7.169  0.0646 -0.1993  0.2696
  997YOPC   C4A14388   7.735  14.223   7.016 -0.3313  0.0214  0.2715
  997YOPC   C1B14389   8.909  13.869   6.665 -0.0285  0.3224 -0.1494
  997YOPC   C2B14390   8.822  13.730   7.092 -0.0542  0.3568 -0.0501
  997YOPC   D3B14391   9.096  13.446   7.331  0.1620 -0.0648  0.0593
  997YOPC   C4B14392   9.115  13.177   7.634  0.1116  0.2369 -0.1805
  998YOPC   NC314393   2.305   2.748   5.414 -0.3801 -0.1197 -0.4216
  998YOPC   PO414394   1.909   2.925   5.610 -0.1494 -0.0814  0.1394
  998YOPC   GL114395   1.887   2.762   6.065  0.1210  0.0459  0.0962
  998YOPC   GL214396   2.069   2.534   6.025  0.2306  0.0473  0.1194
  998YOPC   C1A14397   1.618   3.028   6.326 -0.2430  0.3036 -0.1093
  998YOPC   D2A14398   1.544   3.254   6.618 -0.0241  0.0379 -0.1268
  998YOPC   C3A14399   1.213   2.968   6.826 -0.1758 -0.0024 -0.0789
  998YOPC   C4A14400   0.804   3.144   7.002 -0.1436 -0.0154  0.1388
  998YOPC   C1B14401   2.148   2.378   6.330  0.0503  0.0942  0.3306
  998YOPC   C2B14402   2.189   2.547   6.732 -0.2145 -0.3757 -0.2127
  998YOPC   D3B14403   2.138   2.520   7.175 -0.1215  0.0493  0.1995
  998YOPC   C4B14404   2.180   2.933   7.353  0.3404 -0.0436  0.0747
  999YOPC   NC314405   6.310   3.017   5.216 -0.1021 -0.3987  0.0684
  999YOPC   PO414406   6.734   3.216   5.247 -0.3504  0.1058 -0.0445
  999YOPC   GL114407   6.767   3.072   5.645 -0.0481 -0.3845 -0.0653
  999YOPC   GL214408   6.990   2.848   5.745  0.1617  0.4424  0.2354
  999YOPC   C1A14409   6.618   3.098   6.065  0.1880  0.2445  0.0222
  999YOPC   D2A14410   6.591   3.073   6.575  0.1273  0.0622 -0.1475
  999YOPC   C3A14411   6.235   3.183   6.843  0.0429 -0.0237 -0.0505
  999YOPC   C4A14412   5.940   3.350   7.019  0.2537 -0.1307 -0.2686
  999YOPC   C1B14413   7.035   2.644   6.064 -0.0306 -0.2621 -0.0641
  999YOPC   C2B14414   6.981   2.767   6.581  0.1027  0.0842 -0.2155
  999YOPC   D3B14415   6.816   2.816   6.987  0.1203  0.0864  0.2082
  999YOPC   C4B14416   6.517   3.053   7.238 -0.1019 -0.1369 -0.1910
 1000YOPC   NC314417   0.486   4.266   5.253  0.0561 -0.2442  0.2444
 1000YOPC   PO414418   0.673   4.629   5.513 -0.0034  0.1344 -0.0181
 1000YOPC   GL114419   0.893   4.863   5.787 -0.0462 -0.1523  0.1035
 1000YOPC   GL214420   1.201   4.605   5.818 -0.1211 -0.1057 -0.1415
 1000YOPC   C1A14421   1.005   4.871   6.220  0.0340  0.0515 -0.0993
 1000YOPC   D2A14422   1.202   4.969   6.554 -0.3722  0.1509 -0.0133
 1000YOPC   C3A14423   1.358   4.804   6.914  0.0539 -0.2711  0.0061
 1000YOPC   C4A14424   1.379   4.935   7.395 -0.1201 -0.1156  0.0467
 1000YOPC   C1B14425   1.414   4.550   6.163 -0.2843  0.0422 -0.5486
 1000YOPC   C2B14426   1.617   4.822   6.397  0.0495  0.0040  0.0006
 1000YOPC   D3B14427   1.631   5.253   6.544 -0.4409  0.0666  0.1167
 1000YOPC   C4B14428   1.688   5.349   7.007  0.0103 -0.5497 -0.0948
 1001YOPC   NC314429   7.289  15.757   5.398 -0.1334  0.4377 -0.1291
 1001YOPC   PO414430   7.015  15.415   5.436  0.4077 -0.3590 -0.2756
 1001YOPC   GL114431   7.098  15.283   5.932 -0.2540  0.0434  0.0919
 1001YOPC   GL214432   7.464  15.026   5.995  0.0599 -0.0015  0.2140
 1001YOPC   C1A14433   7.104  15.325   6.379  0.0506  0.1378 -0.0111
 1001YOPC   D2A14434   6.917  15.397   6.816  0.1034  0.2699  0.0741
 1001YOPC   C3A14435   6.989  15.690   7.108 -0.1387 -0.3213  0.2122
 1001YOPC   C4A14436   6.816  16.053   7.232 -0.1763  0.0885 -0.4033
 1001YOPC   C1B14437   7.560  15.221   6.409 -0.0284 -0.1119  0.0255
 1001YOPC   C2B14438   7.379  15.127   6.774  0.0370  0.0370  0.0887
 1001YOPC   D3B14439   7.250  14.808   7.086  0.1426  0.2448 -0.2429
 1001YOPC   C4B14440   7.572  14.499   7.396  0.3476  0.1583  0.5155
 1002YOPC   NC314441   8.047  11.117   5.499 -0.0976 -0.1401 -0.0770
 1002YOPC   PO414442   7.880  11.373   5.265 -0.1829 -0.0769 -0.0817
 1002YOPC   GL114443   7.557  11.373   5.594  0.2128  0.1749 -0.0307
 1002YOPC   GL214444   7.326  11.020   5.611 -0.1862  0.0231 -0.0862
 1002YOPC   C1A14445   7.402  11.297   6.018  0.0918  0.0534  0.1692
 1002YOPC   D2A14446   7.651  11.111   6.338 -0.0549  0.2366 -0.0365
 1002YOPC   C3A14447   7.494  11.047   6.791  0.0263  0.0631  0.0192
 1002YOPC   C4A14448   7.535  10.717   7.227 -0.0329  0.1522  0.1457
 1002YOPC   C1B14449   7.169  10.880   6.015 -0.1208 -0.1867  0.0189
 1002YOPC   C2B14450   7.051  10.878   6.522  0.1431 -0.4298 -0.1497
 1002YOPC   D3B14451   6.748  10.629   6.704  0.0863 -0.1712 -0.0495
 1002YOPC   C4B14452   6.558  10.445   7.053  0.0162 -0.0804  0.2132
 1003YOPC   NC314453   1.766  16.847   5.479  0.0592  0.0017 -0.0090
 1003YOPC   PO414454   1.444  17.034   5.718  0.0133 -0.0502 -0.0398
 1003YOPC   GL114455   1.590  17.065   6.099  0.1491  0.1390 -0.0377
 1003YOPC   GL214456   1.776  17.268   6.196  0.2263  0.0555 -0.0409
 1003YOPC   C1A14457   1.410  16.963   6.501 -0.0223  0.0410 -0.1662
 1003YOPC   D2A14458   1.252  16.889   6.846  0.0353  0.1999 -0.1739
 1003YOPC   C3A14459   1.345  16.676   7.171  0.1224 -0.1432  0.0338
 1003YOPC   C4A14460   1.285  16.534   7.620 -0.1179  0.0065 -0.1066
 1003YOPC   C1B14461   1.771  17.284   6.555  0.2279 -0.1376 -0.0210
 1003YOPC   C2B14462   1.791  17.598   6.830 -0.2316 -0.0065 -0.0660
 1003YOPC   D3B14463   1.847  17.549   7.262 -0.1658  0.2355  0.0153
 1003YOPC   C4B14464   1.587  17.390   7.521 -0.2279 -0.0074 -0.1382
 1004YOPC   NC314465  10.627  15.670   5.172  0.3113  0.1908  0.0856
 1004YOPC   PO414466  10.365  15.855   5.485 -0.2879  0.3009 -0.3474
 1004YOPC   GL114467  10.427  15.950   5.832 -0.3726  0.0872  0.2360
 1004YOPC   GL214468  10.612  16.144   6.019 -0.1522 -0.0145  0.1853
 1004YOPC   C1A14469  10.262  15.796   6.208  0.0467  0.0310  0.1488
 1004YOPC   D2A14470  10.193  15.824   6.617 -0.0223 -0.2551 -0.0707
 1004YOPC   C3A14471  10.442  15.685   6.951 -0.1356 -0.0731  0.3077
 1004YOPC   C4A14472  10.778  15.832   7.170 -0.0337 -0.2789  0.1910
 1004YOPC   C1B14473  10.886  16.326   6.263  0.0087 -0.0612  0.1763
 1004YOPC   C2B14474  11.267  16.337   6.505  0.1350 -0.1678  0.0985
 1004YOPC   D3B14475  11.571  16.569   6.252 -0.2869 -0.1366 -0.1521
 1004YOPC   C4B14476  11.417  16.859   6.000 -0.0304  0.0037 -0.0716
 1005YOPC   NC314477  10.670   0.096   5.625  0.0919  0.1383 -0.1402
 1005YOPC   PO414478  10.958   0.088   5.953  0.1528 -0.0266  0.0455
 1005YOPC   GL114479  10.916   0.270   6.315 -0.1020 -0.0152 -0.2313
 1005YOPC   GL214480  11.220   0.227   6.401  0.2127  0.1621 -0.1486
 1005YOPC   C1A14481  10.883   0.315   6.725 -0.1049  0.1940  0.2201
 1005YOPC   D2A14482  10.728   0.474   7.144 -0.3102  0.0390  0.1138
 1005YOPC   C3A14483  10.902   0.729   7.393 -0.0606 -0.4594 -0.1621
 1005YOPC   C4A14484  10.813   1.081   7.641  0.3461 -0.4208  0.1301
 1005YOPC   C1B14485  11.368   0.005   6.715  0.1812  0.0017  0.1001
 1005YOPC   C2B14486  11.649   0.058   6.994 -0.3147  0.3604 -0.1756
 1005YOPC   D3B14487  12.056  -0.207   7.088 -0.2811  0.0821  0.1074
 1005YOPC   C4B14488  12.347  -0.332   7.463 -0.2907 -0.1103  0.0518
 1006YOPC   NC314489  14.636  15.295   5.062  0.0104 -0.1252 -0.0388
 1006YOPC   PO414490  14.941  15.650   5.147 -0.1797  0.1785  0.1684
 1006YOPC   GL114491  14.836  15.631   5.625  0.2619  0.1798 -0.0114
 1006YOPC   GL214492  14.979  15.810   5.772  0.2211 -0.0085 -0.1753
 1006YOPC   C1A14493  14.669  15.473   5.977  0.2420  0.0269  0.1627
 1006YOPC   D2A14494  14.715  15.382   6.431  0.0216 -0.2725 -0.0051
 1006YOPC   C3A14495  14.747  15.584   6.886  0.0364  0.2165  0.1586
 1006YOPC   C4A14496  14.539  15.734   7.235 -0.1821  0.2380  0.2019
 1006YOPC   C1B14497  15.265  16.016   6.054 -0.2988 -0.0692  0.1269
 1006YOPC   C2B14498  15.482  16.048   6.332  0.0741  0.1747  0.1726
 1006YOPC   D3B14499  15.658  15.721   6.442 -0.0237 -0.0842  0.1157
 1006YOPC   C4B14500  15.740  15.467   6.849  0.1784 -0.1411 -0.0575
 1007YOPC   NC314501  17.000  17.193   5.358  0.0150 -0.0066 -0.1017
 1007YOPC   PO414502  16.968  17.173   5.732 -0.0561  0.0975 -0.2115
 1007YOPC   GL114503  17.160  17.371   6.195 -0.0868  0.0489  0.0944
 1007YOPC   GL214504  17.411  17.324   6.376  0.1309 -0.1090  0.2877
 1007YOPC   C1A14505  16.969  17.529   6.584  0.2859  0.2756  0.4404
 1007YOPC   D2A14506  17.001  17.366   7.061 -0.1055 -0.0217  0.1861
 1007YOPC   C3A14507  16.860  17.700   7.347  0.0876 -0.1677 -0.1229
 1007YOPC   C4A14508  17.116  17.918   7.643  0.1048  0.0743  0.3682
 1007YOPC   C1B14509  17.529  17.498   6.832 -0.1359  0.0645  0.0148
 1007YOPC   C2B14510  17.848  17.687   7.043  0.4756  0.0078 -0.3872
 1007YOPC   D3B14511  17.857  17.463   7.400  0.0722 -0.0787 -0.2294
 1007YOPC   C4B14512  18.184  17.292   7.567  0.0192  0.1249 -0.0321
 1008YOPC   NC314513   9.314   8.774   5.020  0.0394 -0.0439 -0.0350
 1008YOPC   PO414514   9.466   9.002   5.377  0.0499 -0.1836  0.2699
 1008YOPC   GL114515   9.704   9.172   5.726 -0.5392 -0.2007  0.0707
 1008YOPC   GL214516   9.643   9.445   5.867  0.0285  0.2705 -0.0467
 1008YOPC   C1A14517   9.624   9.097   6.207 -0.3029  0.1874  0.1441
 1008YOPC   D2A14518   9.560   9.167   6.712  0.1853  0.1719 -0.1646
 1008YOPC   C3A14519   9.244   9.350   7.031 -0.1476 -0.2984 -0.1315
 1008YOPC   C4A14520   9.253   9.485   7.423 -0.0795 -0.1390 -0.1486
 1008YOPC   C1B14521   9.621   9.554   6.344  0.0050  0.2819  0.1195
 1008YOPC   C2B14522   9.571   9.781   6.716 -0.0395 -0.0096 -0.0808
 1008YOPC   D3B14523   9.927   9.905   6.909  0.0086  0.0229 -0.1085
 1008YOPC   C4B14524  10.304   9.988   7.062 -0.2288  0.2788 -0.0817
 1009YOPC   NC314525   0.095   8.363   5.499 -0.1874 -0.2732 -0.0997
 1009YOPC   PO414526  -0.278   8.306   5.602  0.2817 -0.1035  0.1162
 1009YOPC   GL114527  -0.035   8.106   5.936  0.0182 -0.4919  0.2125
 1009YOPC   GL214528   0.204   8.093   5.900 -0.2771  0.2620  0.3353
 1009YOPC   C1A14529  -0.014   7.935   6.359  0.0405 -0.0894 -0.3815
 1009YOPC   D2A14530   0.121   7.761   6.730  0.1476  0.0306 -0.4549
 1009YOPC   C3A14531   0.189   7.909   7.154 -0.0684 -0.1536 -0.0030
 1009YOPC   C4A14532   0.196   7.856   7.635  0.2868  0.0968 -0.0672
 1009YOPC   C1B14533   0.507   7.863   6.237  0.0489  0.0140  0.1436
 1009YOPC   C2B14534   0.626   8.070   6.637  0.2162  0.1221  0.1810
 1009YOPC   D3B14535   0.620   7.774   6.967  0.1675 -0.3008  0.0867
 1009YOPC   C4B14536   0.674   7.692   7.374 -0.0113 -0.3236 -0.0225
 1010YOPC   NC314537  17.763  14.845   4.971  0.2084 -0.3303  0.1083
 1010YOPC   PO414538  17.948  14.422   5.113 -0.0192 -0.2679  0.0536
 1010YOPC   GL114539  17.814  14.534   5.595 -0.2792 -0.0627  0.0355
 1010YOPC   GL214540  17.635  14.280   5.556 -0.0774  0.2476 -0.0919
 1010YOPC   C1A14541  17.716  14.426   6.082 -0.1181 -0.0593 -0.0878
 1010YOPC   D2A14542  17.457  14.175   6.416 -0.1978 -0.2496  0.1121
 1010YOPC   C3A14543  17.494  14.205   6.846  0.0408 -0.0920 -0.0893
 1010YOPC   C4A14544  17.626  14.295   7.313 -0.0800  0.1419  0.0965
 1010YOPC   C1B14545  17.374  14.040   5.821 -0.0693 -0.0776  0.1166
 1010YOPC   C2B14546  17.038  13.722   5.846  0.2327 -0.0139  0.0882
 1010YOPC   D3B14547  16.600  13.594   5.952 -0.2585  0.1088 -0.2938
 1010YOPC   C4B14548  16.247  13.739   6.081  0.0632  0.0766 -0.1989
 1011YOPC   NC314549   0.388  17.482   5.458  0.1447  0.0241 -0.0900
 1011YOPC   PO414550   0.562  17.966   5.548  0.2591 -0.4722  0.0044
 1011YOPC   GL114551   0.631  17.832   5.989 -0.1500  0.0297  0.1738
 1011YOPC   GL214552   0.489  17.482   6.035 -0.0821 -0.2944 -0.0882
 1011YOPC   C1A14553   1.019  17.751   6.291  0.1420 -0.1872 -0.2593
 1011YOPC   D2A14554   1.409  17.662   6.564  0.0540 -0.1863  0.0487
 1011YOPC   C3A14555   1.307  17.663   6.869  0.2449 -0.1461 -0.0607
 1011YOPC   C4A14556   1.200  17.629   7.231  0.1287  0.2012 -0.1289
 1011YOPC   C1B14557   0.580  17.504   6.418  0.0402  0.4138 -0.0276
 1011YOPC   C2B14558   0.770  17.736   6.838  0.1377  0.1199 -0.0744
 1011YOPC   D3B14559   0.720  17.776   7.228 -0.1021 -0.0225 -0.0520
 1011YOPC   C4B14560   0.947  17.830   7.604  0.3213 -0.0379  0.2714
 1012YOPC   NC314561   8.155   7.435   5.161 -0.1791 -0.2501 -0.0066
 1012YOPC   PO414562   8.068   7.180   5.412  0.3255 -0.0981  0.0183
 1012YOPC   GL114563   7.721   6.955   5.597  0.3078 -0.0893 -0.3765
 1012YOPC   GL214564   7.657   7.295   5.717  0.1376  0.3531  0.0773
 1012YOPC   C1A14565   7.601   6.766   5.963 -0.1874 -0.2254  0.2178
 1012YOPC   D2A14566   7.353   6.744   6.316  0.1737 -0.0648 -0.1061
 1012YOPC   C3A14567   7.573   6.650   6.723  0.3449 -0.1154  0.1250
 1012YOPC   C4A14568   7.856   6.376   6.845  0.0504 -0.2646  0.2021
 1012YOPC   C1B14569   7.392   7.242   5.984  0.1015  0.0434  0.3702
 1012YOPC   C2B14570   7.343   7.282   6.420  0.1745  0.2001  0.1805
 1012YOPC   D3B14571   7.568   7.258   6.731  0.3088  0.5136 -0.0477
 1012YOPC   C4B14572   7.955   7.468   6.871 -0.3545 -0.0007 -0.2342
 1013YOPC   NC314573  13.407   7.263   5.905  0.2549  0.0407  0.0661
 1013YOPC   PO414574  13.243   6.837   5.763 -0.2788 -0.5962 -0.0336
 1013YOPC   GL114575  13.069   6.849   6.196  0.3582 -0.0285  0.0843
 1013YOPC   GL214576  12.685   6.992   6.156  0.2268 -0.0071  0.0127
 1013YOPC   C1A14577  13.120   7.120   6.581 -0.0096 -0.0091  0.3478
 1013YOPC   D2A14578  13.443   7.137   6.813  0.4987  0.1540 -0.0524
 1013YOPC   C3A14579  13.464   7.223   7.249 -0.1895  0.1813  0.0857
 1013YOPC   C4A14580  13.608   7.359   7.739 -0.0258  0.1394  0.0653
 1013YOPC   C1B14581  12.743   6.783   6.598  0.0200  0.1247 -0.1157
 1013YOPC   C2B14582  12.901   6.924   6.985 -0.0926 -0.1366  0.0833
 1013YOPC   D3B14583  13.141   6.835   7.295 -0.1378 -0.0737  0.0955
 1013YOPC   C4B14584  13.372   6.918   7.682  0.1614  0.2198  0.0667
 1014YOPC   NC314585   3.859  15.385   5.154  0.0059 -0.1279  0.3118
 1014YOPC   PO414586   3.370  15.384   5.317  0.0906  0.1024  0.3651
 1014YOPC   GL114587   3.430  15.351   5.739  0.0460  0.1069  0.0463
 1014YOPC   GL214588   3.162  15.258   5.900  0.1141  0.0127  0.1800
 1014YOPC   C1A14589   3.732  15.380   6.036  0.0939 -0.1694 -0.0087
 1014YOPC   D2A14590   4.021  15.102   6.259  0.0456  0.0391 -0.1047
 1014YOPC   C3A14591   4.289  14.878   6.608  0.0336 -0.4722 -0.1084
 1014YOPC   C4A14592   4.221  14.798   7.017 -0.2966  0.2238  0.0483
 1014YOPC   C1B14593   3.114  15.448   6.277 -0.0236 -0.1572  0.0645
 1014YOPC   C2B14594   3.268  15.659   6.650  0.0275 -0.2520 -0.0970
 1014YOPC   D3B14595   3.129  16.039   6.781  0.0413  0.0070  0.1947
 1014YOPC   C4B14596   2.960  15.970   7.159  0.0010  0.0184 -0.3437
 1015YOPC   NC314597   8.532  11.206   5.973 -0.1986  0.2208 -0.1314
 1015YOPC   PO414598   8.574  11.594   5.799 -0.1409 -0.3225  0.0318
 1015YOPC   GL114599   8.656  11.629   6.301  0.2573  0.4029  0.0709
 1015YOPC   GL214600   9.017  11.569   6.495  0.0951 -0.0953 -0.2208
 1015YOPC   C1A14601   8.601  11.959   6.630 -0.2100  0.1116 -0.0805
 1015YOPC   D2A14602   8.677  12.118   7.006  0.1222  0.0936  0.1015
 1015YOPC   C3A14603   9.019  12.380   7.153 -0.2259 -0.1414 -0.0407
 1015YOPC   C4A14604   9.157  12.597   7.566  0.1790 -0.3683  0.2720
 1015YOPC   C1B14605   8.740  11.299   6.751  0.1353 -0.0324 -0.0871
 1015YOPC   C2B14606   8.378  11.066   6.783  0.2242  0.1405 -0.1672
 1015YOPC   D3B14607   7.963  10.869   6.816 -0.1216  0.0049  0.1850
 1015YOPC   C4B14608   7.606  10.656   6.577 -0.0630  0.0784 -0.0380
 1016YOPC   NC314609  11.681  16.187   5.209  0.3105  0.2157 -0.2463
 1016YOPC   PO414610  12.000  16.331   5.286 -0.1618  0.1338 -0.1588
 1016YOPC   GL114611  12.172  16.469   5.758 -0.1471 -0.1636  0.1863
 1016YOPC   GL214612  12.195  16.787   5.909 -0.0278  0.1330 -0.1179
 1016YOPC   C1A14613  12.072  16.397   6.176  0.0030 -0.0793 -0.6129
 1016YOPC   D2A14614  11.949  16.674   6.518  0.0236  0.2984 -0.2720
 1016YOPC   C3A14615  12.009  16.977   6.813 -0.1399  0.0373 -0.0726
 1016YOPC   C4A14616  12.005  17.096   7.289 -0.1084  0.0900  0.1163
 1016YOPC   C1B14617  12.410  16.860   6.373  0.0323  0.2670 -0.0476
 1016YOPC   C2B14618  12.469  16.775   6.699 -0.2647  0.1561  0.0228
 1016YOPC   D3B14619  12.364  16.534   6.897 -0.0991 -0.0749 -0.2184
 1016YOPC   C4B14620  12.215  16.233   6.717 -0.0234 -0.0997  0.0918
 1017YOPC   NC314621  11.495  18.831   5.848  0.1420  0.3311 -0.2894
 1017YOPC   PO414622  11.829  18.450   5.767  0.0262  0.1260 -0.2775
 1017YOPC   GL114623  11.865  18.610   6.163  0.2231 -0.0133 -0.0479
 1017YOPC   GL214624  11.691  18.896   6.352 -0.0963 -0.0737 -0.2142
 1017YOPC   C1A14625  12.222  18.653   6.515  0.5185 -0.3498  0.0733
 1017YOPC   D2A14626  12.432  18.376   6.846  0.2663  0.1251  0.0228
 1017YOPC   C3A14627  12.671  18.289   7.187 -0.1111  0.0576 -0.1824
 1017YOPC   C4A14628  12.846  18.259   7.603 -0.2226 -0.1049 -0.1284
 1017YOPC   C1B14629  11.690  18.572   6.609 -0.2455  0.3931  0.1131
 1017YOPC   C2B14630  11.690  18.185   6.953  0.2968  0.1869  0.0573
 1017YOPC   D3B14631  12.020  17.960   6.970  0.2535 -0.0902  0.2874
 1017YOPC   C4B14632  12.392  17.898   7.112 -0.0603  0.3059  0.1982
 1018YOPC   NC314633   3.480   5.526   5.361  0.2483  0.1983  0.0696
 1018YOPC   PO414634   3.612   5.527   5.736  0.1605 -0.0634  0.0829
 1018YOPC   GL114635   3.800   5.825   5.951  0.0172  0.0211 -0.2266
 1018YOPC   GL214636   3.634   6.125   6.139 -0.0209  0.1890 -0.0999
 1018YOPC   C1A14637   4.040   5.658   6.377 -0.0402  0.1860 -0.3987
 1018YOPC   D2A14638   4.013   5.565   6.832 -0.0665 -0.0293  0.0311
 1018YOPC   C3A14639   4.123   5.759   7.150 -0.0437 -0.0012 -0.1501
 1018YOPC   C4A14640   4.065   5.617   7.582  0.0930 -0.0015 -0.2649
 1018YOPC   C1B14641   3.417   6.077   6.540  0.2552  0.4011 -0.4245
 1018YOPC   C2B14642   3.065   6.029   6.858  0.0609  0.0299  0.1483
 1018YOPC   D3B14643   3.099   5.801   7.239 -0.0473  0.2842 -0.0930
 1018YOPC   C4B14644   3.129   5.489   7.610 -0.0574  0.0846  0.0056
 1019YOPC   NC314645  10.318  11.156   5.367 -0.0656  0.2752  0.0865
 1019YOPC   PO414646  10.308  11.540   5.360  0.0001  0.1011  0.0229
 1019YOPC   GL114647  10.172  11.675   5.747 -0.1869  0.1415  0.2134
 1019YOPC   GL214648  10.163  12.087   5.877  0.2372  0.0083  0.0655
 1019YOPC   C1A14649  10.003  11.423   6.100  0.0753  0.2040 -0.2208
 1019YOPC   D2A14650  10.045  11.310   6.580 -0.0131 -0.2471  0.2264
 1019YOPC   C3A14651  10.457  11.346   6.523 -0.0619 -0.1971 -0.1192
 1019YOPC   C4A14652  10.765  11.155   6.798  0.1401  0.0267  0.1341
 1019YOPC   C1B14653   9.888  12.028   6.120 -0.0899  0.0071 -0.1956
 1019YOPC   C2B14654   9.539  11.973   6.458  0.0709 -0.0482 -0.2519
 1019YOPC   D3B14655   9.559  12.032   6.935 -0.1033  0.0352 -0.2797
 1019YOPC   C4B14656   9.499  11.817   7.297  0.0032  0.3459  0.2170
 1020YOPC   NC314657   9.384   1.654   5.454  0.1507  0.2125  0.1607
 1020YOPC   PO414658   9.013   1.493   5.383 -0.4550  0.2583 -0.0916
 1020YOPC   GL114659   9.038   1.405   5.882  0.4150  0.0382  0.2769
 1020YOPC   GL214660   9.266   1.559   5.955  0.2122 -0.1885  0.1260
 1020YOPC   C1A14661   8.941   1.395   6.252  0.0171  0.1519  0.0881
 1020YOPC   D2A14662   8.738   1.551   6.667  0.3046 -0.2617  0.0280
 1020YOPC   C3A14663   8.555   1.271   6.991 -0.4146  0.1673  0.1302
 1020YOPC   C4A14664   8.430   1.183   7.344 -0.1370  0.1322 -0.2890
 1020YOPC   C1B14665   9.369   1.827   6.211 -0.0282  0.0574  0.0464
 1020YOPC   C2B14666   9.531   2.107   6.551 -0.1241  0.1022  0.1797
 1020YOPC   D3B14667   9.567   1.942   6.972 -0.4423  0.3297  0.3617
 1020YOPC   C4B14668   9.509   1.606   7.183 -0.4486 -0.0669 -0.1170
 1021YOPC   NC314669   5.689   6.246   5.027  0.2029 -0.1899 -0.2081
 1021YOPC   PO414670   5.678   6.491   5.475  0.0254 -0.2208  0.1224
 1021YOPC   GL114671   5.590   6.683   5.869 -0.1596 -0.4763 -0.0046
 1021YOPC   GL214672   5.525   7.060   5.868  0.1319  0.0223 -0.0456
 1021YOPC   C1A14673   5.474   6.739   6.277  0.2472  0.1267 -0.0141
 1021YOPC   D2A14674   5.526   7.001   6.679  0.1313 -0.0667  0.3248
 1021YOPC   C3A14675   5.189   6.914   6.718 -0.0673  0.1059 -0.3172
 1021YOPC   C4A14676   4.851   6.899   6.846 -0.0207  0.1007  0.0592
 1021YOPC   C1B14677   5.848   7.180   6.226 -0.0409  0.0912  0.1847
 1021YOPC   C2B14678   5.962   7.600   6.411 -0.1295 -0.2268  0.2328
 1021YOPC   D3B14679   5.724   7.897   6.541  0.2757 -0.0268  0.0472
 1021YOPC   C4B14680   5.606   8.098   6.996  0.0395  0.3716  0.1579
 1022YOPC   NC314681  11.489  10.197   5.546  0.0178  0.1579  0.1181
 1022YOPC   PO414682  11.140  10.211   5.345 -0.1643 -0.0683 -0.0544
 1022YOPC   GL114683  10.908  10.250   5.749 -0.4004  0.0917 -0.1185
 1022YOPC   GL214684  11.163  10.240   5.961  0.0732 -0.2656 -0.1090
 1022YOPC   C1A14685  10.877  10.649   5.997 -0.0681 -0.1269 -0.0916
 1022YOPC   D2A14686  10.560  10.944   6.219  0.0050  0.0989 -0.0105
 1022YOPC   C3A14687  10.182  10.932   6.071  0.1880 -0.0189  0.1297
 1022YOPC   C4A14688   9.728  11.005   6.048 -0.2368  0.2772  0.1078
 1022YOPC   C1B14689  10.859  10.275   6.279  0.0490  0.1901 -0.1801
 1022YOPC   C2B14690  10.943  10.701   6.591  0.0174  0.1241  0.0755
 1022YOPC   D3B14691  11.072  10.728   7.061  0.1673  0.0996  0.0951
 1022YOPC   C4B14692  11.152  10.365   7.418  0.4992 -0.0872  0.0308
 1023YOPC   NC314693  15.362   0.732   5.540  0.0898  0.0801 -0.0273
 1023YOPC   PO414694  15.168   1.124   5.722 -0.1255  0.4852 -0.1086
 1023YOPC   GL114695  15.021   1.268   6.124 -0.1795  0.0880  0.2924
 1023YOPC   GL214696  15.196   1.367   6.364  0.1669 -0.2183 -0.1319
 1023YOPC   C1A14697  14.682   1.512   6.450 -0.0082 -0.0865 -0.2853
 1023YOPC   D2A14698  14.552   1.707   6.807 -0.0738 -0.1418  0.3104
 1023YOPC   C3A14699  14.606   1.776   7.191  0.2021 -0.0991 -0.0199
 1023YOPC   C4A14700  14.337   1.671   7.598 -0.0842 -0.1846  0.0958
 1023YOPC   C1B14701  15.369   1.802   6.262  0.2765  0.1623  0.0437
 1023YOPC   C2B14702  15.756   1.764   6.390 -0.1409 -0.0675  0.0131
 1023YOPC   D3B14703  16.048   1.386   6.336 -0.2900 -0.5047  0.1428
 1023YOPC   C4B14704  16.246   1.068   6.098 -0.0839  0.1756  0.1397
 1024YOPC   NC314705  18.567  12.862   5.428 -0.1617 -0.0788 -0.3963
 1024YOPC   PO414706  18.244  12.729   5.603  0.2599 -0.1308 -0.0356
 1024YOPC   GL114707  18.426  12.807   5.943 -0.1466  0.0703 -0.0261
 1024YOPC   GL214708  18.710  12.564   5.827 -0.1029 -0.1610  0.2324
 1024YOPC   C1A14709  18.493  12.717   6.450  0.0251 -0.1817  0.1088
 1024YOPC   D2A14710  18.334  12.810   6.794  0.3059 -0.1599  0.0768
 1024YOPC   C3A14711  18.182  12.423   7.124  0.0320 -0.4202 -0.1018
 1024YOPC   C4A14712  18.147  11.974   7.069 -0.0521  0.2532 -0.0180
 1024YOPC   C1B14713  18.939  12.400   6.135 -0.0795  0.1875 -0.0302
 1024YOPC   C2B14714  18.912  12.170   6.515  0.0987  0.1778  0.1037
 1024YOPC   D3B14715  19.002  11.907   6.959  0.1561  0.1067  0.0781
 1024YOPC   C4B14716  19.056  11.922   7.330  0.0418  0.2039  0.1999
 1025YOPC   NC314717  13.131   8.028   5.420  0.0416 -0.1704  0.0256
 1025YOPC   PO414718  13.101   7.689   5.746 -0.1530 -0.1278  0.0168
 1025YOPC   GL114719  12.972   7.684   6.170  0.0477 -0.0624 -0.2898
 1025YOPC   GL214720  12.912   7.398   6.217  0.1576  0.2016  0.1231
 1025YOPC   C1A14721  12.814   8.036   6.476  0.2207  0.1331 -0.0056
 1025YOPC   D2A14722  12.643   8.216   6.758 -0.2779  0.0749 -0.1678
 1025YOPC   C3A14723  12.832   8.691   6.956  0.0557 -0.1878  0.3034
 1025YOPC   C4A14724  13.182   8.968   7.100 -0.0342  0.0560  0.2527
 1025YOPC   C1B14725  12.626   7.250   6.669 -0.1005  0.0014 -0.0104
 1025YOPC   C2B14726  12.490   7.197   7.236  0.0872  0.0364  0.3457
 1025YOPC   D3B14727  12.688   6.932   7.680 -0.4145 -0.1758 -0.0396
 1025YOPC   C4B14728  12.875   6.600   7.789  0.1228 -0.1422  0.1481
 1026YOPC   NC314729   9.773   7.035   5.411  0.0979  0.1112 -0.0088
 1026YOPC   PO414730   9.809   7.340   5.767 -0.3336 -0.2112  0.2686
 1026YOPC   GL114731   9.731   7.580   6.106 -0.2435 -0.2431 -0.0710
 1026YOPC   GL214732   9.868   7.578   6.324  0.2066 -0.0749 -0.0845
 1026YOPC   C1A14733   9.351   7.613   6.353 -0.2793  0.1165 -0.0515
 1026YOPC   D2A14734   8.986   7.847   6.646  0.1894  0.0633 -0.0878
 1026YOPC   C3A14735   8.904   7.661   7.092 -0.0563  0.1332  0.1819
 1026YOPC   C4A14736   8.693   7.420   7.413  0.1944 -0.0891  0.0566
 1026YOPC   C1B14737   9.799   7.786   6.646  0.0305 -0.0840  0.3281
 1026YOPC   C2B14738   9.852   7.607   7.122  0.1664 -0.1814 -0.0459
 1026YOPC   D3B14739   9.559   7.513   7.366  0.4349 -0.0763 -0.1949
 1026YOPC   C4B14740   9.445   7.396   7.803  0.5713  0.1524 -0.0306
 1027YOPC   NC314741  12.513  14.384   5.519  0.2300 -0.1148  0.0614
 1027YOPC   PO414742  12.924  14.323   5.734  0.2757 -0.0760 -0.1038
 1027YOPC   GL114743  13.106  14.377   6.150  0.1749  0.0900  0.1831
 1027YOPC   GL214744  13.247  14.642   6.321 -0.1108 -0.2049  0.0858
 1027YOPC   C1A14745  13.436  14.288   6.562 -0.0627 -0.2234 -0.3152
 1027YOPC   D2A14746  13.533  14.345   6.949  0.0693  0.0955 -0.1437
 1027YOPC   C3A14747  13.918  14.292   7.306 -0.2626 -0.1499  0.2944
 1027YOPC   C4A14748  14.317  14.165   7.407 -0.2046 -0.0894  0.2380
 1027YOPC   C1B14749  12.834  14.687   6.465 -0.2985 -0.1354 -0.2109
 1027YOPC   C2B14750  12.862  15.123   6.595 -0.4411 -0.1710 -0.1581
 1027YOPC   D3B14751  12.876  15.104   7.009 -0.2660  0.1888  0.0429
 1027YOPC   C4B14752  12.496  14.916   7.281 -0.1856 -0.3492  0.1139
 1028YOPC   NC314753  16.480   9.815   5.610  0.3592  0.5497  0.2635
 1028YOPC   PO414754  16.288  10.085   5.704 -0.0132  0.1988 -0.0848
 1028YOPC   GL114755  15.909  10.161   5.975 -0.1964 -0.2790  0.1685
 1028YOPC   GL214756  15.817   9.813   5.958  0.1853 -0.0416 -0.0806
 1028YOPC   C1A14757  15.648  10.315   6.196 -0.0145  0.4005  0.1557
 1028YOPC   D2A14758  15.312  10.646   6.339 -0.0191  0.0608 -0.2467
 1028YOPC   C3A14759  15.227  10.606   6.716 -0.1076  0.0953 -0.0992
 1028YOPC   C4A14760  15.224  10.486   7.106  0.2626 -0.1753 -0.0993
 1028YOPC   C1B14761  15.601   9.720   6.416 -0.0541  0.2190  0.1435
 1028YOPC   C2B14762  15.518   9.314   6.649  0.0812  0.1858  0.2289
 1028YOPC   D3B14763  15.587   9.419   7.079 -0.1355  0.3103  0.0016
 1028YOPC   C4B14764  15.485   9.363   7.547 -0.4951  0.0528  0.2581
 1029YOPC   NC314765  12.245  17.727   5.588 -0.3441  0.0938 -0.0303
 1029YOPC   PO414766  12.208  17.272   5.483 -0.0733  0.0889  0.1789
 1029YOPC   GL114767  12.041  17.403   5.878 -0.0061  0.0631  0.0878
 1029YOPC   GL214768  11.774  17.577   5.820  0.0601 -0.1649 -0.0458
 1029YOPC   C1A14769  11.973  17.169   6.224 -0.2089  0.2182 -0.0052
 1029YOPC   D2A14770  11.694  17.271   6.557 -0.1952  0.1875 -0.0861
 1029YOPC   C3A14771  11.311  17.375   6.387 -0.0841  0.0438 -0.2659
 1029YOPC   C4A14772  10.989  17.253   5.932 -0.0564  0.0234 -0.0247
 1029YOPC   C1B14773  11.734  17.647   6.270  0.0641 -0.0655  0.0560
 1029YOPC   C2B14774  11.595  17.795   6.577 -0.1929 -0.2035 -0.0230
 1029YOPC   D3B14775  11.433  17.531   6.933 -0.3087 -0.2958  0.0742
 1029YOPC   C4B14776  11.538  17.099   7.048 -0.2019 -0.1943 -0.0405
 1030YOPC   NC314777  11.898   7.303   5.972 -0.0127 -0.0352  0.0246
 1030YOPC   PO414778  11.471   7.273   5.976  0.3573  0.1511 -0.0774
 1030YOPC   GL114779  11.574   7.352   6.427  0.2887 -0.2888 -0.1215
 1030YOPC   GL214780  11.777   7.598   6.341  0.1440 -0.4938  0.0325
 1030YOPC   C1A14781  11.347   7.410   6.815  0.1404 -0.0853 -0.2768
 1030YOPC   D2A14782  11.522   7.470   7.199 -0.0714  0.0393 -0.1277
 1030YOPC   C3A14783  11.466   7.679   7.573 -0.0399  0.1681 -0.0080
 1030YOPC   C4A14784  11.414   7.727   8.009  0.3232 -0.0554 -0.0294
 1030YOPC   C1B14785  11.619   7.827   6.713 -0.1096 -0.1505  0.2940
 1030YOPC   C2B14786  11.709   7.939   7.078 -0.1237  0.2725 -0.0859
 1030YOPC   D3B14787  11.781   8.074   7.458 -0.2883  0.0922 -0.0484
 1030YOPC   C4B14788  11.457   8.240   7.855 -0.1546  0.2569  0.1536
 1031YOPC   NC314789   8.287   5.561   5.006  0.2050 -0.2060  0.3300
 1031YOPC   PO414790   8.318   5.348   5.422  0.1168 -0.2277  0.4207
 1031YOPC   GL114791   8.029   5.502   5.697  0.1313 -0.0882  0.0218
 1031YOPC   GL214792   7.692   5.581   5.735 -0.0263  0.1178  0.1081
 1031YOPC   C1A14793   8.078   5.948   5.901  0.2397  0.3054 -0.0744
 1031YOPC   D2A14794   7.920   6.223   6.327  0.2396  0.0291 -0.0346
 1031YOPC   C3A14795   7.956   6.709   6.402  0.0651 -0.0352  0.0384
 1031YOPC   C4A14796   7.844   7.013   6.331  0.0158 -0.0015  0.0403
 1031YOPC   C1B14797   7.885   5.355   6.129  0.1874  0.1844 -0.0655
 1031YOPC   C2B14798   7.856   5.276   6.491  0.2266 -0.2481  0.2503
 1031YOPC   D3B14799   8.125   5.043   6.800 -0.0295 -0.0076 -0.0873
 1031YOPC   C4B14800   8.514   5.026   6.969  0.3353  0.3052  0.0640
 1032YOPC   NC314801   7.421  16.227   5.594 -0.1752  0.1899  0.1599
 1032YOPC   PO414802   7.079  16.214   5.383  0.0924 -0.1527  0.0302
 1032YOPC   GL114803   7.058  16.369   5.865 -0.2704 -0.2048 -0.2063
 1032YOPC   GL214804   7.203  16.705   5.886  0.0367 -0.1619  0.0100
 1032YOPC   C1A14805   6.947  16.564   6.258 -0.0679  0.0026 -0.0194
 1032YOPC   D2A14806   6.765  16.861   6.450 -0.0407  0.0708  0.3975
 1032YOPC   C3A14807   6.619  16.980   6.939 -0.1962 -0.3814  0.3667
 1032YOPC   C4A14808   6.256  16.970   7.260 -0.3473  0.0459  0.0908
 1032YOPC   C1B14809   6.858  17.033   5.957  0.0864 -0.0965 -0.0017
 1032YOPC   C2B14810   6.785  17.303   6.257  0.2530 -0.1277  0.1098
 1032YOPC   D3B14811   6.416  17.273   6.430 -0.2146 -0.0334  0.1692
 1032YOPC   C4B14812   6.366  17.207   5.971  0.1954  0.0381 -0.2880
 1033YOPC   NC314813   1.535  18.629   5.458  0.1568  0.0292  0.1560
 1033YOPC   PO414814   1.352  19.100   5.691 -0.1802 -0.1217 -0.1753
 1033YOPC   GL114815   1.513  19.201   6.108 -0.1854 -0.3420 -0.1606
 1033YOPC   GL214816   1.057  19.173   6.201 -0.0492 -0.0621 -0.0002
 1033YOPC   C1A14817   1.662  19.509   6.464 -0.0153  0.1454  0.0059
 1033YOPC   D2A14818   1.760  19.732   6.821 -0.1861  0.1515 -0.0040
 1033YOPC   C3A14819   1.755  19.838   7.164  0.0814  0.0019  0.0957
 1033YOPC   C4A14820   1.437  19.823   7.335 -0.0180  0.0387 -0.1226
 1033YOPC   C1B14821   1.203  19.241   6.628  0.0319  0.1451 -0.0031
 1033YOPC   C2B14822   1.334  19.520   6.881  0.1032  0.3274 -0.2463
 1033YOPC   D3B14823   1.568  19.378   7.294  0.3102  0.1683  0.2826
 1033YOPC   C4B14824   1.521  19.473   7.757  0.4887  0.1491 -0.1718
 1034YOPC   NC314825   0.167   2.538   5.607  0.0710 -0.1584  0.1047
 1034YOPC   PO414826   0.498   2.825   5.694  0.0902 -0.1825  0.0279
 1034YOPC   GL114827   0.625   2.608   6.038 -0.3984 -0.0159 -0.1701
 1034YOPC   GL214828   0.346   2.436   6.078 -0.0000  0.0626 -0.0288
 1034YOPC   C1A14829   0.895   2.323   6.202  0.0673  0.3565 -0.0457
 1034YOPC   D2A14830   1.180   2.171   6.587 -0.0270 -0.2266  0.2529
 1034YOPC   C3A14831   1.201   2.230   7.014  0.1117  0.1357 -0.0341
 1034YOPC   C4A14832   1.056   2.409   7.406 -0.0911 -0.2052  0.0227
 1034YOPC   C1B14833   0.440   2.609   6.515 -0.0932  0.2874  0.1953
 1034YOPC   C2B14834   0.356   2.580   6.954 -0.1259  0.3760 -0.1517
 1034YOPC   D3B14835   0.664   2.760   7.302  0.1025 -0.0361  0.1643
 1034YOPC   C4B14836   0.540   2.503   7.697  0.2849  0.0420  0.1816
 1035YOPC   NC314837  17.478   0.019   5.238  0.1189  0.1111  0.3667
 1035YOPC   PO414838  17.778  -0.046   5.523  0.0292  0.1118  0.3057
 1035YOPC   GL114839  17.818  -0.108   5.959  0.0413  0.1913 -0.0291
 1035YOPC   GL214840  17.521  -0.159   6.071 -0.1553 -0.1411 -0.2965
 1035YOPC   C1A14841  18.154  -0.126   6.356 -0.0560 -0.0208  0.0043
 1035YOPC   D2A14842  18.215  -0.019   6.811  0.3606 -0.2772  0.2757
 1035YOPC   C3A14843  18.307  -0.299   7.195  0.1918 -0.4977  0.0093
 1035YOPC   C4A14844  18.228  -0.352   7.646  0.1359  0.1100  0.0921
 1035YOPC   C1B14845  17.250  -0.426   6.413 -0.0270 -0.0224 -0.0776
 1035YOPC   C2B14846  17.116  -0.373   6.845 -0.2330 -0.0237 -0.2185
 1035YOPC   D3B14847  17.181  -0.089   7.121 -0.0314  0.1403  0.0881
 1035YOPC   C4B14848  16.903  -0.041   7.282  0.1477  0.0177 -0.1793
 1036YOPC   NC314849   7.360  12.735   5.532 -0.0539 -0.2851 -0.2747
 1036YOPC   PO414850   7.279  13.140   5.734 -0.0252  0.1278  0.0368
 1036YOPC   GL114851   7.574  13.257   6.062 -0.2402 -0.1118 -0.3427
 1036YOPC   GL214852   7.642  13.554   6.037 -0.0252  0.2938  0.1886
 1036YOPC   C1A14853   7.471  13.379   6.479 -0.1122  0.1986  0.0066
 1036YOPC   D2A14854   7.344  13.331   6.693 -0.2958  0.0627  0.1951
 1036YOPC   C3A14855   7.591  13.136   6.927 -0.0169 -0.0199 -0.1044
 1036YOPC   C4A14856   7.896  13.193   7.238  0.0137  0.3784 -0.1922
 1036YOPC   C1B14857   7.857  13.723   6.203 -0.0981 -0.2182  0.0088
 1036YOPC   C2B14858   7.967  14.121   6.196 -0.0916 -0.0025  0.1003
 1036YOPC   D3B14859   7.683  14.388   6.390 -0.1280  0.0303 -0.1793
 1036YOPC   C4B14860   7.661  14.755   6.699  0.2408  0.1919  0.1366
 1037YOPC   NC314861   2.616   6.427   5.387 -0.3345 -0.1097 -0.1792
 1037YOPC   PO414862   2.704   6.770   5.263 -0.0322  0.1882 -0.2278
 1037YOPC   GL114863   2.604   6.825   5.725  0.5451  0.3944  0.1330
 1037YOPC   GL214864   2.657   7.075   5.875 -0.0686  0.2011 -0.1417
 1037YOPC   C1A14865   2.555   6.554   6.102  0.0107 -0.1941 -0.2801
 1037YOPC   D2A14866   2.684   6.482   6.556 -0.0983  0.1237 -0.0073
 1037YOPC   C3A14867   2.593   6.770   6.781  0.1029 -0.2484  0.5245
 1037YOPC   C4A14868   2.306   6.839   7.139 -0.1718  0.2886 -0.2307
 1037YOPC   C1B14869   2.630   7.068   6.355  0.3835  0.0269 -0.0319
 1037YOPC   C2B14870   2.645   7.244   6.659 -0.1269 -0.2491 -0.1862
 1037YOPC   D3B14871   2.685   7.286   7.060 -0.0033 -0.3956  0.3409
 1037YOPC   C4B14872   2.638   7.269   7.478 -0.1991 -0.1064  0.0680
 1038YOPC   NC314873  11.365   3.760   5.459 -0.0774 -0.1594  0.0765
 1038YOPC   PO414874  11.626   3.490   5.767 -0.2151  0.1739 -0.0566
 1038YOPC   GL114875  11.627   3.264   6.194  0.1589  0.2392 -0.1853
 1038YOPC   GL214876  11.950   3.311   6.450 -0.0711  0.0612 -0.3071
 1038YOPC   C1A14877  11.426   3.368   6.649  0.1696  0.0350 -0.0108
 1038YOPC   D2A14878  11.426   3.229   7.125  0.0708 -0.0019 -0.2678
 1038YOPC   C3A14879  11.739   3.423   7.361 -0.0166  0.2211  0.1720
 1038YOPC   C4A14880  12.160   3.503   7.672  0.1729  0.1688 -0.0070
 1038YOPC   C1B14881  12.310   3.325   6.808  0.0653  0.1320  0.0814
 1038YOPC   C2B14882  12.296   3.431   7.197 -0.0639  0.0891 -0.1955
 1038YOPC   D3B14883  12.529   3.256   7.525  0.0094  0.4163 -0.0341
 1038YOPC   C4B14884  12.947   3.355   7.699 -0.0916  0.0410 -0.2428
 1039YOPC   NC314885  18.719  13.808   5.122 -0.3390  0.0111 -0.0223
 1039YOPC   PO414886  18.718  13.363   5.368 -0.1016  0.0967 -0.1131
 1039YOPC   GL114887  18.685  13.661   5.679  0.0422 -0.3153 -0.0953
 1039YOPC   GL214888  18.448  13.842   5.820  0.1188  0.2877 -0.2634
 1039YOPC   C1A14889  18.452  13.429   6.095 -0.2199 -0.3885  0.2190
 1039YOPC   D2A14890  18.296  13.218   6.439 -0.2177  0.1825 -0.0961
 1039YOPC   C3A14891  18.226  13.325   6.838  0.1177  0.0845 -0.0880
 1039YOPC   C4A14892  18.171  13.490   7.191  0.1147  0.4167  0.1191
 1039YOPC   C1B14893  18.353  13.893   6.215  0.1225  0.0907 -0.1796
 1039YOPC   C2B14894  18.332  13.728   6.544 -0.0756  0.3071  0.1094
 1039YOPC   D3B14895  18.663  13.541   6.655 -0.2710 -0.0356 -0.0047
 1039YOPC   C4B14896  18.732  13.209   6.849  0.2345 -0.1240 -0.0159
 1040YOPC   NC314897   6.478  10.714   5.103  0.2491 -0.0139  0.1558
 1040YOPC   PO414898   6.195  10.587   5.281 -0.0901 -0.2753 -0.2642
 1040YOPC   GL114899   6.116  10.483   5.660  0.1736 -0.3138 -0.0653
 1040YOPC   GL214900   6.161  10.681   5.918 -0.3880  0.1437  0.1096
 1040YOPC   C1A14901   5.819  10.361   6.114  0.1382  0.1510 -0.2569
 1040YOPC   D2A14902   5.754  10.101   6.475 -0.0782 -0.3053  0.0259
 1040YOPC   C3A14903   6.132   9.975   6.747 -0.0402 -0.0693  0.0758
 1040YOPC   C4A14904   6.110   9.759   7.159 -0.0273 -0.0892 -0.0009
 1040YOPC   C1B14905   6.082  11.005   6.160 -0.0509 -0.3511  0.0621
 1040YOPC   C2B14906   6.087  11.186   6.572  0.1219 -0.2477  0.2049
 1040YOPC   D3B14907   6.136  11.570   6.715  0.0428 -0.0207  0.2535
 1040YOPC   C4B14908   5.877  11.837   6.978 -0.1516  0.1261  0.1369
 1041YOPC   NC314909   1.200  14.800   5.657  0.0172  0.0914  0.0200
 1041YOPC   PO414910   0.916  15.143   5.740 -0.0873 -0.5814 -0.4432
 1041YOPC   GL114911   0.743  15.221   6.103  0.0715 -0.3338  0.1239
 1041YOPC   GL214912   0.688  15.560   6.254 -0.1110  0.2110  0.0333
 1041YOPC   C1A14913   0.646  15.078   6.435  0.3747  0.0802  0.0570
 1041YOPC   D2A14914   0.744  15.035   6.909  0.0392  0.0598 -0.2631
 1041YOPC   C3A14915   0.483  14.966   7.192 -0.1583 -0.1212 -0.2928
 1041YOPC   C4A14916   0.230  14.666   7.492 -0.0016  0.0421 -0.0088
 1041YOPC   C1B14917   0.731  15.567   6.750  0.1878  0.0267  0.0670
 1041YOPC   C2B14918   0.922  15.507   7.232  0.0594 -0.3385  0.2527
 1041YOPC   D3B14919   0.619  15.412   7.544 -0.2156  0.1946 -0.1258
 1041YOPC   C4B14920   0.585  14.982   7.748 -0.1925  0.0308 -0.0277
 1042YOPC   NC314921   7.454   9.824   5.554 -0.2032  0.0794 -0.3118
 1042YOPC   PO414922   7.009  10.025   5.603  0.1100  0.0720  0.1666
 1042YOPC   GL114923   7.048   9.926   5.924  0.1107  0.3473 -0.0069
 1042YOPC   GL214924   7.060  10.098   6.165 -0.0008 -0.1138 -0.0059
 1042YOPC   C1A14925   6.785   9.647   6.190 -0.0965  0.0585 -0.2942
 1042YOPC   D2A14926   6.527   9.794   6.441  0.0034  0.1428 -0.4296
 1042YOPC   C3A14927   6.682  10.163   6.625 -0.0068  0.1676  0.1132
 1042YOPC   C4A14928   7.152  10.382   6.635  0.0712  0.2438  0.4303
 1042YOPC   C1B14929   6.902  10.473   6.199  0.0756 -0.2552  0.3857
 1042YOPC   C2B14930   6.652  10.716   6.036  0.0005  0.2785 -0.2297
 1042YOPC   D3B14931   6.561  10.948   6.380  0.2034 -0.1507 -0.0291
 1042YOPC   C4B14932   6.546  11.401   6.351  0.1665 -0.1584  0.1924
 1043YOPC   NC314933   2.389  16.247   5.650  0.0307  0.1149 -0.0126
 1043YOPC   PO414934   2.787  16.250   5.601  0.0460  0.1420 -0.0248
 1043YOPC   GL114935   2.769  16.273   6.115 -0.1864  0.0504  0.1142
 1043YOPC   GL214936   2.388  16.182   6.163 -0.0891 -0.0303 -0.0130
 1043YOPC   C1A14937   2.711  16.302   6.623  0.2660 -0.0827 -0.2247
 1043YOPC   D2A14938   2.450  16.280   7.015 -0.1819 -0.1453  0.2533
 1043YOPC   C3A14939   2.189  16.585   7.175 -0.1884 -0.0713 -0.3124
 1043YOPC   C4A14940   2.158  16.615   7.612  0.2225  0.1423  0.1915
 1043YOPC   C1B14941   1.976  16.382   6.297  0.1004  0.1489  0.0746
 1043YOPC   C2B14942   1.903  16.807   6.464 -0.1937  0.0472 -0.1033
 1043YOPC   D3B14943   1.763  16.853   6.893 -0.4534 -0.2027 -0.3665
 1043YOPC   C4B14944   1.530  17.234   7.022  0.3590 -0.1317 -0.1689
 1044YOPC   NC314945  17.869  10.787   5.882  0.3418 -0.3595  0.2066
 1044YOPC   PO414946  17.444  10.938   6.016  0.0669  0.0182 -0.1907
 1044YOPC   GL114947  17.503  11.060   6.435 -0.0084 -0.0548 -0.0326
 1044YOPC   GL214948  17.833  11.147   6.488  0.2581 -0.1767 -0.3299
 1044YOPC   C1A14949  17.424  11.143   6.894 -0.0296 -0.0964  0.1271
 1044YOPC   D2A14950  17.359  10.887   7.203 -0.2706 -0.2106  0.1450
 1044YOPC   C3A14951  17.412  10.412   7.401 -0.3668 -0.0130 -0.0517
 1044YOPC   C4A14952  17.437  10.147   7.777 -0.3044 -0.0183  0.0373
 1044YOPC   C1B14953  17.873  10.826   6.783 -0.2098 -0.2592 -0.2078
 1044YOPC   C2B14954  17.981  10.422   7.058 -0.2390 -0.3084 -0.0399
 1044YOPC   D3B14955  17.875  10.443   7.497 -0.2314 -0.1314 -0.0659
 1044YOPC   C4B14956  18.173  10.377   7.830 -0.6767 -0.0997 -0.1750
 1045YOPC   NC314957  10.018   5.112   5.065 -0.1717  0.2806  0.5227
 1045YOPC   PO414958  10.107   4.973   5.660  0.0544 -0.1452 -0.1479
 1045YOPC   GL114959  10.176   4.847   6.078  0.0226 -0.0099  0.2567
 1045YOPC   GL214960  10.450   4.795   5.985  0.0142  0.0365  0.0449
 1045YOPC   C1A14961  10.305   4.805   6.474 -0.0042  0.0463  0.0716
 1045YOPC   D2A14962  10.281   4.737   6.964 -0.0956  0.0166  0.1386
 1045YOPC   C3A14963  10.308   4.422   7.164 -0.1581 -0.1044  0.0454
 1045YOPC   C4A14964  10.128   4.025   7.096  0.3530  0.1818  0.0596
 1045YOPC   C1B14965  10.621   5.148   6.187  0.2399  0.1869  0.3073
 1045YOPC   C2B14966  10.766   5.312   6.602 -0.0663  0.0357 -0.0070
 1045YOPC   D3B14967  10.614   5.535   7.025 -0.0977 -0.1612  0.1888
 1045YOPC   C4B14968  10.134   5.709   6.995 -0.0270  0.3038  0.2759
 1046YOPC   NC314969  13.020   5.424   5.568  0.0490  0.0965 -0.3184
 1046YOPC   PO414970  13.013   5.128   5.839 -0.1189  0.1479  0.1651
 1046YOPC   GL114971  12.865   4.887   6.183 -0.1747  0.1083  0.1145
 1046YOPC   GL214972  12.678   4.596   6.095 -0.0398 -0.4750 -0.1614
 1046YOPC   C1A14973  12.556   4.974   6.480  0.0695  0.0133  0.1111
 1046YOPC   D2A14974  12.220   5.070   6.667 -0.1181  0.0163  0.0214
 1046YOPC   C3A14975  12.196   5.283   7.044  0.3093  0.0047 -0.0194
 1046YOPC   C4A14976  12.208   5.395   7.498  0.4550  0.1395 -0.1363
 1046YOPC   C1B14977  12.770   4.535   6.537 -0.0941 -0.0186  0.0790
 1046YOPC   C2B14978  12.877   4.460   6.996 -0.1500  0.2118 -0.0060
 1046YOPC   D3B14979  12.698   4.648   7.391  0.1223 -0.1722  0.1644
 1046YOPC   C4B14980  12.537   5.030   7.599  0.1606 -0.1541 -0.0542
 1047YOPC   NC314981   7.393   6.622   5.241  0.2544  0.1253 -0.2991
 1047YOPC   PO414982   6.887   6.653   5.193  0.0583  0.0050 -0.1021
 1047YOPC   GL114983   6.945   6.689   5.610 -0.0868 -0.0338 -0.0499
 1047YOPC   GL214984   7.211   6.620   5.700  0.0036 -0.1260  0.0745
 1047YOPC   C1A14985   6.982   6.950   6.059  0.1333 -0.0393 -0.3942
 1047YOPC   D2A14986   6.818   7.117   6.417 -0.0419 -0.2076  0.1787
 1047YOPC   C3A14987   7.130   6.899   6.749  0.2485  0.0057 -0.2653
 1047YOPC   C4A14988   7.120   6.495   6.938  0.0055 -0.2681 -0.0453
 1047YOPC   C1B14989   6.964   6.417   6.093 -0.0180  0.1922 -0.1891
 1047YOPC   C2B14990   6.785   6.497   6.524 -0.0753 -0.2593  0.0322
 1047YOPC   D3B14991   6.640   6.887   6.785  0.0278 -0.1002 -0.0215
 1047YOPC   C4B14992   6.830   7.271   6.899  0.1918  0.3273  0.4500
 1048YOPC   NC314993   4.166   2.898   5.469 -0.0643 -0.2590  0.1190
 1048YOPC   PO414994   4.095   2.511   5.798 -0.2803  0.1289  0.1831
 1048YOPC   GL114995   3.994   2.702   6.157  0.0909  0.0972  0.0945
 1048YOPC   GL214996   3.777   2.871   5.950 -0.1622 -0.0239  0.2080
 1048YOPC   C1A14997   3.875   2.927   6.468  0.1561 -0.2090 -0.0218
 1048YOPC   D2A14998   3.986   3.148   6.831 -0.1442 -0.0378  0.0340
 1048YOPC   C3A14999   3.786   3.138   7.230  0.3415  0.1863 -0.0081
 1048YOPC   C4A15000   3.813   3.435   7.576  0.1689 -0.0023 -0.0462
 1048YOPC   C1B15001   3.388   2.920   6.207  0.2743  0.4045  0.0292
 1048YOPC   C2B15002   3.158   2.715   6.544 -0.2170  0.0897  0.0990
 1048YOPC   D3B15003   3.063   2.287   6.687 -0.1088 -0.2715 -0.3450
 1048YOPC   C4B15004   3.006   1.968   6.951 -0.2362 -0.1861 -0.0617
 1049YOPC   NC315005  16.111   0.825   5.265 -0.0793 -0.0227 -0.0785
 1049YOPC   PO415006  15.769   0.481   5.453  0.1911  0.0652 -0.0940
 1049YOPC   GL115007  15.739   0.345   5.830  0.1747 -0.0090  0.0914
 1049YOPC   GL215008  15.879   0.245   6.156 -0.1285 -0.0554 -0.2225
 1049YOPC   C1A15009  15.687   0.671   6.143  0.0554 -0.0695  0.2073
 1049YOPC   D2A15010  15.814   0.997   6.359 -0.0682  0.3435 -0.1393
 1049YOPC   C3A15011  15.582   1.324   6.626  0.0781  0.0132 -0.0335
 1049YOPC   C4A15012  15.503   1.632   6.845  0.0070  0.2719  0.1285
 1049YOPC   C1B15013  15.810   0.400   6.596  0.0725 -0.4162 -0.0803
 1049YOPC   C2B15014  15.893   0.784   6.826  0.1653  0.1609 -0.0911
 1049YOPC   D3B15015  15.794   0.967   7.209  0.0965  0.1137  0.0816
 1049YOPC   C4B15016  15.587   1.148   7.577  0.1554  0.0930 -0.1612
 1050YOPC   NC315017   2.937   7.174   5.128  0.3547  0.1921  0.0538
 1050YOPC   PO415018   2.835   7.412   5.462  0.1875  0.0342  0.2022
 1050YOPC   GL115019   2.754   7.565   5.920 -0.0252  0.0432  0.1919
 1050YOPC   GL215020   2.456   7.519   6.031 -0.1309 -0.0419 -0.0005
 1050YOPC   C1A15021   2.855   7.591   6.346 -0.1455  0.0144  0.2050
 1050YOPC   D2A15022   2.863   7.804   6.669 -0.0810  0.1859 -0.2066
 1050YOPC   C3A15023   3.015   7.654   7.100  0.0952 -0.1283  0.0704
 1050YOPC   C4A15024   3.221   7.327   7.359  0.1395 -0.1441 -0.2016
 1050YOPC   C1B15025   2.208   7.365   6.359  0.0449  0.3176  0.2634
 1050YOPC   C2B15026   2.169   7.095   6.666  0.1410 -0.0097 -0.2879
 1050YOPC   D3B15027   2.146   7.373   7.006 -0.1373 -0.4895  0.0498
 1050YOPC   C4B15028   1.940   7.872   7.052  0.0747  0.0984  0.1208
 1051YOPC   NC315029  13.454   4.703   5.765 -0.1582  0.3389  0.1937
 1051YOPC   PO415030  13.851   4.983   5.786  0.2320 -0.0668  0.4132
 1051YOPC   GL115031  13.596   4.908   6.180 -0.0426  0.1223 -0.0531
 1051YOPC   GL215032  13.697   4.657   6.194  0.0179  0.0429  0.1736
 1051YOPC   C1A15033  13.374   4.935   6.563 -0.1189 -0.1592 -0.0969
 1051YOPC   D2A15034  13.410   5.066   6.999  0.1204  0.3694 -0.0725
 1051YOPC   C3A15035  13.217   4.801   7.225  0.0936  0.0812  0.0605
 1051YOPC   C4A15036  13.153   4.847   7.695  0.1812 -0.2761 -0.1067
 1051YOPC   C1B15037  13.748   4.325   6.434  0.1062 -0.2490 -0.0919
 1051YOPC   C2B15038  13.989   4.080   6.642  0.1052  0.3499 -0.0828
 1051YOPC   D3B15039  14.054   4.258   7.073  0.2593  0.0186  0.1245
 1051YOPC   C4B15040  14.098   4.269   7.506 -0.1285  0.2563 -0.1080
 1052YOPC   NC315041  12.562  14.977   5.036 -0.1218  0.1937  0.2219
 1052YOPC   PO415042  12.783  14.741   5.419 -0.2636 -0.2205  0.0285
 1052YOPC   GL115043  12.564  14.813   5.776 -0.0088  0.4955  0.0227
 1052YOPC   GL215044  12.865  14.805   5.886  0.0885  0.0774 -0.0091
 1052YOPC   C1A15045  12.547  14.975   6.219  0.0126 -0.2094 -0.0910
 1052YOPC   D2A15046  12.418  15.248   6.526 -0.1537 -0.3170 -0.1528
 1052YOPC   C3A15047  12.019  15.344   6.686 -0.3984  0.0235 -0.3482
 1052YOPC   C4A15048  12.000  15.212   7.197 -0.1251  0.0313  0.2610
 1052YOPC   C1B15049  13.072  15.047   6.094  0.2509 -0.0086 -0.1362
 1052YOPC   C2B15050  13.232  15.371   6.312  0.0906 -0.3242  0.0742
 1052YOPC   D3B15051  13.266  15.394   6.798 -0.0520  0.2505 -0.0513
 1052YOPC   C4B15052  13.298  15.346   7.205  0.1295  0.0737  0.2375
 1053YOPC   NC315053  13.678   6.635   5.590  0.0706 -0.1355  0.1988
 1053YOPC   PO415054  13.474   6.400   5.339  0.2769 -0.1171  0.1752
 1053YOPC   GL115055  13.340   6.365   5.822 -0.3294  0.1723 -0.2317
 1053YOPC   GL215056  13.597   6.386   6.069 -0.1886  0.0369 -0.3685
 1053YOPC   C1A15057  13.136   6.280   6.272 -0.0426  0.2609  0.2463
 1053YOPC   D2A15058  13.312   6.168   6.616 -0.0626  0.0950  0.0504
 1053YOPC   C3A15059  13.275   5.710   6.660  0.1324 -0.1194  0.3957
 1053YOPC   C4A15060  13.134   5.504   6.907 -0.4375 -0.0247  0.0343
 1053YOPC   C1B15061  13.451   6.628   6.511  0.2355 -0.1137  0.0518
 1053YOPC   C2B15062  13.355   6.586   6.921 -0.1613 -0.2549 -0.2952
 1053YOPC   D3B15063  13.235   6.300   7.254  0.1857 -0.0892 -0.2184
 1053YOPC   C4B15064  13.272   5.988   7.045  0.0641  0.1535 -0.0986
 1054YOPC   NC315065   9.499   1.180   5.648 -0.2659  0.3547  0.0653
 1054YOPC   PO415066   9.114   0.980   5.540  0.3219  0.2008 -0.0635
 1054YOPC   GL115067   8.825   0.884   5.920  0.3455  0.1884 -0.1679
 1054YOPC   GL215068   8.568   1.198   5.953 -0.1273  0.0063  0.2149
 1054YOPC   C1A15069   8.744   0.685   6.354  0.0357  0.1493  0.1566
 1054YOPC   D2A15070   8.598   0.510   6.611  0.5134 -0.1650 -0.1381
 1054YOPC   C3A15071   8.273   0.726   6.639 -0.0670 -0.2450 -0.1504
 1054YOPC   C4A15072   8.098   0.776   7.083  0.2264 -0.1595 -0.1643
 1054YOPC   C1B15073   8.489   1.176   6.390 -0.0261  0.0064  0.1073
 1054YOPC   C2B15074   8.206   1.493   6.578 -0.1918  0.2868 -0.0007
 1054YOPC   D3B15075   7.817   1.476   6.448  0.1233  0.1650 -0.2375
 1054YOPC   C4B15076   7.426   1.683   6.341  0.1162 -0.0640  0.0933
 1055YOPC   NC315077   0.843   8.651   5.638 -0.0948  0.2571 -0.1769
 1055YOPC   PO415078   0.578   8.312   5.551  0.1545 -0.0057 -0.2977
 1055YOPC   GL115079   0.760   8.220   5.927 -0.1902  0.2155  0.2533
 1055YOPC   GL215080   0.508   8.469   6.026 -0.2043  0.4054  0.0130
 1055YOPC   C1A15081   0.887   8.329   6.327 -0.0344 -0.3720  0.3102
 1055YOPC   D2A15082   0.704   8.572   6.677  0.0162 -0.2234  0.0557
 1055YOPC   C3A15083   0.724   8.315   7.086 -0.0737  0.3272  0.1121
 1055YOPC   C4A15084   0.579   8.186   7.428  0.2392  0.1437  0.2397
 1055YOPC   C1B15085   0.281   8.332   6.406 -0.1704  0.0631  0.3278
 1055YOPC   C2B15086   0.179   8.381   6.902 -0.1567 -0.2280 -0.0975
 1055YOPC   D3B15087   0.395   8.701   7.315 -0.1923  0.1728  0.5051
 1055YOPC   C4B15088   0.796   8.612   7.598  0.2182  0.2071  0.0413
 1056YOPC   NC315089   4.728  17.382   5.504  0.0089 -0.0682  0.2303
 1056YOPC   PO415090   4.842  17.009   5.741 -0.2005  0.0690  0.0659
 1056YOPC   GL115091   4.661  16.975   6.170  0.1850  0.0253 -0.0459
 1056YOPC   GL215092   4.553  16.576   6.167 -0.1351  0.0628  0.0321
 1056YOPC   C1A15093   4.614  16.786   6.611  0.0223  0.0072  0.1001
 1056YOPC   D2A15094   4.313  16.654   7.007 -0.1484  0.3473 -0.3259
 1056YOPC   C3A15095   4.397  16.848   7.311  0.0128 -0.1238 -0.4584
 1056YOPC   C4A15096   4.342  16.958   7.778  0.0188  0.0091 -0.0636
 1056YOPC   C1B15097   4.680  16.250   6.614 -0.2092 -0.1864 -0.1217
 1056YOPC   C2B15098   4.705  16.245   7.062 -0.2436  0.2689  0.1997
 1056YOPC   D3B15099   4.801  16.610   7.157 -0.6110  0.1550 -0.2253
 1056YOPC   C4B15100   4.979  16.910   6.978  0.2445 -0.1131  0.0799
 1057YOPC   NC315101  13.877   3.334   5.935  0.0332 -0.0118  0.0495
 1057YOPC   PO415102  13.690   3.734   5.757  0.2460 -0.2443 -0.1986
 1057YOPC   GL115103  13.641   3.903   6.106 -0.0933 -0.4486 -0.2122
 1057YOPC   GL215104  13.914   3.720   6.272 -0.1889 -0.0825  0.2375
 1057YOPC   C1A15105  13.496   3.856   6.581  0.0096  0.1415  0.4814
 1057YOPC   D2A15106  13.510   3.876   6.976 -0.4114  0.1168  0.2034
 1057YOPC   C3A15107  13.641   4.041   7.366  0.1247 -0.0564 -0.1058
 1057YOPC   C4A15108  13.425   4.112   7.727 -0.0911  0.0220 -0.1304
 1057YOPC   C1B15109  13.693   3.421   6.530 -0.0680 -0.1706 -0.1575
 1057YOPC   C2B15110  13.603   3.327   6.846  0.0004 -0.0778 -0.0921
 1057YOPC   D3B15111  13.641   2.895   7.020 -0.2492 -0.1351 -0.1114
 1057YOPC   C4B15112  13.803   2.631   7.239  0.1514  0.0709  0.0193
 1058YOPC   NC315113   2.692  16.643   5.274  0.0870  0.3360 -0.0739
 1058YOPC   PO415114   2.252  16.681   5.455  0.0835 -0.0880  0.0477
 1058YOPC   GL115115   2.416  16.780   5.787  0.1721  0.0207 -0.2166
 1058YOPC   GL215116   2.850  16.892   5.734  0.3117 -0.2729  0.0411
 1058YOPC   C1A15117   2.419  16.694   6.239 -0.1385 -0.0457 -0.3409
 1058YOPC   D2A15118   2.304  16.588   6.639  0.6207 -0.2230 -0.1895
 1058YOPC   C3A15119   2.194  16.063   6.623  0.0875  0.0935 -0.1369
 1058YOPC   C4A15120   2.051  15.646   6.802  0.1326 -0.1940  0.1222
 1058YOPC   C1B15121   2.895  16.715   6.113  0.0056 -0.3806 -0.0130
 1058YOPC   C2B15122   3.180  16.511   6.340 -0.2612  0.0676 -0.0267
 1058YOPC   D3B15123   3.254  16.084   6.310  0.2695 -0.4362  0.2487
 1058YOPC   C4B15124   3.428  15.809   6.212 -0.1057 -0.2579 -0.1589
 1059YOPC   NC315125   7.445   0.482   5.209 -0.1887  0.1924  0.0642
 1059YOPC   PO415126   7.168   0.221   5.319  0.0582  0.0985  0.3937
 1059YOPC   GL115127   7.169   0.457   5.707 -0.0850  0.0704  0.1342
 1059YOPC   GL215128   7.404   0.747   5.840  0.3252  0.0958 -0.1061
 1059YOPC   C1A15129   7.173   0.232   6.106 -0.1020  0.0626 -0.4117
 1059YOPC   D2A15130   7.307   0.088   6.523 -0.1353  0.2090 -0.0079
 1059YOPC   C3A15131   7.496  -0.262   6.731 -0.1586  0.0275 -0.2534
 1059YOPC   C4A15132   7.699  -0.321   7.128 -0.0197  0.1861 -0.3250
 1059YOPC   C1B15133   7.531   0.572   6.267  0.0584 -0.0635 -0.0837
 1059YOPC   C2B15134   7.723   0.468   6.651  0.0206 -0.3436  0.2491
 1059YOPC   D3B15135   7.601   0.874   6.860  0.1768 -0.0890 -0.3488
 1059YOPC   C4B15136   7.545   1.080   7.132 -0.1219  0.0293  0.0657
 1060YOPC   NC315137  17.052   9.331   5.699 -0.2916  0.1957  0.1989
 1060YOPC   PO415138  16.842   9.659   5.907  0.1720 -0.2572  0.0999
 1060YOPC   GL115139  16.703   9.345   6.106 -0.0296  0.1861  0.0556
 1060YOPC   GL215140  16.987   9.279   6.170 -0.0157  0.0235 -0.2226
 1060YOPC   C1A15141  16.592   9.241   6.543  0.0152  0.3729  0.1524
 1060YOPC   D2A15142  16.626   9.209   6.977 -0.0967 -0.2072  0.1072
 1060YOPC   C3A15143  16.882   8.923   7.138 -0.2730  0.4174  0.2558
 1060YOPC   C4A15144  17.208   8.664   6.894 -0.0223  0.2711 -0.0599
 1060YOPC   C1B15145  17.406   9.236   6.428 -0.0720 -0.1075  0.2323
 1060YOPC   C2B15146  17.738   8.957   6.642 -0.1457  0.0848  0.2147
 1060YOPC   D3B15147  17.721   8.890   7.019  0.2202 -0.0529 -0.4283
 1060YOPC   C4B15148  17.412   8.958   7.330 -0.3782 -0.1447  0.1380
 1061YOPC   NC315149  14.134  12.398   5.479 -0.2348 -0.2039 -0.1448
 1061YOPC   PO415150  14.410  12.242   5.759 -0.1851 -0.0722 -0.1452
 1061YOPC   GL115151  14.489  12.599   6.094  0.2379 -0.1304 -0.3819
 1061YOPC   GL215152  14.802  12.855   6.115 -0.1672 -0.2440  0.0226
 1061YOPC   C1A15153  14.371  12.859   6.441  0.1409 -0.1839 -0.0345
 1061YOPC   D2A15154  14.328  12.838   6.875  0.2785  0.0042  0.3040
 1061YOPC   C3A15155  14.812  13.035   7.083  0.1125 -0.1173 -0.1180
 1061YOPC   C4A15156  15.102  12.987   7.382  0.0673 -0.1101  0.0149
 1061YOPC   C1B15157  14.879  12.919   6.601 -0.0598 -0.1431 -0.1380
 1061YOPC   C2B15158  15.341  13.019   6.953  0.2594  0.0280 -0.2088
 1061YOPC   D3B15159  15.615  12.746   7.033 -0.2323  0.0250  0.1809
 1061YOPC   C4B15160  15.908  12.587   7.054  0.0480  0.0717  0.2256
 1062YOPC   NC315161   9.680  13.448   5.448  0.1463 -0.1685 -0.0036
 1062YOPC   PO415162   9.710  13.607   5.795  0.0253 -0.2269  0.3592
 1062YOPC   GL115163  10.072  13.491   6.041  0.3476 -0.0292 -0.0251
 1062YOPC   GL215164  10.368  13.707   6.054  0.0056  0.7163 -0.0208
 1062YOPC   C1A15165  10.369  13.352   6.380 -0.1475  0.0728 -0.0492
 1062YOPC   D2A15166  10.614  13.345   6.749 -0.3189  0.0762 -0.0492
 1062YOPC   C3A15167  10.412  13.283   7.155  0.2101 -0.0491 -0.1352
 1062YOPC   C4A15168  10.417  12.853   7.456 -0.1339  0.2051  0.1648
 1062YOPC   C1B15169  10.611  13.756   6.413 -0.0250  0.0461  0.0360
 1062YOPC   C2B15170  10.730  13.836   6.956 -0.0056  0.0272 -0.0112
 1062YOPC   D3B15171  10.922  13.466   7.141 -0.0707  0.1046  0.0535
 1062YOPC   C4B15172  11.198  13.160   7.341  0.0705  0.2753 -0.1686
 1063YOPC   NC315173  15.250  15.951   5.401 -0.0883 -0.0116  0.0645
 1063YOPC   PO415174  15.603  16.009   5.465 -0.3506  0.2238 -0.1443
 1063YOPC   GL115175  15.814  15.980   5.838 -0.1749 -0.0523 -0.0539
 1063YOPC   GL215176  16.094  16.136   5.842  0.0561  0.3223  0.1831
 1063YOPC   C1A15177  15.940  16.156   6.282  0.0269 -0.1123  0.1241
 1063YOPC   D2A15178  15.787  16.217   6.650  0.0587 -0.1412  0.0006
 1063YOPC   C3A15179  15.609  15.915   6.872  0.1229  0.0021 -0.1193
 1063YOPC   C4A15180  15.546  15.911   7.269  0.1058 -0.3377  0.3501
 1063YOPC   C1B15181  16.391  16.076   6.093  0.1782 -0.0053  0.1696
 1063YOPC   C2B15182  16.726  16.076   6.378  0.3530  0.3038 -0.1140
 1063YOPC   D3B15183  16.692  15.957   6.760 -0.0625  0.1581 -0.1101
 1063YOPC   C4B15184  16.430  15.575   6.980 -0.0042  0.2505 -0.1064
 1064YOPC   NC315185   4.123   3.450   5.416 -0.1403  0.0442 -0.1369
 1064YOPC   PO415186   3.776   3.667   5.590  0.3257 -0.0757  0.3034
 1064YOPC   GL115187   4.133   3.374   5.898 -0.0763  0.1297 -0.0040
 1064YOPC   GL215188   4.411   3.553   5.925 -0.3474 -0.0478 -0.1409
 1064YOPC   C1A15189   4.200   3.282   6.372 -0.4630  0.1606 -0.1603
 1064YOPC   D2A15190   4.475   3.427   6.671 -0.1340  0.4359  0.2646
 1064YOPC   C3A15191   4.331   3.461   7.067 -0.2510 -0.0528 -0.0235
 1064YOPC   C4A15192   4.273   3.721   7.374 -0.0032  0.1017 -0.0112
 1064YOPC   C1B15193   4.730   3.358   6.211 -0.1319 -0.1933 -0.1579
 1064YOPC   C2B15194   4.950   3.192   6.571  0.0480 -0.5632 -0.1530
 1064YOPC   D3B15195   4.896   3.318   7.038  0.1336 -0.0472 -0.0970
 1064YOPC   C4B15196   4.756   3.627   7.329 -0.1156 -0.1065  0.0251
 1065YOPC   NC315197  13.588  16.922   5.484  0.0890 -0.0775 -0.1497
 1065YOPC   PO415198  13.601  16.596   5.290 -0.1153  0.0240 -0.2424
 1065YOPC   GL115199  13.476  16.435   5.666 -0.5508 -0.2104 -0.1520
 1065YOPC   GL215200  13.333  16.136   5.670  0.1750  0.1493  0.1295
 1065YOPC   C1A15201  13.200  16.479   6.022  0.1786 -0.3702 -0.2226
 1065YOPC   D2A15202  13.227  16.511   6.477  0.2077 -0.0594  0.1018
 1065YOPC   C3A15203  13.489  16.530   6.828 -0.1320 -0.0593 -0.2172
 1065YOPC   C4A15204  13.819  16.642   7.031 -0.3177  0.0823  0.2697
 1065YOPC   C1B15205  13.653  15.994   5.898  0.0949 -0.0164  0.1979
 1065YOPC   C2B15206  13.876  16.029   6.308 -0.0671 -0.2177  0.0475
 1065YOPC   D3B15207  14.245  16.222   6.341  0.2924 -0.0863  0.1844
 1065YOPC   C4B15208  14.600  16.426   6.444 -0.0004  0.2165 -0.0866
 1066YOPC   NC315209   5.089  15.312   4.899  0.0387 -0.1939 -0.2769
 1066YOPC   PO415210   5.298  15.096   5.189 -0.1495  0.2249 -0.1734
 1066YOPC   GL115211   5.346  15.216   5.651 -0.1656  0.2098  0.2437
 1066YOPC   GL215212   5.115  15.337   5.960  0.0679 -0.0702  0.1405
 1066YOPC   C1A15213   5.633  15.281   6.035  0.1586 -0.1214 -0.1089
 1066YOPC   D2A15214   5.903  15.603   6.413 -0.3563  0.1976 -0.0023
 1066YOPC   C3A15215   6.091  15.343   6.698  0.3004 -0.0943  0.0346
 1066YOPC   C4A15216   6.457  15.406   6.961 -0.1261  0.0427  0.2130
 1066YOPC   C1B15217   5.158  15.068   6.300 -0.2154  0.2559  0.5088
 1066YOPC   C2B15218   5.581  15.184   6.580  0.1129  0.2697  0.0613
 1066YOPC   D3B15219   5.896  14.849   6.738 -0.0270  0.2998  0.3579
 1066YOPC   C4B15220   5.886  14.480   6.438 -0.1895  0.0223  0.0989
 1067YOPC   NC315221   6.288  10.037   5.227 -0.1060 -0.1168 -0.0796
 1067YOPC   PO415222   6.038   9.686   5.372  0.1233  0.1743 -0.0377
 1067YOPC   GL115223   6.044   9.197   5.448 -0.1406 -0.1458  0.0385
 1067YOPC   GL215224   5.811   9.317   5.722  0.0407  0.0378 -0.0395
 1067YOPC   C1A15225   6.280   8.934   5.715 -0.0868  0.0569  0.1289
 1067YOPC   D2A15226   6.446   8.872   6.109  0.0926 -0.1304  0.2466
 1067YOPC   C3A15227   6.495   9.264   6.337  0.1181  0.1494 -0.1131
 1067YOPC   C4A15228   6.380   9.392   6.755  0.2889  0.2327 -0.0286
 1067YOPC   C1B15229   5.703   8.877   5.858 -0.0713  0.0802  0.1147
 1067YOPC   C2B15230   5.875   8.727   6.301  0.3491 -0.4316 -0.5575
 1067YOPC   D3B15231   5.705   8.925   6.648 -0.1927 -0.0704 -0.0357
 1067YOPC   C4B15232   5.904   9.190   6.978  0.3112  0.0534 -0.0486
 1068YOPC   NC315233  10.630  13.585   5.203  0.2580  0.0054  0.3339
 1068YOPC   PO415234  10.753  13.225   5.483  0.4432 -0.0601 -0.3233
 1068YOPC   GL115235  10.722  13.045   5.994  0.0749  0.1102  0.0118
 1068YOPC   GL215236  11.054  12.949   5.942  0.1071 -0.1320 -0.1372
 1068YOPC   C1A15237  10.622  12.757   6.317 -0.1394  0.1490  0.0095
 1068YOPC   D2A15238  10.851  12.529   6.576  0.0251  0.0428  0.0503
 1068YOPC   C3A15239  10.841  12.495   7.039 -0.2390  0.1689  0.1016
 1068YOPC   C4A15240  11.010  12.692   7.464  0.0382  0.2539 -0.2110
 1068YOPC   C1B15241  11.258  12.761   6.282 -0.0641  0.0723 -0.0634
 1068YOPC   C2B15242  11.360  12.557   6.594 -0.0711  0.1305 -0.1531
 1068YOPC   D3B15243  11.586  12.195   6.582 -0.0355 -0.3118  0.1038
 1068YOPC   C4B15244  11.823  12.062   6.246  0.0103  0.3262  0.1331
 1069YOPC   NC315245   5.539  11.086   5.447  0.4323 -0.1222  0.4268
 1069YOPC   PO415246   5.232  10.766   5.555 -0.1389 -0.0619 -0.1891
 1069YOPC   GL115247   5.343  10.911   5.986 -0.0223  0.2154  0.0201
 1069YOPC   GL215248   5.659  10.832   5.865  0.1248 -0.0277  0.3792
 1069YOPC   C1A15249   5.199  10.894   6.410  0.0261  0.0644 -0.0449
 1069YOPC   D2A15250   5.252  10.722   6.844 -0.1404  0.1118 -0.1153
 1069YOPC   C3A15251   5.114  10.935   7.201 -0.2188  0.1486  0.0168
 1069YOPC   C4A15252   5.010  11.172   7.524 -0.1529  0.2103 -0.4310
 1069YOPC   C1B15253   5.681  10.762   6.351  0.0197  0.0158  0.1061
 1069YOPC   C2B15254   5.804  10.728   6.747 -0.1153 -0.2644 -0.1078
 1069YOPC   D3B15255   5.934  11.097   7.030 -0.1065  0.1935 -0.3572
 1069YOPC   C4B15256   6.005  11.364   7.164 -0.1438  0.1924 -0.3471
 1070YOPC   NC315257  14.041  18.599   5.437 -0.0028  0.1612  0.1687
 1070YOPC   PO415258  14.210  18.994   5.647 -0.0502 -0.1302 -0.1776
 1070YOPC   GL115259  14.313  18.952   6.042 -0.4301 -0.1926 -0.0993
 1070YOPC   GL215260  14.464  19.109   6.256 -0.0396 -0.1594  0.1990
 1070YOPC   C1A15261  14.045  18.919   6.491 -0.0378 -0.2305  0.2062
 1070YOPC   D2A15262  13.762  18.808   6.785 -0.0300 -0.1277 -0.1542
 1070YOPC   C3A15263  13.851  18.981   7.174 -0.2159  0.0379 -0.2492
 1070YOPC   C4A15264  14.001  19.327   7.409  0.0181 -0.1468 -0.0208
 1070YOPC   C1B15265  14.404  19.532   6.573 -0.2492 -0.2410 -0.3432
 1070YOPC   C2B15266  14.259  20.009   6.655 -0.1061 -0.1703 -0.1898
 1070YOPC   D3B15267  14.436  20.141   7.008  0.1006 -0.0503 -0.1638
 1070YOPC   C4B15268  14.701  20.197   7.427 -0.0801  0.1287 -0.2937
 1071YOPC   NC315269  10.270   9.831   5.623 -0.2264 -0.2246 -0.0757
 1071YOPC   PO415270   9.897   9.773   5.527  0.2530 -0.2095 -0.2039
 1071YOPC   GL115271   9.947   9.847   6.011  0.0243 -0.1651 -0.2171
 1071YOPC   GL215272  10.281   9.866   6.349  0.2258  0.3406 -0.1410
 1071YOPC   C1A15273   9.837  10.051   6.393 -0.1890  0.3070 -0.0260
 1071YOPC   D2A15274   9.831  10.362   6.752  0.0037 -0.2382 -0.0595
 1071YOPC   C3A15275   9.761  10.368   7.228  0.0822  0.0085 -0.0873
 1071YOPC   C4A15276  10.001  10.050   7.444 -0.0801 -0.0575 -0.2344
 1071YOPC   C1B15277  10.551   9.989   6.616 -0.2353 -0.0386 -0.2890
 1071YOPC   C2B15278  11.001   9.997   6.637  0.0754  0.1246  0.1421
 1071YOPC   D3B15279  11.260  10.260   6.929 -0.0056 -0.0587  0.1565
 1071YOPC   C4B15280  11.591  10.377   7.147 -0.2217  0.3795  0.0026
 1072YOPC   NC315281   3.114  10.634   4.718  0.0801  0.1168 -0.0785
 1072YOPC   PO415282   3.263  10.556   5.182  0.2293 -0.0080 -0.6214
 1072YOPC   GL115283   3.303  10.542   5.645  0.2069 -0.2350  0.2277
 1072YOPC   GL215284   3.508  10.198   5.716 -0.1297  0.0184  0.0317
 1072YOPC   C1A15285   3.121  10.340   6.160  0.0941 -0.0149  0.0942
 1072YOPC   D2A15286   2.966  10.301   6.520 -0.0387  0.3065  0.4497
 1072YOPC   C3A15287   3.293  10.111   6.833 -0.1404  0.3374 -0.2607
 1072YOPC   C4A15288   3.180  10.021   7.264 -0.1259 -0.0201  0.0204
 1072YOPC   C1B15289   3.837   9.958   5.996  0.3272 -0.0602  0.4982
 1072YOPC   C2B15290   4.085  10.061   6.188  0.1809 -0.4113  0.0416
 1072YOPC   D3B15291   4.445  10.147   6.206 -0.1894  0.2396 -0.3676
 1072YOPC   C4B15292   4.776   9.978   6.262 -0.2649 -0.4350 -0.1472
 1073YOPC   NC315293   9.868  17.392   5.639 -0.0387  0.0418  0.1562
 1073YOPC   PO415294   9.437  17.584   5.797  0.0864  0.0796  0.0246
 1073YOPC   GL115295   9.392  17.622   6.201  0.0052 -0.1474 -0.0058
 1073YOPC   GL215296   9.497  17.934   6.417 -0.2935  0.1275 -0.1408
 1073YOPC   C1A15297   9.468  17.483   6.517  0.3097 -0.0218 -0.2240
 1073YOPC   D2A15298   9.551  17.351   6.846 -0.1218 -0.0828 -0.5103
 1073YOPC   C3A15299   9.700  16.942   6.910 -0.1132 -0.0873 -0.1283
 1073YOPC   C4A15300   9.454  16.526   6.892  0.1167 -0.0234  0.1124
 1073YOPC   C1B15301   9.431  17.864   6.819 -0.0025  0.1495 -0.0475
 1073YOPC   C2B15302   9.750  17.762   7.143 -0.3475 -0.1852 -0.4092
 1073YOPC   D3B15303   9.896  17.306   7.183  0.0623 -0.0206  0.1510
 1073YOPC   C4B15304  10.240  17.055   7.381  0.2888  0.0753 -0.0341
 1074YOPC   NC315305  12.824   3.603   5.327  0.0360  0.0067 -0.2184
 1074YOPC   PO415306  12.589   3.119   5.309  0.1306  0.1362  0.0628
 1074YOPC   GL115307  12.888   2.780   5.510 -0.0019 -0.0032 -0.2990
 1074YOPC   GL215308  13.151   2.843   5.792  0.1457  0.3240  0.0363
 1074YOPC   C1A15309  12.798   2.506   5.931 -0.0204  0.1795  0.1272
 1074YOPC   D2A15310  12.436   2.407   6.162 -0.3134  0.1984 -0.4702
 1074YOPC   C3A15311  12.447   2.209   6.513  0.1531  0.2514 -0.0438
 1074YOPC   C4A15312  12.453   2.063   6.980  0.0995  0.2248  0.3034
 1074YOPC   C1B15313  13.278   2.693   6.125 -0.0220 -0.0076 -0.1498
 1074YOPC   C2B15314  13.361   2.639   6.670 -0.1235  0.1331 -0.2958
 1074YOPC   D3B15315  13.213   2.600   7.190 -0.1769 -0.1685 -0.1004
 1074YOPC   C4B15316  13.422   2.308   7.349 -0.2141  0.0571 -0.3170
 1075YOPC   NC315317   8.807  13.589   5.768  0.1299 -0.2312 -0.1284
 1075YOPC   PO415318   9.131  13.821   5.984  0.2415 -0.0330 -0.2658
 1075YOPC   GL115319   9.373  13.669   6.336 -0.4117  0.1201  0.2094
 1075YOPC   GL215320   9.669  13.741   6.303 -0.1369 -0.2701  0.0403
 1075YOPC   C1A15321   9.324  13.557   6.744  0.0251 -0.0567 -0.1052
 1075YOPC   D2A15322   9.545  13.341   6.899 -0.3077  0.1339 -0.1551
 1075YOPC   C3A15323   9.702  12.999   6.917  0.0726  0.3072 -0.1060
 1075YOPC   C4A15324  10.010  12.859   7.157 -0.0872 -0.3810 -0.2454
 1075YOPC   C1B15325   9.926  13.417   6.494  0.0687 -0.1457  0.1632
 1075YOPC   C2B15326  10.109  13.278   6.760  0.0544 -0.3418 -0.0504
 1075YOPC   D3B15327   9.908  13.373   7.257 -0.2150  0.3819  0.2396
 1075YOPC   C4B15328   9.566  13.396   7.489  0.0826 -0.4720  0.0514
 1076YOPC   NC315329  18.078   5.911   5.468  0.1394 -0.0119  0.3851
 1076YOPC   PO415330  18.505   6.124   5.446 -0.2155  0.0160  0.1365
 1076YOPC   GL115331  18.507   6.296   5.871  0.1511  0.1015 -0.1613
 1076YOPC   GL215332  18.539   6.122   6.107  0.2388  0.1902  0.0215
 1076YOPC   C1A15333  18.529   6.611   6.221 -0.1034  0.2141 -0.6606
 1076YOPC   D2A15334  18.696   6.576   6.668  0.1291  0.1580  0.1997
 1076YOPC   C3A15335  18.535   6.757   7.023  0.2703 -0.2061 -0.2705
 1076YOPC   C4A15336  18.652   6.960   7.237 -0.0337 -0.2282  0.0110
 1076YOPC   C1B15337  18.533   6.087   6.554  0.2909  0.2060 -0.0643
 1076YOPC   C2B15338  18.557   6.224   6.951 -0.3556 -0.0254 -0.0429
 1076YOPC   D3B15339  18.456   5.916   7.244  0.0445 -0.2642 -0.3600
 1076YOPC   C4B15340  18.362   5.622   7.614  0.0220  0.0085  0.0212
 1077YOPC   NC315341  14.417  17.630   5.755 -0.3010  0.2687 -0.0647
 1077YOPC   PO415342  14.026  17.574   5.618 -0.1266  0.5100 -0.4091
 1077YOPC   GL115343  14.064  17.653   6.123  0.1177 -0.0239  0.1660
 1077YOPC   GL215344  13.960  17.885   6.343 -0.0889 -0.0921  0.1234
 1077YOPC   C1A15345  14.384  17.490   6.481  0.2203  0.0504 -0.1173
 1077YOPC   D2A15346  14.465  17.262   6.948  0.0634 -0.1891 -0.0822
 1077YOPC   C3A15347  14.278  16.988   7.077  0.0841 -0.4604 -0.5071
 1077YOPC   C4A15348  14.539  16.597   7.164  0.0680  0.0352  0.0376
 1077YOPC   C1B15349  14.017  17.896   6.716  0.1080  0.1844 -0.3414
 1077YOPC   C2B15350  14.245  17.912   6.987 -0.1340  0.1939  0.3285
 1077YOPC   D3B15351  14.408  17.650   7.228  0.1237 -0.0788  0.3600
 1077YOPC   C4B15352  14.276  17.376   7.508  0.0087 -0.4994 -0.4981
 1078YOPC   NC315353   4.225   9.827   5.080  0.0246  0.2555  0.3321
 1078YOPC   PO415354   3.871   9.583   5.412  0.2563 -0.0256 -0.1667
 1078YOPC   GL115355   3.961   9.467   5.850 -0.0537 -0.2772 -0.0213
 1078YOPC   GL215356   3.944   9.123   5.964  0.2179  0.0523 -0.2111
 1078YOPC   C1A15357   3.879   9.488   6.342 -0.0208  0.2373 -0.0292
 1078YOPC   D2A15358   3.902   9.473   6.763  0.1187  0.0207 -0.1681
 1078YOPC   C3A15359   4.055   9.817   7.050  0.1635 -0.0996  0.2360
 1078YOPC   C4A15360   4.252  10.134   7.093  0.0265  0.1099 -0.1734
 1078YOPC   C1B15361   4.273   9.144   6.175  0.0033  0.2493 -0.1445
 1078YOPC   C2B15362   4.315   9.559   6.188  0.0460  0.0280  0.2534
 1078YOPC   D3B15363   4.347   9.746   6.516  0.0541  0.0730 -0.0223
 1078YOPC   C4B15364   4.532  10.015   6.724  0.2021  0.0652  0.1563
 1079YOPC   NC315365  12.525   0.677   5.226  0.1639 -0.3008  0.0359
 1079YOPC   PO415366  12.816   0.560   5.526  0.1696 -0.1413 -0.0462
 1079YOPC   GL115367  12.991   0.514   5.954 -0.0705 -0.3534  0.0302
 1079YOPC   GL215368  13.035   0.822   6.073  0.0349 -0.0748 -0.0856
 1079YOPC   C1A15369  13.098   0.281   6.290  0.0958 -0.0032  0.1629
 1079YOPC   D2A15370  13.105   0.145   6.689 -0.1329  0.1052 -0.0703
 1079YOPC   C3A15371  13.401   0.269   7.082 -0.1329  0.1357  0.1762
 1079YOPC   C4A15372  13.590   0.282   7.578 -0.4541 -0.1638 -0.2826
 1079YOPC   C1B15373  12.981   1.008   6.531  0.0080  0.0470  0.0362
 1079YOPC   C2B15374  12.891   1.214   6.922  0.2644  0.3501 -0.0196
 1079YOPC   D3B15375  13.059   0.961   7.232 -0.1273  0.1879  0.0575
 1079YOPC   C4B15376  13.457   0.751   7.476 -0.0668 -0.0642  0.6192
 1080YOPC   NC315377   0.473  13.210   5.165 -0.0601  0.0287  0.1941
 1080YOPC   PO415378   0.725  13.016   5.537  0.3180 -0.2613  0.0081
 1080YOPC   GL115379   0.552  12.939   5.853 -0.2206  0.0083  0.2097
 1080YOPC   GL215380   0.942  13.094   6.065  0.2954  0.0517  0.0939
 1080YOPC   C1A15381   0.285  12.866   6.062  0.1477 -0.1834 -0.0307
 1080YOPC   D2A15382   0.052  12.976   6.338  0.3398 -0.3263 -0.0824
 1080YOPC   C3A15383   0.074  13.349   6.249 -0.1892  0.0641 -0.0058
 1080YOPC   C4A15384   0.261  13.478   5.882 -0.3672 -0.3584 -0.0221
 1080YOPC   C1B15385   0.676  13.155   6.398  0.7380 -0.0366  0.0152
 1080YOPC   C2B15386   0.354  13.070   6.717  0.0278  0.1152 -0.0092
 1080YOPC   D3B15387   0.182  13.093   7.223  0.0592 -0.1796  0.0258
 1080YOPC   C4B15388   0.223  12.898   7.660  0.0785  0.1158  0.1439
 1081YOPC   NC315389  14.266  14.376   5.446 -0.0167 -0.1695 -0.1097
 1081YOPC   PO415390  14.162  13.997   5.488 -0.3974 -0.0289  0.0183
 1081YOPC   GL115391  13.929  14.152   5.807  0.1745  0.1562  0.1854
 1081YOPC   GL215392  14.130  14.446   5.977 -0.1205  0.3755  0.4557
 1081YOPC   C1A15393  13.990  14.007   6.284  0.3280 -0.0492  0.0784
 1081YOPC   D2A15394  13.774  13.672   6.546  0.0952  0.4019 -0.3226
 1081YOPC   C3A15395  13.746  13.440   6.971 -0.1732  0.0314 -0.1174
 1081YOPC   C4A15396  13.488  13.627   7.277 -0.0215 -0.1162 -0.0981
 1081YOPC   C1B15397  14.378  14.334   6.212  0.2126  0.1071 -0.0839
 1081YOPC   C2B15398  14.573  14.270   6.526 -0.3100 -0.3548  0.1365
 1081YOPC   D3B15399  14.155  14.028   6.821  0.1553 -0.0758  0.1622
 1081YOPC   C4B15400  13.830  13.948   6.948  0.0921  0.1618 -0.2582
 1082YOPC   NC315401  18.291   1.101   5.280 -0.1554  0.0687 -0.1062
 1082YOPC   PO415402  18.040   1.339   5.326  0.2202 -0.0306  0.1335
 1082YOPC   GL115403  17.893   1.139   5.608  0.1000  0.3827 -0.3324
 1082YOPC   GL215404  18.035   0.995   5.761 -0.0605  0.3205  0.1744
 1082YOPC   C1A15405  17.551   0.903   5.894  0.1467 -0.1054  0.2173
 1082YOPC   D2A15406  17.291   0.580   6.185 -0.1377  0.0157 -0.2231
 1082YOPC   C3A15407  17.157   0.588   6.640 -0.3029  0.1825  0.1081
 1082YOPC   C4A15408  16.858   0.389   6.813 -0.3089  0.2012  0.0168
 1082YOPC   C1B15409  17.938   0.877   6.293  0.0155 -0.1459  0.0135
 1082YOPC   C2B15410  17.900   1.176   6.701 -0.1018  0.1049  0.0025
 1082YOPC   D3B15411  17.862   1.039   7.143 -0.0405 -0.2260  0.0309
 1082YOPC   C4B15412  17.704   0.798   7.433  0.2787 -0.0924  0.5062
 1083YOPC   NC315413  11.723   1.761   5.584 -0.0124 -0.1711 -0.0903
 1083YOPC   PO415414  11.329   1.600   5.763 -0.2300 -0.0851  0.1832
 1083YOPC   GL115415  11.701   1.518   6.009 -0.2003  0.0656  0.1467
 1083YOPC   GL215416  11.994   1.597   5.961 -0.1086 -0.0982 -0.3461
 1083YOPC   C1A15417  11.712   1.616   6.479  0.0880 -0.0067 -0.1359
 1083YOPC   D2A15418  11.533   1.749   6.855  0.1872  0.1081 -0.1762
 1083YOPC   C3A15419  11.449   1.782   7.264  0.1132 -0.1241  0.0925
 1083YOPC   C4A15420  11.291   1.960   7.664 -0.0179 -0.2051  0.0780
 1083YOPC   C1B15421  12.218   1.661   6.364  0.2872 -0.0104 -0.0770
 1083YOPC   C2B15422  12.578   1.667   6.699  0.2374  0.2051  0.1142
 1083YOPC   D3B15423  12.875   2.005   6.718  0.2846  0.4008 -0.2087
 1083YOPC   C4B15424  13.261   2.151   6.883 -0.3471  0.1886 -0.0208
 1084YOPC   NC315425   1.697   4.914   5.193  0.2023 -0.2284 -0.0273
 1084YOPC   PO415426   1.571   4.455   5.449  0.2191 -0.0852 -0.0148
 1084YOPC   GL115427   1.778   4.604   5.757  0.3628 -0.1267 -0.2227
 1084YOPC   GL215428   1.639   4.898   5.751 -0.0830  0.1346 -0.4015
 1084YOPC   C1A15429   2.213   4.760   5.978 -0.2997 -0.0205 -0.0409
 1084YOPC   D2A15430   2.411   5.266   6.106  0.1639  0.2227  0.0916
 1084YOPC   C3A15431   2.790   5.067   6.286  0.2899  0.2172  0.1050
 1084YOPC   C4A15432   3.032   5.137   6.610 -0.0201  0.4174  0.0492
 1084YOPC   C1B15433   1.423   5.138   5.985 -0.0927 -0.1036 -0.1394
 1084YOPC   C2B15434   1.171   5.422   6.250  0.1301 -0.0928  0.0340
 1084YOPC   D3B15435   1.327   5.551   6.691 -0.2697  0.3989  0.0518
 1084YOPC   C4B15436   1.527   5.789   7.117 -0.2281 -0.0287  0.0250
 1085YOPC   NC315437  18.335   4.925   5.846 -0.1412 -0.1250  0.0346
 1085YOPC   PO415438  18.525   4.528   5.762 -0.6210  0.0963 -0.1733
 1085YOPC   GL115439  18.867   4.391   6.036  0.1038  0.3082  0.0358
 1085YOPC   GL215440  18.712   4.295   6.429  0.1435 -0.2494 -0.3110
 1085YOPC   C1A15441  19.218   4.269   6.228  0.2066  0.0428 -0.3701
 1085YOPC   D2A15442  19.428   4.216   6.685  0.0793  0.1547  0.0661
 1085YOPC   C3A15443  19.777   4.026   6.698  0.0034  0.0565 -0.3622
 1085YOPC   C4A15444  19.989   3.587   6.674 -0.1050 -0.3292  0.0650
 1085YOPC   C1B15445  18.974   4.431   6.800  0.1810  0.0219  0.2386
 1085YOPC   C2B15446  19.277   4.546   7.182 -0.1638  0.0283  0.0366
 1085YOPC   D3B15447  19.236   4.989   7.288  0.1243  0.0503  0.1048
 1085YOPC   C4B15448  19.338   5.419   7.320  0.0440  0.2064  0.0674
 1086YOPC   NC315449  16.618  12.175   5.008 -0.0113 -0.0242 -0.0539
 1086YOPC   PO415450  16.892  12.369   5.375 -0.1942  0.0386 -0.3598
 1086YOPC   GL115451  16.695  12.337   5.796  0.0430  0.1116  0.0482
 1086YOPC   GL215452  16.909  12.558   6.010  0.0048  0.0008 -0.1509
 1086YOPC   C1A15453  16.658  12.003   6.079 -0.1500  0.3413 -0.2990
 1086YOPC   D2A15454  16.400  11.880   6.451  0.1166 -0.0137 -0.1701
 1086YOPC   C3A15455  16.435  11.828   6.802  0.0003  0.0740  0.2766
 1086YOPC   C4A15456  16.569  11.623   7.237  0.2243 -0.0173 -0.1825
 1086YOPC   C1B15457  16.929  12.733   6.358  0.2258  0.1211 -0.2579
 1086YOPC   C2B15458  16.980  12.763   6.728  0.1593  0.1552 -0.2119
 1086YOPC   D3B15459  16.830  12.910   7.072  0.2346  0.1660 -0.0307
 1086YOPC   C4B15460  16.659  13.111   7.485 -0.0369  0.0655  0.2135
 1087YOPC   NC315461  15.148  10.987   5.344 -0.0889  0.1911 -0.0305
 1087YOPC   PO415462  15.184  11.416   5.556  0.0602  0.0133 -0.0559
 1087YOPC   GL115463  14.978  11.398   5.988 -0.2169  0.1316  0.0979
 1087YOPC   GL215464  15.025  11.167   6.206 -0.1657 -0.0981  0.1475
 1087YOPC   C1A15465  15.015  11.611   6.420 -0.0976 -0.1994  0.3282
 1087YOPC   D2A15466  15.006  11.803   6.775  0.0979 -0.0401  0.2700
 1087YOPC   C3A15467  15.073  11.488   7.186 -0.1461  0.3052  0.0004
 1087YOPC   C4A15468  14.810  11.257   7.461  0.2232 -0.1067  0.1383
 1087YOPC   C1B15469  14.741  11.115   6.431  0.0604 -0.1023  0.1024
 1087YOPC   C2B15470  14.269  11.009   6.536 -0.0028  0.1843  0.2208
 1087YOPC   D3B15471  14.230  10.931   6.893 -0.1255  0.1701 -0.1431
 1087YOPC   C4B15472  14.249  10.814   7.216  0.1636  0.0374 -0.1631
 1088YOPC   NC315473  11.248   7.819   5.794  0.0753 -0.2752  0.1109
 1088YOPC   PO415474  11.249   7.666   6.141  0.0059  0.0664  0.2526
 1088YOPC   GL115475  11.113   7.774   6.527 -0.0443 -0.0176 -0.1711
 1088YOPC   GL215476  10.821   7.642   6.590 -0.1132  0.1394  0.0955
 1088YOPC   C1A15477  11.156   7.888   6.959  0.1856  0.2341  0.0049
 1088YOPC   D2A15478  10.954   7.678   7.378  0.0029 -0.0903 -0.1940
 1088YOPC   C3A15479  10.974   7.893   7.737  0.0481 -0.0455  0.1151
 1088YOPC   C4A15480  10.796   8.183   7.919 -0.1521 -0.0925  0.2125
 1088YOPC   C1B15481  10.746   7.282   6.692 -0.0441  0.0555  0.0922
 1088YOPC   C2B15482  10.773   7.229   7.130  0.0263  0.0687  0.2561
 1088YOPC   D3B15483  10.777   7.045   7.494  0.0086 -0.1253  0.0601
 1088YOPC   C4B15484  10.836   6.937   7.942 -0.2678 -0.0901  0.0149
 1089YOPC   NC315485   8.600   8.064   5.216 -0.0654 -0.1742 -0.1238
 1089YOPC   PO415486   8.120   7.994   5.145  0.0565  0.2056 -0.0241
 1089YOPC   GL115487   8.251   8.110   5.615  0.2043  0.4873  0.0519
 1089YOPC   GL215488   8.481   8.309   5.724 -0.1388  0.2938 -0.0697
 1089YOPC   C1A15489   7.923   8.006   5.997 -0.1867  0.2241  0.2774
 1089YOPC   D2A15490   7.925   8.212   6.462  0.1257  0.0245 -0.1227
 1089YOPC   C3A15491   8.089   8.130   6.832  0.2095  0.1728  0.1923
 1089YOPC   C4A15492   8.099   8.122   7.199  0.2204  0.0006 -0.2160
 1089YOPC   C1B15493   8.494   8.336   6.163 -0.0355  0.2404 -0.2927
 1089YOPC   C2B15494   8.308   8.480   6.567 -0.6948  0.1560  0.3899
 1089YOPC   D3B15495   8.201   8.642   6.924 -0.4331 -0.3429  0.1665
 1089YOPC   C4B15496   7.813   9.046   6.948 -0.1926  0.4105  0.4060
 1090YOPC   NC315497  12.582   4.395   5.670  0.4114  0.0679 -0.0722
 1090YOPC   PO415498  12.683   3.927   5.692  0.0519 -0.0601  0.1605
 1090YOPC   GL115499  12.767   3.642   6.097 -0.0713  0.1583  0.0589
 1090YOPC   GL215500  12.412   3.523   6.230 -0.0858  0.2149 -0.1735
 1090YOPC   C1A15501  12.734   3.533   6.562 -0.1342  0.1476  0.3149
 1090YOPC   D2A15502  12.733   3.420   7.067  0.0107  0.0715  0.0587
 1090YOPC   C3A15503  12.498   2.906   7.159 -0.1000 -0.2120  0.1032
 1090YOPC   C4A15504  12.727   2.468   7.076  0.0925 -0.1240 -0.0024
 1090YOPC   C1B15505  12.467   3.080   6.440 -0.2614  0.1883  0.1607
 1090YOPC   C2B15506  12.611   2.677   6.616 -0.1808  0.0414  0.1977
 1090YOPC   D3B15507  12.910   2.499   6.408 -0.0298  0.3928  0.0044
 1090YOPC   C4B15508  13.054   2.105   6.247 -0.0355 -0.1048  0.1430
 1091YOPC   NC315509  18.126  16.340   5.516  0.4321  0.1380  0.2673
 1091YOPC   PO415510  18.370  16.495   5.822  0.0608 -0.0566  0.2378
 1091YOPC   GL115511  18.415  16.581   6.244  0.0741 -0.0801 -0.3966
 1091YOPC   GL215512  18.339  16.807   6.512 -0.1836  0.1272 -0.0510
 1091YOPC   C1A15513  18.555  16.406   6.627 -0.3276  0.2036  0.0170
 1091YOPC   D2A15514  18.834  16.213   6.981  0.0195  0.1717 -0.3020
 1091YOPC   C3A15515  18.704  16.385   7.429  0.1194 -0.1592 -0.1531
 1091YOPC   C4A15516  18.543  16.172   7.721 -0.0008 -0.2029 -0.2052
 1091YOPC   C1B15517  17.948  16.950   6.749  0.1811  0.1479 -0.2152
 1091YOPC   C2B15518  17.760  16.905   7.206  0.2039 -0.1887 -0.2611
 1091YOPC   D3B15519  17.785  16.456   7.245 -0.0238 -0.1208  0.2201
 1091YOPC   C4B15520  17.524  16.170   7.246 -0.0000  0.2906 -0.1526
 1092YOPC   NC315521   5.413  12.437   5.305  0.1450  0.1277 -0.2065
 1092YOPC   PO415522   5.096  12.149   5.233  0.1029  0.3075  0.2761
 1092YOPC   GL115523   5.073  11.838   5.541 -0.3263  0.1867 -0.2998
 1092YOPC   GL215524   5.375  11.685   5.653 -0.2668 -0.0005  0.0003
 1092YOPC   C1A15525   4.881  11.885   5.932  0.0742 -0.0789 -0.0526
 1092YOPC   D2A15526   4.583  11.900   6.303 -0.0438  0.0843  0.1102
 1092YOPC   C3A15527   4.343  11.537   6.200  0.4430  0.1630 -0.1480
 1092YOPC   C4A15528   4.055  11.361   6.439  0.0098  0.0326 -0.1298
 1092YOPC   C1B15529   5.528  11.826   6.068  0.2042 -0.0353  0.1445
 1092YOPC   C2B15530   5.612  11.935   6.598 -0.4174 -0.2490 -0.3342
 1092YOPC   D3B15531   5.368  11.838   6.949  0.2409 -0.5857  0.0504
 1092YOPC   C4B15532   5.538  12.014   7.392 -0.0453 -0.0426  0.0468
 1093YOPC   NC315533   3.684  11.489   5.299  0.0681 -0.1116  0.0596
 1093YOPC   PO415534   3.262  11.430   5.362 -0.1622 -0.1223  0.0944
 1093YOPC   GL115535   3.081  11.260   5.761  0.0447 -0.2568 -0.0972
 1093YOPC   GL215536   3.282  10.973   5.851  0.1224  0.2991  0.0775
 1093YOPC   C1A15537   3.010  11.460   6.123 -0.0869  0.0302  0.0688
 1093YOPC   D2A15538   2.845  11.313   6.491 -0.0661  0.1594  0.1694
 1093YOPC   C3A15539   2.496  11.473   6.723  0.0547  0.2364 -0.2078
 1093YOPC   C4A15540   2.435  11.705   7.051 -0.0088  0.2208  0.3863
 1093YOPC   C1B15541   3.025  10.922   6.256 -0.1749  0.1562  0.0212
 1093YOPC   C2B15542   2.966  10.778   6.626  0.0589 -0.0623  0.1659
 1093YOPC   D3B15543   3.090  11.134   6.872  0.0533  0.0923  0.1118
 1093YOPC   C4B15544   3.428  11.447   6.959  0.1999 -0.3381 -0.1466
 1094YOPC   NC315545  18.836  11.110   5.300 -0.6496  0.1295  0.0053
 1094YOPC   PO415546  19.007  10.935   5.687  0.0901  0.0506  0.0752
 1094YOPC   GL115547  18.905  11.149   6.129 -0.1342 -0.3776 -0.3186
 1094YOPC   GL215548  19.112  11.287   6.166  0.4974 -0.3016 -0.3420
 1094YOPC   C1A15549  18.627  11.204   6.432  0.2640  0.1602 -0.0767
 1094YOPC   D2A15550  18.316  11.325   6.555  0.1452 -0.1290  0.1753
 1094YOPC   C3A15551  18.146  11.517   6.820 -0.3112  0.1894 -0.2608
 1094YOPC   C4A15552  17.826  11.330   7.053 -0.3100  0.0240  0.2377
 1094YOPC   C1B15553  19.188  11.208   6.575 -0.1548 -0.1366 -0.3242
 1094YOPC   C2B15554  19.258  11.146   7.110  0.0131 -0.2564  0.1041
 1094YOPC   D3B15555  19.002  11.384   7.423  0.1624  0.0088 -0.1078
 1094YOPC   C4B15556  19.081  11.692   7.802 -0.0671  0.1916 -0.1737
 1095YOPC   NC315557  10.270  16.962   5.116 -0.1016  0.1634  0.2614
 1095YOPC   PO415558  10.470  16.791   5.468  0.0950  0.0138 -0.1694
 1095YOPC   GL115559  10.476  16.638   5.842  0.2702 -0.0889 -0.2279
 1095YOPC   GL215560  10.819  16.705   5.949 -0.1251 -0.0959  0.2807
 1095YOPC   C1A15561  10.481  16.826   6.311 -0.0700 -0.4602  0.0349
 1095YOPC   D2A15562  10.778  16.689   6.660  0.3819  0.0489  0.1058
 1095YOPC   C3A15563  10.605  16.921   6.991  0.0398 -0.3524  0.2048
 1095YOPC   C4A15564  10.722  17.295   7.352  0.0049  0.1918 -0.2757
 1095YOPC   C1B15565  11.044  16.910   6.301  0.1117 -0.1004 -0.1109
 1095YOPC   C2B15566  11.372  16.873   6.638 -0.1053 -0.0853  0.2019
 1095YOPC   D3B15567  11.603  16.584   6.828 -0.0419 -0.1493 -0.1049
 1095YOPC   C4B15568  11.947  16.631   7.134  0.1642  0.1227 -0.0566
 1096YOPC   NC315569   9.077   7.214   5.106  0.2969 -0.1596  0.0885
 1096YOPC   PO415570   9.287   6.916   5.385 -0.0155  0.0649  0.0932
 1096YOPC   GL115571   8.958   6.941   5.659 -0.1201  0.0322  0.3320
 1096YOPC   GL215572   8.957   7.257   5.758 -0.1584 -0.0807 -0.0919
 1096YOPC   C1A15573   8.658   6.833   5.841  0.2636  0.1984 -0.0115
 1096YOPC   D2A15574   8.123   7.010   5.922 -0.0349 -0.2925  0.0222
 1096YOPC   C3A15575   7.996   7.433   6.039  0.1709  0.0371  0.0821
 1096YOPC   C4A15576   7.944   7.692   6.438 -0.0811  0.0132  0.1890
 1096YOPC   C1B15577   9.083   7.153   6.142 -0.1510  0.2481 -0.1650
 1096YOPC   C2B15578   9.126   7.213   6.564  0.0238  0.0845  0.0573
 1096YOPC   D3B15579   9.352   7.562   6.921 -0.1124  0.0682  0.1988
 1096YOPC   C4B15580   9.484   7.914   7.062  0.0385 -0.6168  0.1747
 1097YOPC   NC315581   7.577  11.547   4.800 -0.0238  0.3631 -0.2720
 1097YOPC   PO415582   7.458  11.740   5.207 -0.3092  0.3288 -0.1881
 1097YOPC   GL115583   7.379  11.919   5.706 -0.0055  0.0846  0.1066
 1097YOPC   GL215584   7.420  12.245   5.762  0.0507 -0.3386  0.3900
 1097YOPC   C1A15585   7.339  11.794   6.071 -0.2913 -0.1853 -0.3806
 1097YOPC   D2A15586   7.222  11.827   6.538 -0.2194 -0.1293 -0.1868
 1097YOPC   C3A15587   7.091  11.894   7.011  0.0736 -0.0004  0.1744
 1097YOPC   C4A15588   6.977  11.592   7.269  0.1614  0.0305  0.2500
 1097YOPC   C1B15589   7.587  12.352   6.187  0.2962  0.0081  0.1054
 1097YOPC   C2B15590   7.806  12.186   6.454 -0.2393 -0.2242 -0.0479
 1097YOPC   D3B15591   7.654  12.273   6.807  0.1286  0.1992  0.0126
 1097YOPC   C4B15592   7.802  12.493   7.113  0.0243 -0.0135  0.1476
 1098YOPC   NC315593   2.193   2.251   5.223 -0.2235 -0.1701 -0.1762
 1098YOPC   PO415594   2.238   2.185   5.599 -0.4597  0.1201 -0.2064
 1098YOPC   GL115595   2.374   2.015   6.023 -0.0410  0.2635 -0.0072
 1098YOPC   GL215596   2.475   1.749   6.171  0.1300 -0.0798  0.1938
 1098YOPC   C1A15597   2.045   1.901   6.337  0.3830 -0.3507 -0.1457
 1098YOPC   D2A15598   1.704   1.976   6.673  0.0175  0.3662  0.1062
 1098YOPC   C3A15599   1.688   2.155   7.072  0.3365  0.0429 -0.0422
 1098YOPC   C4A15600   1.506   2.532   7.233 -0.0368 -0.0550  0.1566
 1098YOPC   C1B15601   2.524   2.007   6.535 -0.2107  0.1765 -0.0647
 1098YOPC   C2B15602   2.157   1.961   6.804  0.1454  0.1553  0.0191
 1098YOPC   D3B15603   2.261   2.054   7.206  0.3390  0.0215 -0.1129
 1098YOPC   C4B15604   2.019   2.130   7.452 -0.1046 -0.2067 -0.1439
 1099YOPC   NC315605   5.239   0.032   5.345 -0.0362 -0.0448  0.2290
 1099YOPC   PO415606   4.834  -0.001   5.511  0.3385  0.2319  0.1942
 1099YOPC   GL115607   5.051   0.236   5.795 -0.0363 -0.1464 -0.1583
 1099YOPC   GL215608   4.942   0.656   5.844  0.4023 -0.0375 -0.0403
 1099YOPC   C1A15609   5.071   0.291   6.272  0.1119  0.1292  0.0057
 1099YOPC   D2A15610   5.365   0.396   6.501  0.3259 -0.2818  0.0949
 1099YOPC   C3A15611   5.427   0.132   6.755 -0.1171  0.4123 -0.1645
 1099YOPC   C4A15612   5.424   0.061   7.053 -0.0310  0.1204 -0.3048
 1099YOPC   C1B15613   4.696   0.557   6.018 -0.0379 -0.3353 -0.3326
 1099YOPC   C2B15614   4.487   0.899   6.336  0.0116  0.0532  0.2527
 1099YOPC   D3B15615   4.518   0.943   6.752  0.2201  0.2202  0.0034
 1099YOPC   C4B15616   4.375   1.120   7.163  0.1203  0.1449 -0.0598
 1100YOPC   NC315617  16.057   3.030   5.273  0.2694 -0.0235  0.1331
 1100YOPC   PO415618  16.115   3.371   5.495 -0.0483  0.1889 -0.0711
 1100YOPC   GL115619  15.911   3.417   5.866  0.1267 -0.0565 -0.3471
 1100YOPC   GL215620  15.996   3.535   6.129 -0.1725  0.1195 -0.2586
 1100YOPC   C1A15621  15.677   3.141   6.153  0.0056  0.2328  0.1461
 1100YOPC   D2A15622  15.764   3.165   6.573  0.4540 -0.0803 -0.1856
 1100YOPC   C3A15623  15.980   3.401   6.890 -0.2601  0.0653  0.0591
 1100YOPC   C4A15624  16.174   3.310   7.327  0.0489 -0.2680 -0.1099
 1100YOPC   C1B15625  16.286   3.484   6.459  0.3176 -0.2591 -0.0991
 1100YOPC   C2B15626  16.564   3.358   6.818  0.0009  0.3325 -0.1089
 1100YOPC   D3B15627  16.560   3.582   7.207 -0.3832  0.0565  0.1108
 1100YOPC   C4B15628  16.595   3.685   7.686 -0.2431  0.1398  0.1948
 1101YOPC   NC315629  14.315   3.015   5.828  0.3112 -0.1417  0.0995
 1101YOPC   PO415630  14.683   2.762   5.791  0.0501  0.0645  0.3623
 1101YOPC   GL115631  14.970   2.604   6.186  0.0906  0.0343  0.2504
 1101YOPC   GL215632  15.187   2.782   6.184  0.4527  0.0500 -0.2699
 1101YOPC   C1A15633  14.953   2.702   6.654  0.0156  0.0052  0.2369
 1101YOPC   D2A15634  15.100   2.989   7.037 -0.1118  0.0925 -0.1110
 1101YOPC   C3A15635  15.367   3.208   7.291 -0.0179 -0.4184  0.0437
 1101YOPC   C4A15636  15.675   3.421   7.268 -0.0093 -0.2217  0.1266
 1101YOPC   C1B15637  15.220   3.123   6.499  0.1897 -0.0585  0.0801
 1101YOPC   C2B15638  14.990   3.431   6.237 -0.0205 -0.0812  0.1913
 1101YOPC   D3B15639  14.651   3.637   6.390  0.1314 -0.1626 -0.1275
 1101YOPC   C4B15640  14.424   4.058   6.503  0.1725  0.0213 -0.0519
 1102YOPC   NC315641   3.062  12.648   5.346 -0.1237  0.2086 -0.1733
 1102YOPC   PO415642   2.835  12.999   5.390 -0.0398  0.1365  0.0639
 1102YOPC   GL115643   2.937  12.881   5.778  0.5445 -0.0879 -0.0862
 1102YOPC   GL215644   2.998  13.075   6.082  0.0059 -0.0150 -0.0566
 1102YOPC   C1A15645   2.814  12.571   6.109  0.1308  0.2855  0.2272
 1102YOPC   D2A15646   2.673  12.306   6.443  0.0002  0.0253  0.0004
 1102YOPC   C3A15647   2.863  12.254   6.927 -0.0384  0.3003  0.1188
 1102YOPC   C4A15648   2.742  12.274   7.347 -0.1459 -0.1705 -0.1219
 1102YOPC   C1B15649   3.216  13.058   6.439 -0.0029 -0.0244 -0.3162
 1102YOPC   C2B15650   3.592  13.223   6.744  0.1030 -0.1994 -0.1877
 1102YOPC   D3B15651   3.860  13.069   7.024 -0.0342 -0.0754 -0.1463
 1102YOPC   C4B15652   4.060  12.741   7.116  0.1637  0.1191  0.4471
 1103YOPC   NC315653   1.695  11.893   5.296  0.1551 -0.2885 -0.2650
 1103YOPC   PO415654   1.841  12.092   5.598 -0.4290  0.2965 -0.1861
 1103YOPC   GL115655   1.766  12.136   5.998 -0.0490 -0.0630  0.2954
 1103YOPC   GL215656   1.777  12.364   6.168 -0.1562 -0.0523  0.4724
 1103YOPC   C1A15657   2.110  12.094   6.404  0.0441  0.0424 -0.1155
 1103YOPC   D2A15658   2.379  11.957   6.615 -0.1687 -0.0710  0.4450
 1103YOPC   C3A15659   2.268  12.167   6.969  0.2042 -0.2128  0.0703
 1103YOPC   C4A15660   1.955  12.463   6.952  0.1362  0.1259 -0.2395
 1103YOPC   C1B15661   1.775  12.557   6.438  0.2646 -0.2103  0.2649
 1103YOPC   C2B15662   1.441  12.673   6.802  0.4540 -0.0393  0.0237
 1103YOPC   D3B15663   1.593  12.903   7.192  0.1845  0.2020  0.0903
 1103YOPC   C4B15664   1.510  13.197   7.526 -0.2122 -0.1227  0.0323
 1104YOPC   NC315665   1.143   1.128   5.262 -0.3212  0.0764 -0.1203
 1104YOPC   PO415666   1.058   0.883   5.538  0.0036  0.2207  0.1347
 1104YOPC   GL115667   1.031   1.267   5.759 -0.2017  0.1007 -0.2538
 1104YOPC   GL215668   0.732   1.323   5.917 -0.0127 -0.0346  0.0813
 1104YOPC   C1A15669   1.154   1.435   6.189  0.1631 -0.3807  0.0539
 1104YOPC   D2A15670   0.846   1.302   6.669 -0.0709 -0.2719 -0.1567
 1104YOPC   C3A15671   0.868   0.850   6.872 -0.2298  0.0976  0.1468
 1104YOPC   C4A15672   1.036   0.653   7.313 -0.1866  0.0875  0.1403
 1104YOPC   C1B15673   0.612   1.139   6.271 -0.1474 -0.1517  0.1936
 1104YOPC   C2B15674   0.434   1.002   6.661 -0.0776  0.0810 -0.0868
 1104YOPC   D3B15675   0.498   1.181   7.061 -0.1992 -0.2402  0.0250
 1104YOPC   C4B15676   0.455   1.230   7.485  0.1078  0.0676  0.1879
 1105YOPC   NC315677   5.397  13.738   5.709  0.0015 -0.1589  0.0497
 1105YOPC   PO415678   5.362  14.111   5.681 -0.1192  0.1348 -0.0948
 1105YOPC   GL115679   5.070  14.038   5.976  0.2249 -0.2015  0.2445
 1105YOPC   GL215680   4.776  14.246   5.950 -0.1591 -0.1781  0.0190
 1105YOPC   C1A15681   5.098  14.134   6.402  0.1410 -0.2689 -0.1492
 1105YOPC   D2A15682   5.052  14.257   6.873  0.0467  0.2110 -0.2219
 1105YOPC   C3A15683   4.843  13.961   7.108 -0.0769 -0.2522  0.5328
 1105YOPC   C4A15684   4.603  13.948   7.395  0.2841 -0.2229  0.5269
 1105YOPC   C1B15685   5.049  14.602   6.187  0.2702 -0.1102 -0.0657
 1105YOPC   C2B15686   5.451  14.680   6.551 -0.1188  0.0086 -0.0404
 1105YOPC   D3B15687   5.512  14.570   6.847 -0.0307 -0.3913  0.1875
 1105YOPC   C4B15688   5.626  14.158   6.848  0.1118 -0.0943 -0.3922
 1106YOPC   NC315689  18.206   2.310   5.122 -0.1426  0.0699 -0.0772
 1106YOPC   PO415690  17.861   2.561   5.241  0.0405  0.0603  0.0256
 1106YOPC   GL115691  18.003   2.407   5.608 -0.0286 -0.0656  0.0132
 1106YOPC   GL215692  17.748   2.530   5.904 -0.4224 -0.0523 -0.1442
 1106YOPC   C1A15693  18.205   2.309   6.042 -0.2662 -0.1624 -0.0360
 1106YOPC   D2A15694  18.230   1.985   6.372 -0.2274  0.3449  0.1109
 1106YOPC   C3A15695  18.259   2.028   6.745 -0.1003  0.0251 -0.4641
 1106YOPC   C4A15696  18.229   2.330   6.996 -0.1163  0.1981  0.3246
 1106YOPC   C1B15697  18.019   2.751   6.155  0.2145 -0.2046  0.0203
 1106YOPC   C2B15698  18.006   2.988   6.479  0.0110  0.1761 -0.0966
 1106YOPC   D3B15699  18.116   2.872   6.932 -0.2784 -0.2670  0.0512
 1106YOPC   C4B15700  18.092   2.770   7.338 -0.0545  0.2049  0.1660
 1107YOPC   NC315701  15.463  13.643   5.202  0.1630 -0.1013 -0.2026
 1107YOPC   PO415702  15.054  13.441   5.490 -0.0635 -0.3222 -0.2379
 1107YOPC   GL115703  14.822  13.403   5.773  0.1492  0.2209 -0.1389
 1107YOPC   GL215704  14.884  13.670   5.899  0.4362 -0.1553 -0.1485
 1107YOPC   C1A15705  14.824  13.349   6.256 -0.3213  0.0472  0.0333
 1107YOPC   D2A15706  14.977  13.404   6.692  0.1033 -0.2654 -0.1921
 1107YOPC   C3A15707  14.867  13.538   7.047  0.0187  0.1193  0.1635
 1107YOPC   C4A15708  15.230  13.524   7.305 -0.1184  0.0308 -0.0180
 1107YOPC   C1B15709  15.015  13.867   6.332 -0.2558 -0.0462  0.0824
 1107YOPC   C2B15710  14.987  14.088   6.675 -0.0905 -0.1775  0.2256
 1107YOPC   D3B15711  15.477  14.219   6.946  0.3660 -0.4863  0.0818
 1107YOPC   C4B15712  15.581  13.895   7.305 -0.0528  0.2149  0.0924
 1108YOPC   NC315713   5.798  18.510   5.602  0.1125 -0.0399  0.2378
 1108YOPC   PO415714   5.751  18.821   5.363  0.0519 -0.0567  0.2846
 1108YOPC   GL115715   5.794  18.919   5.838 -0.1847 -0.2669 -0.1248
 1108YOPC   GL215716   5.851  19.111   5.997  0.2082  0.1308  0.2229
 1108YOPC   C1A15717   5.460  18.869   6.166 -0.1242 -0.0317 -0.1447
 1108YOPC   D2A15718   5.349  18.608   6.361  0.5123 -0.0963 -0.3423
 1108YOPC   C3A15719   5.349  18.421   6.814 -0.0736 -0.2002 -0.2776
 1108YOPC   C4A15720   5.291  18.513   7.259 -0.2311  0.1705 -0.0624
 1108YOPC   C1B15721   5.827  19.117   6.460 -0.0641  0.0497  0.2196
 1108YOPC   C2B15722   5.902  19.141   6.891 -0.0798  0.1107  0.1522
 1108YOPC   D3B15723   6.305  19.103   7.120  0.0471  0.1642 -0.1270
 1108YOPC   C4B15724   6.830  18.937   7.305  0.0192  0.0481  0.3434
 1109YOPC   NC315725   3.350  14.156   5.484 -0.2128 -0.2898 -0.0908
 1109YOPC   PO415726   3.535  14.496   5.547 -0.4298 -0.0085 -0.3643
 1109YOPC   GL115727   3.715  14.694   5.862 -0.1298  0.0083 -0.0556
 1109YOPC   GL215728   3.447  14.930   6.110 -0.0852 -0.3276 -0.0620
 1109YOPC   C1A15729   3.897  14.608   6.254  0.1726 -0.3421  0.0920
 1109YOPC   D2A15730   3.815  14.627   6.620  0.0138 -0.2079 -0.0690
 1109YOPC   C3A15731   3.761  14.944   6.902 -0.0112  0.1618  0.0370
 1109YOPC   C4A15732   3.467  15.273   7.039 -0.1681 -0.2764 -0.0295
 1109YOPC   C1B15733   3.575  15.247   6.511 -0.1111  0.0913 -0.0210
 1109YOPC   C2B15734   3.761  15.607   6.563  0.2558 -0.1226 -0.2407
 1109YOPC   D3B15735   3.912  15.721   6.892  0.1317  0.0760 -0.0153
 1109YOPC   C4B15736   3.820  15.698   7.372  0.1394  0.0835  0.1790
 1110YOPC   NC315737  17.385   8.256   5.243 -0.4200  0.2895  0.1420
 1110YOPC   PO415738  17.878   8.176   5.510  0.2163  0.1536  0.2406
 1110YOPC   GL115739  18.189   8.161   5.932  0.1602  0.2098 -0.0314
 1110YOPC   GL215740  18.293   8.504   5.956 -0.1761  0.1850  0.0148
 1110YOPC   C1A15741  18.340   8.128   6.275  0.2199 -0.1819  0.0423
 1110YOPC   D2A15742  18.460   7.865   6.643 -0.0854  0.2210  0.2039
 1110YOPC   C3A15743  18.456   7.735   7.024 -0.1370  0.0893 -0.0720
 1110YOPC   C4A15744  18.564   7.793   7.429  0.2705 -0.4196  0.2260
 1110YOPC   C1B15745  18.174   8.564   6.328  0.4017 -0.1008 -0.1477
 1110YOPC   C2B15746  18.143   8.652   6.673 -0.1815 -0.3869  0.0652
 1110YOPC   D3B15747  18.066   8.397   7.162 -0.1623  0.0516 -0.0764
 1110YOPC   C4B15748  18.140   8.000   7.536 -0.0889 -0.1961 -0.0232
 1111YOPC   NC315749   3.503  17.108   5.522 -0.0270 -0.0966  0.0215
 1111YOPC   PO415750   3.897  17.042   5.557 -0.0901 -0.2959  0.0784
 1111YOPC   GL115751   3.941  16.945   6.061  0.4750  0.0815 -0.1789
 1111YOPC   GL215752   4.154  16.906   6.283  0.1910 -0.2785  0.3094
 1111YOPC   C1A15753   3.691  17.024   6.400  0.1965  0.0395  0.3462
 1111YOPC   D2A15754   3.557  17.085   6.791 -0.0149 -0.2224  0.1340
 1111YOPC   C3A15755   3.184  16.834   6.990 -0.2188 -0.2157  0.0738
 1111YOPC   C4A15756   3.070  16.477   7.022 -0.0109 -0.1108  0.1123
 1111YOPC   C1B15757   4.064  16.939   6.698 -0.1037  0.1906 -0.0938
 1111YOPC   C2B15758   3.886  16.920   7.125 -0.0582 -0.1698  0.1298
 1111YOPC   D3B15759   4.105  17.265   7.400  0.2661  0.2306 -0.1076
 1111YOPC   C4B15760   4.210  17.703   7.275 -0.0528  0.1338  0.1179
 1112YOPC   NC315761   5.524   7.935   5.411  0.0965 -0.0489 -0.2173
 1112YOPC   PO415762   5.533   7.551   5.374  0.6584 -0.1295 -0.1190
 1112YOPC   GL115763   5.495   7.638   5.855  0.0457 -0.0164  0.0556
 1112YOPC   GL215764   5.216   7.848   5.844 -0.1769  0.1758 -0.1000
 1112YOPC   C1A15765   5.514   7.525   6.309  0.2717 -0.0361  0.0834
 1112YOPC   D2A15766   5.508   7.560   6.784 -0.2312 -0.0560  0.1862
 1112YOPC   C3A15767   5.271   7.779   7.057  0.1172 -0.2791  0.0387
 1112YOPC   C4A15768   4.916   7.941   7.209 -0.4430 -0.2391  0.3408
 1112YOPC   C1B15769   5.191   7.975   6.260 -0.0657 -0.0334  0.0006
 1112YOPC   C2B15770   5.135   7.880   6.595 -0.1698 -0.2090 -0.0201
 1112YOPC   D3B15771   5.154   8.193   6.813  0.1015 -0.0515 -0.2814
 1112YOPC   C4B15772   4.899   8.491   7.133  0.0436  0.0829 -0.6218
 1113YOPC   NC315773   2.528   5.579   5.633 -0.2217  0.0557 -0.0109
 1113YOPC   PO415774   2.862   5.978   5.515  0.1132 -0.1097 -0.0667
 1113YOPC   GL115775   2.861   5.818   5.957  0.1085 -0.0776  0.0092
 1113YOPC   GL215776   3.172   5.929   6.149 -0.1580 -0.0634 -0.0043
 1113YOPC   C1A15777   2.773   5.602   6.301 -0.4052  0.1893  0.1870
 1113YOPC   D2A15778   2.566   5.328   6.638  0.1642  0.0259 -0.1783
 1113YOPC   C3A15779   2.326   5.630   6.915 -0.4309 -0.2255  0.1637
 1113YOPC   C4A15780   2.187   5.625   7.336 -0.2220 -0.1504 -0.0088
 1113YOPC   C1B15781   3.035   6.365   6.182  0.2486 -0.1086 -0.1552
 1113YOPC   C2B15782   2.993   6.759   6.169 -0.0061 -0.1265  0.0285
 1113YOPC   D3B15783   3.177   7.117   6.197  0.0073 -0.0417 -0.3080
 1113YOPC   C4B15784   3.428   7.424   6.239 -0.0892  0.2658 -0.0294
 1114YOPC   NC315785  18.787   1.434   5.561 -0.0472 -0.2141 -0.1655
 1114YOPC   PO415786  18.586   1.053   5.653  0.2049 -0.0443 -0.1437
 1114YOPC   GL115787  18.397   1.094   6.068  0.1315 -0.0908 -0.0514
 1114YOPC   GL215788  18.620   0.847   6.138  0.0448 -0.4215  0.0034
 1114YOPC   C1A15789  18.393   1.370   6.383 -0.1715  0.0709  0.2283
 1114YOPC   D2A15790  18.236   1.543   6.730 -0.1846 -0.1285 -0.2633
 1114YOPC   C3A15791  18.215   1.478   7.064  0.0182 -0.0508 -0.1267
 1114YOPC   C4A15792  18.321   1.078   7.263  0.1138 -0.0432  0.0422
 1114YOPC   C1B15793  18.735   0.619   6.491 -0.0169  0.1366 -0.2337
 1114YOPC   C2B15794  18.500   0.414   6.709 -0.1763  0.0602  0.2148
 1114YOPC   D3B15795  18.596   0.129   7.065  0.2269 -0.1335 -0.0231
 1114YOPC   C4B15796  18.633   0.050   7.496 -0.1661 -0.0450  0.1143
 1115YOPC   NC315797  17.250  13.044   4.873  0.3109 -0.1914  0.1389
 1115YOPC   PO415798  17.440  13.098   5.347 -0.1250  0.1967 -0.1045
 1115YOPC   GL115799  17.365  12.974   5.773  0.0613  0.1031  0.0701
 1115YOPC   GL215800  17.733  12.984   5.861 -0.3714  0.1081 -0.0046
 1115YOPC   C1A15801  17.428  12.850   6.226  0.1293  0.1094  0.1849
 1115YOPC   D2A15802  17.477  12.808   6.552 -0.3452 -0.3369 -0.0989
 1115YOPC   C3A15803  17.841  12.943   6.821 -0.0801  0.2917  0.2000
 1115YOPC   C4A15804  18.025  12.906   7.253 -0.0504  0.1473  0.2174
 1115YOPC   C1B15805  18.021  12.912   6.180  0.4025  0.0893 -0.0431
 1115YOPC   C2B15806  17.961  12.574   6.487  0.5072 -0.2009  0.1130
 1115YOPC   D3B15807  17.722  12.338   6.332  0.0319 -0.3188  0.1528
 1115YOPC   C4B15808  17.503  12.442   6.001  0.0021 -0.1087  0.3290
 1116YOPC   NC315809   9.135  10.807   5.530  0.1711 -0.3086 -0.2894
 1116YOPC   PO415810   9.643  10.807   5.377 -0.4216  0.0252 -0.1314
 1116YOPC   GL115811   9.576  10.584   5.765  0.0654 -0.0665  0.0674
 1116YOPC   GL215812   9.396  10.602   5.963  0.1055  0.2755  0.2073
 1116YOPC   C1A15813   9.886  10.532   6.089 -0.1068 -0.1839  0.2448
 1116YOPC   D2A15814   9.906  10.845   6.523 -0.1150 -0.0912  0.2937
 1116YOPC   C3A15815   9.949  10.789   6.964 -0.0861  0.4163  0.3807
 1116YOPC   C4A15816  10.225  10.515   7.263  0.0671 -0.1370  0.3860
 1116YOPC   C1B15817   9.468  10.493   6.434 -0.1086 -0.1716 -0.0154
 1116YOPC   C2B15818   9.283  10.299   6.821  0.2955 -0.1645  0.1025
 1116YOPC   D3B15819   9.252  10.431   7.240  0.0947  0.1747 -0.2704
 1116YOPC   C4B15820   9.289  10.635   7.535 -0.0277 -0.5548 -0.1215
 1117YOPC   NC315821  13.300   8.963   5.098  0.1185  0.0016 -0.0230
 1117YOPC   PO415822  13.278   8.555   5.223 -0.1466 -0.1417  0.1101
 1117YOPC   GL115823  13.044   8.517   5.675  0.2258 -0.0946  0.1182
 1117YOPC   GL215824  13.047   8.202   5.871 -0.2062 -0.0623 -0.2059
 1117YOPC   C1A15825  13.211   8.610   6.136  0.1011 -0.5059 -0.0696
 1117YOPC   D2A15826  13.327   8.839   6.476 -0.0521  0.0535 -0.1748
 1117YOPC   C3A15827  13.184   9.148   6.509  0.1026 -0.3418 -0.2339
 1117YOPC   C4A15828  13.254   9.569   6.718  0.0067 -0.0049  0.1363
 1117YOPC   C1B15829  13.211   8.150   6.214 -0.3309 -0.0654  0.1166
 1117YOPC   C2B15830  13.178   8.379   6.543 -0.3306 -0.0077 -0.1420
 1117YOPC   D3B15831  13.132   8.062   6.817 -0.3539 -0.0852 -0.1366
 1117YOPC   C4B15832  12.941   8.076   7.192 -0.1279  0.2424  0.2209
 1118YOPC   NC315833   7.479  15.282   5.554 -0.0680 -0.0031 -0.0127
 1118YOPC   PO415834   7.528  15.604   5.812 -0.0182 -0.3584  0.1749
 1118YOPC   GL115835   7.321  15.688   6.166  0.0471 -0.1557  0.1637
 1118YOPC   GL215836   7.449  16.089   6.066  0.2841  0.1283 -0.1017
 1118YOPC   C1A15837   7.223  16.021   6.580 -0.0411  0.1225  0.0309
 1118YOPC   D2A15838   7.387  16.088   6.947 -0.0578  0.1953  0.2744
 1118YOPC   C3A15839   7.674  16.113   7.381  0.1130 -0.0880  0.1910
 1118YOPC   C4A15840   7.813  15.937   7.761  0.0089 -0.1794 -0.1598
 1118YOPC   C1B15841   7.405  16.435   6.262 -0.1486  0.0814 -0.0103
 1118YOPC   C2B15842   7.303  16.516   6.640 -0.2731  0.0006 -0.0010
 1118YOPC   D3B15843   6.860  16.517   6.835  0.2605 -0.0879  0.0637
 1118YOPC   C4B15844   6.704  16.591   7.268  0.2603  0.2227  0.3434
 1119YOPC   NC315845  11.817   4.484   5.456  0.1868 -0.0068  0.2626
 1119YOPC   PO415846  12.147   4.592   5.790 -0.1117  0.0113  0.2057
 1119YOPC   GL115847  12.144   4.553   6.187  0.3945  0.1582 -0.2020
 1119YOPC   GL215848  11.889   4.259   6.165 -0.2976  0.2269  0.2796
 1119YOPC   C1A15849  12.134   4.501   6.582 -0.1555 -0.0931 -0.0963
 1119YOPC   D2A15850  12.361   4.638   6.871  0.2089  0.1318  0.0694
 1119YOPC   C3A15851  12.344   4.345   7.356 -0.2735  0.2718 -0.0480
 1119YOPC   C4A15852  12.281   4.345   7.711 -0.0415  0.1660  0.0045
 1119YOPC   C1B15853  11.737   4.185   6.511 -0.2441  0.1469 -0.1234
 1119YOPC   C2B15854  11.853   4.158   6.875  0.0397  0.1295 -0.1598
 1119YOPC   D3B15855  11.930   4.595   7.042 -0.0664  0.1369  0.4399
 1119YOPC   C4B15856  12.132   4.819   7.296  0.0354 -0.1043  0.1367
 1120YOPC   NC315857  13.798   9.677   5.408  0.2799 -0.2804 -0.0113
 1120YOPC   PO415858  13.443   9.457   5.607  0.0882  0.0436  0.0931
 1120YOPC   GL115859  13.579   9.609   5.952 -0.4138 -0.1215 -0.1279
 1120YOPC   GL215860  13.284   9.609   6.199 -0.1923 -0.0870 -0.0753
 1120YOPC   C1A15861  13.677   9.182   6.215 -0.0263 -0.2412  0.0343
 1120YOPC   D2A15862  13.633   9.204   6.717  0.4956 -0.0627 -0.0124
 1120YOPC   C3A15863  13.603   9.249   7.180 -0.0665  0.3940  0.2416
 1120YOPC   C4A15864  13.473   8.852   7.528  0.1968  0.3300  0.3425
 1120YOPC   C1B15865  13.486   9.869   6.416 -0.3061 -0.0230 -0.3115
 1120YOPC   C2B15866  13.801  10.150   6.629  0.1128 -0.1517  0.3129
 1120YOPC   D3B15867  13.939  10.050   6.953  0.0676 -0.0265 -0.1377
 1120YOPC   C4B15868  14.093   9.906   7.387  0.1212  0.3143  0.2311
 1121YOPC   NC315869   6.193  14.644   5.457  0.2477  0.4824  0.4342
 1121YOPC   PO415870   6.590  14.546   5.496  0.0188  0.0127 -0.3110
 1121YOPC   GL115871   6.604  14.418   5.926 -0.2272  0.0595 -0.2047
 1121YOPC   GL215872   6.834  14.171   6.044  0.1269 -0.0319 -0.0075
 1121YOPC   C1A15873   6.573  14.629   6.275  0.1050  0.0753 -0.2815
 1121YOPC   D2A15874   6.360  14.934   6.541 -0.1237 -0.3032  0.1697
 1121YOPC   C3A15875   6.349  14.952   6.993 -0.2624  0.1802  0.1766
 1121YOPC   C4A15876   6.037  14.858   7.335  0.0278  0.1392  0.1914
 1121YOPC   C1B15877   6.783  14.259   6.501  0.1698  0.1326 -0.1265
 1121YOPC   C2B15878   6.773  14.008   6.847  0.1180  0.0405 -0.1622
 1121YOPC   D3B15879   6.624  14.126   7.221 -0.1287  0.0733 -0.4698
 1121YOPC   C4B15880   6.337  14.183   7.463  0.3126 -0.1823  0.2943
 1122YOPC   NC315881   3.520   9.414   5.082  0.1537  0.0111 -0.0553
 1122YOPC   PO415882   3.186   9.172   5.219 -0.2596 -0.0461 -0.0117
 1122YOPC   GL115883   3.212   9.384   5.612 -0.0005  0.2836  0.0480
 1122YOPC   GL215884   3.505   9.236   5.688  0.2277 -0.2687 -0.1584
 1122YOPC   C1A15885   3.407   9.649   5.989 -0.1819 -0.0251 -0.2290
 1122YOPC   D2A15886   3.317   9.931   6.319 -0.1281 -0.2842 -0.3680
 1122YOPC   C3A15887   3.732   9.933   6.527  0.0971  0.0165 -0.0748
 1122YOPC   C4A15888   4.017  10.237   6.633 -0.1728  0.0464 -0.0037
 1122YOPC   C1B15889   3.464   9.131   6.193  0.1066 -0.3770  0.0111
 1122YOPC   C2B15890   3.721   9.010   6.533  0.0798 -0.2155  0.2759
 1122YOPC   D3B15891   3.477   9.117   6.939  0.0050 -0.1473  0.1536
 1122YOPC   C4B15892   3.147   8.880   7.131 -0.3924 -0.1718  0.2679
 1123ERGO   ROH15893   6.428  15.819   9.803 -0.3193 -0.1691 -0.2421
 1123ERGO    R115894   6.386  15.985   9.577 -0.2576 -0.1887 -0.2676
 1123ERGO    R215895   6.594  16.090   9.429 -0.2126 -0.0399 -0.0991
 1123ERGO    R315896   6.463  15.972   9.222  0.0290 -0.1209 -0.2109
 1123ERGO    R415897   6.600  16.202   9.102 -0.2267  0.1273 -0.0438
 1123ERGO    R515898   6.388  16.155   9.087 -0.1635 -0.1534 -0.1522
 1123ERGO    C115899   6.481  16.156   8.717 -0.0082  0.1486 -0.1164
 1123ERGO    C215900   6.460  16.155   8.381 -0.0472 -0.0461  0.1104
 1124ERGO   ROH15901   3.868   4.299   6.255 -0.1796  0.1385 -0.0778
 1124ERGO    R115902   3.737   4.401   6.484 -0.1394  0.2385 -0.0995
 1124ERGO    R215903   3.773   4.293   6.736 -0.4583  0.0426 -0.1354
 1124ERGO    R315904   3.837   4.549   6.801 -0.0644 -0.0900  0.0365
 1124ERGO    R415905   3.762   4.425   7.055 -0.7199 -0.0418 -0.1067
 1124ERGO    R515906   3.680   4.608   6.972 -0.2389  0.1538 -0.1957
 1124ERGO    C115907   3.815   4.742   7.302 -0.5025 -0.2155  0.0713
 1124ERGO    C215908   3.907   4.686   7.580  0.0366 -0.0296 -0.0111
 1125ERGO   ROH15909   5.287   3.653   6.104  0.0004  0.2692 -0.1563
 1125ERGO    R115910   5.106   3.652   6.322 -0.1181  0.2576 -0.2533
 1125ERGO    R215911   5.185   3.705   6.582 -0.1710 -0.1865 -0.1365
 1125ERGO    R315912   4.989   3.892   6.569  0.1085  0.1257 -0.0132
 1125ERGO    R415913   4.909   3.716   6.789 -0.5337 -0.3569 -0.5925
 1125ERGO    R515914   4.788   3.771   6.617 -0.1594  0.2621 -0.6862
 1125ERGO    C115915   4.564   3.897   6.899 -0.4826 -0.1630 -0.7422
 1125ERGO    C215916   4.550   4.054   7.156 -0.1738  0.1330  0.2412
 1126ERGO   ROH15917   4.338   1.406   6.035  0.1212  0.1107  0.1458
 1126ERGO    R115918   4.290   1.430   6.313 -0.0399  0.1390  0.1176
 1126ERGO    R215919   4.482   1.371   6.503 -0.1615  0.1102  0.2406
 1126ERGO    R315920   4.428   1.623   6.590 -0.1617  0.1287  0.1840
 1126ERGO    R415921   4.487   1.472   6.834 -0.1488  0.1980  0.2133
 1126ERGO    R515922   4.308   1.591   6.795 -0.1483  0.1822  0.1954
 1126ERGO    C115923   4.438   1.766   7.108 -0.1415  0.2665  0.1442
 1126ERGO    C215924   4.467   1.703   7.395  0.0173 -0.4178  0.1431
 1127ERGO   ROH15925   6.272  14.036   6.135  0.0008 -0.0273  0.0042
 1127ERGO    R115926   6.310  14.045   6.415 -0.1451 -0.2129  0.0311
 1127ERGO    R215927   6.318  14.281   6.557  0.2254 -0.2788  0.1266
 1127ERGO    R315928   6.122  14.163   6.704 -0.0939  0.0321 -0.0327
 1127ERGO    R415929   6.199  14.400   6.859  0.4129 -0.2597  0.1940
 1127ERGO    R515930   6.192  14.194   6.931 -0.0763 -0.3196  0.0175
 1127ERGO    C115931   5.947  14.358   7.173  0.2223  0.0432  0.0836
 1127ERGO    C215932   5.699  14.507   7.329 -0.0321  0.1521  0.1602
 1128ERGO   ROH15933   5.958   5.397   6.219  0.4647 -0.3120 -0.1366
 1128ERGO    R115934   5.800   5.227   6.382  0.2698 -0.1605 -0.1655
 1128ERGO    R215935   5.896   4.990   6.487  0.1156 -0.1108  0.0891
 1128ERGO    R315936   5.816   5.099   6.723 -0.0831  0.0687 -0.0565
 1128ERGO    R415937   5.967   4.860   6.799 -0.0219  0.1949  0.2532
 1128ERGO    R515938   5.764   4.910   6.861 -0.0881  0.1648  0.0794
 1128ERGO    C115939   5.933   4.886   7.202 -0.2886  0.5414  0.2120
 1128ERGO    C215940   5.812   4.863   7.550 -0.2023 -0.0522 -0.1374
 1129ERGO   ROH15941  11.312   8.151   6.264 -0.1718  0.3451  0.0717
 1129ERGO    R115942  11.247   8.352   6.452  0.0344  0.3455  0.1432
 1129ERGO    R215943  11.206   8.298   6.720 -0.0102  0.2930  0.1197
 1129ERGO    R315944  11.396   8.489   6.755  0.1798  0.0973  0.1890
 1129ERGO    R415945  11.294   8.436   7.024 -0.1359  0.3412  0.1357
 1129ERGO    R515946  11.308   8.631   6.926  0.1731  0.2856  0.0413
 1129ERGO    C115947  11.524   8.696   7.234 -0.0306  0.1856  0.2102
 1129ERGO    C215948  11.807   8.949   7.244 -0.0941 -0.0614  0.0710
 1130ERGO   ROH15949   6.581   6.633   5.939  0.0092 -0.0662  0.1663
 1130ERGO    R115950   6.478   6.813   6.132 -0.1210 -0.0409  0.0750
 1130ERGO    R215951   6.209   6.828   6.192 -0.1377 -0.1829  0.0444
 1130ERGO    R315952   6.297   6.788   6.446 -0.1321 -0.0112  0.0708
 1130ERGO    R415953   6.005   6.780   6.467 -0.1312  0.0136  0.0848
 1130ERGO    R515954   6.140   6.905   6.583 -0.1235  0.0891 -0.0050
 1130ERGO    C115955   5.968   6.714   6.865 -0.1223  0.2891  0.1332
 1130ERGO    C215956   5.814   6.688   7.163 -0.1547  0.1609 -0.1404
 1131ERGO   ROH15957  15.555   6.561   6.266  0.1959  0.0886 -0.0906
 1131ERGO    R115958  15.464   6.393   6.474  0.0044  0.1212 -0.1464
 1131ERGO    R215959  15.566   6.140   6.517 -0.2269  0.0193 -0.1810
 1131ERGO    R315960  15.607   6.234   6.768 -0.1943 -0.0729 -0.1515
 1131ERGO    R415961  15.552   5.948   6.804 -0.3614 -0.0510 -0.2335
 1131ERGO    R515962  15.450   6.114   6.904 -0.2750 -0.0198 -0.1977
 1131ERGO    C115963  15.583   5.926   7.208 -0.4092 -0.1786 -0.2363
 1131ERGO    C215964  15.765   5.763   7.404 -0.0359  0.0486 -0.2514
 1132ERGO   ROH15965   4.044  13.979   6.226 -0.0683  0.0186  0.1020
 1132ERGO    R115966   4.092  14.091   6.481 -0.0007  0.2056  0.0088
 1132ERGO    R215967   4.227  13.956   6.680 -0.2542  0.2098  0.1880
 1132ERGO    R315968   4.383  14.178   6.681  0.0558  0.0005  0.0184
 1132ERGO    R415969   4.369  14.097   6.962 -0.1157  0.2644  0.0920
 1132ERGO    R515970   4.322  14.293   6.882  0.1712  0.2651 -0.0927
 1132ERGO    C115971   4.598  14.388   7.127  0.2559  0.0996 -0.1231
 1132ERGO    C215972   4.657  14.461   7.481 -0.3371 -0.2176 -0.2533
 1133ERGO   ROH15973  10.431  11.754   6.178 -0.0044  0.0799 -0.0435
 1133ERGO    R115974  10.346  11.865   6.424  0.3394  0.0603  0.0899
 1133ERGO    R215975  10.107  11.795   6.544  0.1017  0.6493 -0.0051
 1133ERGO    R315976  10.267  11.741   6.757 -0.0445 -0.1116 -0.0589
 1133ERGO    R415977  10.000  11.784   6.872  0.0617  0.5372 -0.0210
 1133ERGO    R515978  10.185  11.885   6.930  0.3785 -0.0785  0.1269
 1133ERGO    C115979  10.087  11.727   7.264 -0.0988 -0.2423 -0.0807
 1133ERGO    C215980   9.870  11.794   7.635  0.2578 -0.2070  0.0097
 1134ERGO   ROH15981   7.686   8.830   5.688 -0.0141 -0.2249  0.1313
 1134ERGO    R115982   7.785   9.028   5.865  0.0146 -0.1635  0.0466
 1134ERGO    R215983   7.622   9.218   5.982  0.0329 -0.1295  0.0139
 1134ERGO    R315984   7.732   9.124   6.212  0.0792 -0.0484  0.0257
 1134ERGO    R415985   7.684   9.409   6.263 -0.2703 -0.1080  0.0701
 1134ERGO    R515986   7.873   9.302   6.287 -0.1483  0.1058  0.1012
 1134ERGO    C115987   7.824   9.432   6.643 -0.4033 -0.0193  0.1140
 1134ERGO    C215988   7.687   9.604   6.903 -0.1452  0.0278  0.4641
 1135ERGO   ROH15989  12.422   5.484   6.361  0.2208 -0.1476  0.0877
 1135ERGO    R115990  12.394   5.490   6.643  0.0628  0.0666  0.0702
 1135ERGO    R215991  12.610   5.469   6.814 -0.0585 -0.0949  0.2105
 1135ERGO    R315992  12.512   5.702   6.915  0.1685  0.0979  0.0001
 1135ERGO    R415993  12.730   5.629   7.097  0.0566  0.0197  0.0982
 1135ERGO    R515994  12.524   5.674   7.152  0.0939  0.2853  0.0259
 1135ERGO    C115995  12.706   5.940   7.356  0.3367  0.2674 -0.1647
 1135ERGO    C215996  12.936   6.112   7.622  0.1154 -0.3133  0.2034
 1136ERGO   ROH15997  10.838   8.871   9.630 -0.2020  0.0809  0.0475
 1136ERGO    R115998  11.008   8.821   9.410 -0.1143  0.1402  0.1025
 1136ERGO    R215999  11.087   8.566   9.339 -0.0907  0.1632  0.0656
 1136ERGO    R316000  10.987   8.637   9.096  0.0127  0.2281  0.0401
 1136ERGO    R416001  11.132   8.388   9.046 -0.0196  0.1974  0.0543
 1136ERGO    R516002  11.158   8.577   8.941  0.0620  0.2142  0.0936
 1136ERGO    C116003  11.064   8.351   8.648  0.1189  0.2783  0.0238
 1136ERGO    C216004  11.164   8.320   8.231  0.1205 -0.0009  0.0406
 1137ERGO   ROH16005  14.618   3.145   6.140 -0.2168  0.1325 -0.1326
 1137ERGO    R116006  14.693   3.090   6.407 -0.0680  0.1539 -0.1692
 1137ERGO    R216007  14.576   3.216   6.623 -0.0570  0.0602 -0.1075
 1137ERGO    R316008  14.530   2.962   6.706  0.1389  0.0217 -0.1115
 1137ERGO    R416009  14.471   3.127   6.940 -0.0864 -0.0205 -0.1394
 1137ERGO    R516010  14.607   2.957   6.932  0.0660  0.0988 -0.0858
 1137ERGO    C116011  14.366   2.836   7.202  0.0804 -0.1037 -0.1618
 1137ERGO    C216012  14.222   2.767   7.501  0.1133 -0.1393 -0.1634
 1138ERGO   ROH16013   8.049   2.919   6.169 -0.1954 -0.1820 -0.0510
 1138ERGO    R116014   8.048   2.988   6.444 -0.2996  0.1358 -0.1262
 1138ERGO    R216015   7.815   3.042   6.582 -0.3867 -0.0166 -0.2001
 1138ERGO    R316016   7.909   2.850   6.750 -0.1285  0.2954  0.0242
 1138ERGO    R416017   7.654   2.934   6.869 -0.3474 -0.0628 -0.1961
 1138ERGO    R516018   7.847   2.927   6.969 -0.3878  0.3758 -0.0779
 1138ERGO    C116019   7.648   2.691   7.193 -0.0821  0.2032  0.0167
 1138ERGO    C216020   7.599   2.380   7.555 -0.1653  0.0485 -0.1106
 1139ERGO   ROH16021   9.687  17.186   6.128 -0.0494  0.2700  0.2174
 1139ERGO    R116022   9.793  17.132   6.385  0.0236  0.1284  0.1584
 1139ERGO    R216023  10.060  17.073   6.426  0.0379  0.1153  0.0521
 1139ERGO    R316024  10.044  17.279   6.604  0.0775  0.0146  0.1736
 1139ERGO    R416025  10.304  17.155   6.656  0.0809 -0.0296  0.0584
 1139ERGO    R516026  10.147  17.194   6.802  0.1071 -0.1058  0.1079
 1139ERGO    C116027  10.432  17.395   6.957  0.1431 -0.2086  0.1763
 1139ERGO    C216028  10.583  17.767   7.149  0.3298  0.0822  0.0281
 1140ERGO   ROH16029  12.159  11.237   6.135  0.2188 -0.1121 -0.0985
 1140ERGO    R116030  12.176  11.122   6.392  0.1118 -0.0638 -0.0677
 1140ERGO    R216031  12.404  10.997   6.485  0.0252 -0.1948 -0.0079
 1140ERGO    R316032  12.376  11.171   6.692  0.1100 -0.1220 -0.0587
 1140ERGO    R416033  12.447  10.916   6.818 -0.1123 -0.1353  0.0235
 1140ERGO    R516034  12.274  11.041   6.865 -0.0248  0.0042 -0.0471
 1140ERGO    C116035  12.445  11.031   7.207 -0.1127 -0.0324 -0.0059
 1140ERGO    C216036  12.345  10.956   7.627 -0.0682 -0.1126  0.2759
 1141ERGO   ROH16037   8.528  15.104   6.311 -0.0194 -0.1691 -0.0638
 1141ERGO    R116038   8.559  14.885   6.486 -0.0031 -0.1441 -0.0352
 1141ERGO    R216039   8.714  14.898   6.715 -0.0644 -0.0801  0.0024
 1141ERGO    R316040   8.486  14.812   6.835 -0.0710 -0.1316 -0.0466
 1141ERGO    R416041   8.699  14.751   7.027 -0.1104  0.0399  0.0571
 1141ERGO    R516042   8.550  14.611   6.949 -0.0217 -0.0582  0.0581
 1141ERGO    C116043   8.476  14.585   7.322 -0.1433  0.0613  0.0431
 1141ERGO    C216044   8.496  14.381   7.614  0.0619 -0.1855 -0.0938
 1142ERGO   ROH16045   0.951  12.396   5.815 -0.0331 -0.1357 -0.1065
 1142ERGO    R116046   0.834  12.382   6.072 -0.0131  0.0509 -0.0871
 1142ERGO    R216047   0.781  12.607   6.225 -0.1398  0.1692 -0.3131
 1142ERGO    R316048   0.529  12.503   6.231 -0.0805  0.0261 -0.1920
 1142ERGO    R416049   0.551  12.660   6.477 -0.0188 -0.0072 -0.1626
 1142ERGO    R516050   0.492  12.450   6.461  0.0872 -0.0444 -0.1740
 1142ERGO    C116051   0.182  12.593   6.631  0.1072 -0.2442  0.0387
 1142ERGO    C216052  -0.006  12.731   6.804 -0.0850  0.0072 -0.1981
 1143ERGO   ROH16053   2.179  12.711   9.526 -0.0378  0.1072  0.1666
 1143ERGO    R116054   2.318  12.727   9.280 -0.0295  0.1023  0.1711
 1143ERGO    R216055   2.237  12.590   9.054  0.0112  0.0529  0.1872
 1143ERGO    R316056   2.243  12.837   8.941 -0.0364  0.0381  0.1516
 1143ERGO    R416057   2.283  12.651   8.717  0.0322  0.0136  0.1827
 1143ERGO    R516058   2.411  12.820   8.770 -0.0137  0.0527  0.1718
 1143ERGO    C116059   2.315  12.919   8.414 -0.0003 -0.0232  0.1466
 1143ERGO    C216060   2.342  13.006   7.976 -0.1491  0.0511 -0.0679
 1144ERGO   ROH16061   0.703   3.745   5.937 -0.3188 -0.1598 -0.0688
 1144ERGO    R116062   0.694   3.686   6.213 -0.2123 -0.1552 -0.0633
 1144ERGO    R216063   0.552   3.839   6.394  0.1407  0.0593  0.0473
 1144ERGO    R316064   0.439   3.601   6.458 -0.1759  0.2235  0.1131
 1144ERGO    R416065   0.517   3.719   6.716  0.3483  0.0223  0.0562
 1144ERGO    R516066   0.571   3.520   6.642 -0.0717 -0.0499 -0.0765
 1144ERGO    C116067   0.391   3.425   6.964  0.1720  0.1549  0.1232
 1144ERGO    C216068   0.483   3.484   7.264  0.1096  0.0153 -0.3013
 1145ERGO   ROH16069   9.108  18.773   6.096 -0.2876 -0.1251 -0.0781
 1145ERGO    R116070   9.103  18.853   6.367 -0.1865 -0.1224 -0.0772
 1145ERGO    R216071   8.877  18.957   6.487 -0.1580 -0.1805  0.0216
 1145ERGO    R316072   8.922  18.759   6.668 -0.0261 -0.1645  0.0085
 1145ERGO    R416073   8.802  18.975   6.824 -0.1302 -0.2324  0.0311
 1145ERGO    R516074   8.989  18.873   6.867 -0.0653 -0.1315  0.0055
 1145ERGO    C116075   8.800  18.798   7.190  0.0098 -0.2477  0.0242
 1145ERGO    C216076   8.624  18.662   7.508  0.3300 -0.1995 -0.2711
 1146ERGO   ROH16077   4.809  18.559   5.933  0.1221 -0.0746  0.1146
 1146ERGO    R116078   4.901  18.710   6.154  0.0639  0.0139  0.0789
 1146ERGO    R216079   4.728  18.827   6.336  0.0194 -0.0820  0.0985
 1146ERGO    R316080   4.876  18.688   6.517  0.1502  0.0391  0.0867
 1146ERGO    R416081   4.766  18.914   6.668  0.0254 -0.0160  0.0807
 1146ERGO    R516082   4.976  18.857   6.654  0.0628  0.1249  0.0466
 1146ERGO    C116083   4.926  18.834   7.032  0.1518  0.1365  0.0594
 1146ERGO    C216084   4.805  19.006   7.288 -0.0001  0.0123  0.1470
 1147ERGO   ROH16085  13.303   6.735   9.822 -0.1007 -0.0768 -0.0389
 1147ERGO    R116086  13.384   6.695   9.553 -0.0828 -0.0417 -0.0393
 1147ERGO    R216087  13.298   6.480   9.403 -0.0681 -0.0257 -0.0725
 1147ERGO    R316088  13.221   6.673   9.228 -0.0621 -0.0059 -0.0523
 1147ERGO    R416089  13.209   6.423   9.074 -0.0669  0.0081 -0.0780
 1147ERGO    R516090  13.316   6.605   9.019 -0.0618  0.0118 -0.0584
 1147ERGO    C116091  13.084   6.572   8.718 -0.0605  0.0463 -0.0621
 1147ERGO    C216092  13.069   6.464   8.347 -0.1842 -0.0767 -0.3033
 1148ERGO   ROH16093  18.289  16.029   6.366  0.2112 -0.0803  0.0984
 1148ERGO    R116094  18.114  15.857   6.506  0.1067 -0.0535  0.0030
 1148ERGO    R216095  18.132  15.581   6.491  0.0940 -0.0583  0.0394
 1148ERGO    R316096  18.145  15.599   6.762 -0.0759 -0.0331  0.0465
 1148ERGO    R416097  18.065  15.322   6.709  0.1665 -0.0963  0.0162
 1148ERGO    R516098  17.963  15.464   6.839 -0.0171 -0.1675 -0.0504
 1148ERGO    C116099  18.038  15.188   7.091  0.0490 -0.0948  0.0095
 1148ERGO    C216100  17.927  14.927   7.087 -0.2577  0.1577  0.2502
 1149ERGO   ROH16101   4.924  10.621   5.887 -0.0572 -0.1355 -0.1191
 1149ERGO    R116102   4.849  10.678   6.154  0.0913 -0.0315 -0.0990
 1149ERGO    R216103   4.633  10.558   6.277  0.0462  0.1555  0.0062
 1149ERGO    R316104   4.818  10.492   6.465  0.0705  0.0460 -0.0544
 1149ERGO    R416105   4.562  10.492   6.608  0.1223  0.2598  0.0441
 1149ERGO    R516106   4.741  10.603   6.664  0.2279  0.1347 -0.0411
 1149ERGO    C116107   4.693  10.392   6.979  0.1894  0.2177  0.0091
 1149ERGO    C216108   4.758  10.431   7.280 -0.0135 -0.0447 -0.0629
 1150ERGO   ROH16109  15.982  11.158   5.984 -0.1148 -0.1123  0.0204
 1150ERGO    R116110  16.058  11.264   6.235  0.1325 -0.3238  0.0383
 1150ERGO    R216111  15.874  11.351   6.423  0.3227  0.1455  0.0182
 1150ERGO    R316112  16.006  11.178   6.585 -0.1401 -0.2216  0.0256
 1150ERGO    R416113  15.833  11.330   6.765  0.2780  0.2861  0.0222
 1150ERGO    R516114  16.048  11.303   6.784  0.2203 -0.3115  0.0138
 1150ERGO    C116115  15.933  11.156   7.117 -0.1826  0.0232  0.0316
 1150ERGO    C216116  15.792  11.068   7.370  0.0815  0.2218  0.1743
 1151ERGO   ROH16117  14.732  15.994   6.247 -0.0134 -0.1729 -0.0343
 1151ERGO    R116118  14.810  15.930   6.512  0.0800 -0.0629 -0.0353
 1151ERGO    R216119  15.053  16.008   6.618  0.0001  0.2190 -0.0633
 1151ERGO    R316120  14.896  16.114   6.814 -0.1015  0.0607 -0.0554
 1151ERGO    R416121  15.150  16.051   6.947  0.0239  0.4176 -0.0947
 1151ERGO    R516122  14.951  15.987   7.009  0.1124  0.1680 -0.0371
 1151ERGO    C116123  15.060  16.177   7.322 -0.0576  0.3847 -0.1056
 1151ERGO    C216124  15.268  16.213   7.672 -0.0924  0.0583  0.1701
 1152ERGO   ROH16125  15.719   5.209   6.062  0.2921 -0.0579 -0.1239
 1152ERGO    R116126  15.723   5.039   6.288  0.2018  0.0396 -0.0491
 1152ERGO    R216127  15.819   5.121   6.534 -0.0343  0.1926 -0.0086
 1152ERGO    R316128  15.575   5.039   6.621 -0.0601  0.1023 -0.1620
 1152ERGO    R416129  15.744   5.030   6.859 -0.1614  0.0200 -0.0842
 1152ERGO    R516130  15.623   4.867   6.781 -0.0965  0.0309 -0.2223
 1152ERGO    C116131  15.471   4.900   7.129 -0.2597 -0.1654 -0.2721
 1152ERGO    C216132  15.484   4.916   7.476 -0.0768 -0.1491  0.4525
 1153ERGO   ROH16133  15.250   2.230   6.109  0.0339  0.0539  0.1936
 1153ERGO    R116134  15.387   2.274   6.353 -0.0827  0.1128  0.2505
 1153ERGO    R216135  15.261   2.267   6.599 -0.1673 -0.0181  0.2083
 1153ERGO    R316136  15.454   2.084   6.657 -0.0569  0.1084  0.2408
 1153ERGO    R416137  15.409   2.227   6.908 -0.2276  0.0390  0.2441
 1153ERGO    R516138  15.600   2.198   6.808 -0.1799  0.1858  0.2985
 1153ERGO    C116139  15.676   2.033   7.143 -0.1591  0.1909  0.2956
 1153ERGO    C216140  15.772   1.972   7.526 -0.0856  0.1157  0.0411
 1154ERGO   ROH16141   3.588  14.013   6.370 -0.0018  0.1575 -0.1049
 1154ERGO    R116142   3.644  14.196   6.579  0.0085  0.1098 -0.0655
 1154ERGO    R216143   3.617  14.129   6.846  0.0338  0.0444 -0.0781
 1154ERGO    R316144   3.875  14.214   6.860  0.0316  0.0511 -0.0811
 1154ERGO    R416145   3.793  14.183   7.139  0.0399  0.0424 -0.0816
 1154ERGO    R516146   3.880  14.361   7.049  0.0328  0.0461 -0.0784
 1154ERGO    C116147   4.138  14.293   7.322  0.0415  0.0476 -0.0864
 1154ERGO    C216148   4.184  14.219   7.625 -0.3221 -0.2365 -0.0679
 1155ERGO   ROH16149  15.688  13.949   6.180 -0.0895 -0.0534 -0.0277
 1155ERGO    R116150  15.768  14.061   6.427 -0.0319  0.0351 -0.0865
 1155ERGO    R216151  15.715  13.939   6.670 -0.0517  0.1660 -0.0287
 1155ERGO    R316152  15.984  13.963   6.704 -0.0402  0.0942 -0.0577
 1155ERGO    R416153  15.889  13.828   6.947 -0.0521  0.0896 -0.0580
 1155ERGO    R516154  16.009  14.010   6.938 -0.0046  0.0634 -0.0525
 1155ERGO    C116155  16.243  13.786   7.141 -0.0415 -0.0224 -0.1022
 1155ERGO    C216156  16.413  13.551   7.312 -0.2339  0.0186 -0.0711
 1156ERGO   ROH16157   9.867   1.247   6.187 -0.0371 -0.1609  0.1827
 1156ERGO    R116158   9.612   1.332   6.274 -0.0912 -0.2852  0.1508
 1156ERGO    R216159   9.486   1.222   6.494  0.0920 -0.1028  0.3571
 1156ERGO    R316160   9.471   1.481   6.575 -0.1248  0.0051 -0.0068
 1156ERGO    R416161   9.258   1.344   6.724  0.0834  0.0052  0.2904
 1156ERGO    R516162   9.236   1.523   6.599 -0.1530 -0.1914  0.0437
 1156ERGO    C116163   9.112   1.659   6.933 -0.1252  0.1692 -0.0900
 1156ERGO    C216164   8.839   1.752   7.129 -0.1120  0.0030 -0.1715
 1157ERGO   ROH16165  14.108   6.438   6.472  0.1340 -0.0566  0.0875
 1157ERGO    R116166  14.077   6.539   6.735  0.0527 -0.0980  0.0938
 1157ERGO    R216167  13.864   6.700   6.808  0.0445 -0.0874  0.0456
 1157ERGO    R316168  13.831   6.511   7.001 -0.0446 -0.1164  0.0026
 1157ERGO    R416169  13.807   6.766   7.143  0.1265 -0.1382  0.0704
 1157ERGO    R516170  13.941   6.602   7.193  0.0344 -0.2314  0.0125
 1157ERGO    C116171  13.743   6.628   7.518  0.0906 -0.1951  0.0445
 1157ERGO    C216172  13.844   6.667   7.802 -0.3368  0.0225 -0.0767
 1158ERGO   ROH16173   5.288   1.325   6.202  0.1508 -0.0737 -0.0754
 1158ERGO    R116174   5.452   1.340   6.432  0.1191 -0.2044 -0.0443
 1158ERGO    R216175   5.419   1.533   6.627  0.3663 -0.0460 -0.1587
 1158ERGO    R316176   5.406   1.317   6.792 -0.0048  0.0587 -0.0404
 1158ERGO    R416177   5.410   1.549   6.972  0.5037  0.1646 -0.1632
 1158ERGO    R516178   5.545   1.377   6.978  0.1774 -0.1035 -0.1160
 1158ERGO    C116179   5.393   1.357   7.328  0.2354  0.3856 -0.0547
 1158ERGO    C216180   5.221   1.484   7.594 -0.2380  0.0218 -0.0335
 1159ERGO   ROH16181   9.287  15.537   6.816  0.0364 -0.2706  0.0188
 1159ERGO    R116182   9.346  15.388   7.049 -0.1299 -0.2702  0.0627
 1159ERGO    R216183   9.421  15.507   7.287  0.0582 -0.2844  0.0126
 1159ERGO    R316184   9.214  15.363   7.387 -0.1232  0.0210  0.0892
 1159ERGO    R416185   9.360  15.457   7.623  0.0172 -0.0701  0.0381
 1159ERGO    R516186   9.306  15.251   7.578 -0.2525 -0.0221  0.1266
 1159ERGO    C116187   9.130  15.293   7.914 -0.1770  0.3414  0.1249
 1159ERGO    C216188   9.045  15.141   8.234 -0.2229  0.1115  0.0137
 1160ERGO   ROH16189   8.961  11.165   6.194 -0.1885 -0.2298 -0.0191
 1160ERGO    R116190   9.051  11.000   6.406  0.1080 -0.1509 -0.0784
 1160ERGO    R216191   9.319  10.974   6.471  0.1647  0.3458 -0.0530
 1160ERGO    R316192   9.233  11.047   6.718 -0.0226  0.0760 -0.0361
 1160ERGO    R416193   9.493  10.921   6.765  0.0570  0.2717 -0.0029
 1160ERGO    R516194   9.305  10.869   6.861  0.0575  0.0316 -0.1380
 1160ERGO    C116195   9.513  10.958   7.168 -0.1813 -0.0246  0.0422
 1160ERGO    C216196   9.751  10.781   7.470 -0.0076 -0.1689 -0.0142
 1161ERGO   ROH16197  17.930  18.166   6.133  0.2492  0.0824 -0.0493
 1161ERGO    R116198  17.735  18.300   6.287  0.1556  0.0321 -0.1232
 1161ERGO    R216199  17.751  18.322   6.562  0.0300  0.0105 -0.1138
 1161ERGO    R316200  17.725  18.588   6.510  0.0033  0.0105 -0.1005
 1161ERGO    R416201  17.708  18.567   6.802 -0.1490 -0.0239 -0.1098
 1161ERGO    R516202  17.564  18.664   6.670 -0.0990 -0.0399 -0.1776
 1161ERGO    C116203  17.658  18.959   6.893 -0.2782 -0.0440 -0.0950
 1161ERGO    C216204  17.511  19.224   7.045  0.2262 -0.1988  0.1110
 1162ERGO   ROH16205  16.143   7.665   6.012  0.0636  0.0325 -0.1084
 1162ERGO    R116206  16.207   7.630   6.285  0.0311  0.0721 -0.0945
 1162ERGO    R216207  16.193   7.385   6.411 -0.1520  0.1163 -0.0135
 1162ERGO    R316208  16.451   7.440   6.477 -0.1122 -0.0474 -0.0325
 1162ERGO    R416209  16.352   7.274   6.697 -0.1730 -0.0265 -0.0574
 1162ERGO    R516210  16.447   7.469   6.715 -0.0594 -0.0905 -0.0311
 1162ERGO    C116211  16.687   7.261   6.925 -0.1479 -0.2634 -0.1009
 1162ERGO    C216212  17.069   7.046   7.066  0.2718 -0.1011  0.2170
 1163ERGO   ROH16213  14.068   5.016   6.264 -0.0728  0.1121  0.1290
 1163ERGO    R116214  13.932   5.025   6.512 -0.1673 -0.0834  0.0863
 1163ERGO    R216215  13.895   4.802   6.670  0.1666 -0.1295  0.1078
 1163ERGO    R316216  14.011   4.957   6.860 -0.1520  0.1040  0.1198
 1163ERGO    R416217  13.924   4.717   7.004  0.5736 -0.2208  0.0553
 1163ERGO    R516218  13.876   4.923   7.055  0.0323 -0.3623  0.1778
 1163ERGO    C116219  14.049   4.813   7.377  0.5117 -0.0548  0.0360
 1163ERGO    C216220  14.097   4.695   7.738 -0.3656 -0.1571  0.1359
 1164ERGO   ROH16221   0.181   7.092   5.857  0.1325 -0.0194  0.3013
 1164ERGO    R116222   0.088   6.890   6.032  0.0416  0.0111  0.2872
 1164ERGO    R216223   0.068   6.626   5.956 -0.0070  0.0170  0.2933
 1164ERGO    R316224   0.220   6.584   6.177 -0.0705 -0.0180  0.3319
 1164ERGO    R416225   0.156   6.315   6.080  0.0847 -0.0061  0.1734
 1164ERGO    R516226   0.123   6.391   6.281 -0.0269 -0.1152  0.2022
 1164ERGO    C116227   0.351   6.095   6.359  0.0785 -0.0523  0.1398
 1164ERGO    C216228   0.343   5.769   6.401  0.1693  0.1031  0.0791
 1165ERGO   ROH16229   2.270  17.146   6.211  0.0065 -0.2452 -0.0585
 1165ERGO    R116230   2.343  17.103   6.481 -0.0756 -0.4516 -0.0676
 1165ERGO    R216231   2.282  17.282   6.682  0.4162 -0.2846 -0.0566
 1165ERGO    R316232   2.170  17.063   6.799 -0.1596 -0.0064 -0.0496
 1165ERGO    R416233   2.157  17.271   7.004  0.5909  0.0080  0.0239
 1165ERGO    R516234   2.244  17.073   7.026  0.0316 -0.2753 -0.0912
 1165ERGO    C116235   1.980  17.060   7.301  0.1521  0.4396  0.0773
 1165ERGO    C216236   1.780  16.915   7.472 -0.1519 -0.2531  0.1475
 1166ERGO   ROH16237  11.548   0.499   6.095  0.0172 -0.1311  0.2263
 1166ERGO    R116238  11.647   0.538   6.357 -0.0705 -0.0415  0.2472
 1166ERGO    R216239  11.532   0.715   6.535 -0.1215  0.0339  0.1446
 1166ERGO    R316240  11.521   0.496   6.696 -0.1922  0.0910  0.2180
 1166ERGO    R416241  11.599   0.715   6.874  0.0993  0.0768  0.1028
 1166ERGO    R516242  11.703   0.526   6.849 -0.0703 -0.0117  0.0911
 1166ERGO    C116243  11.627   0.510   7.223  0.1616  0.1554  0.1473
 1166ERGO    C216244  11.615   0.486   7.408 -0.2606  0.1979  0.4037
 1167ERGO   ROH16245   2.634  15.872   5.903 -0.0414  0.0172 -0.0246
 1167ERGO    R116246   2.662  15.722   6.141 -0.0382  0.0207 -0.0232
 1167ERGO    R216247   2.782  15.824   6.369 -0.0854  0.0425 -0.0104
 1167ERGO    R316248   2.548  15.750   6.486 -0.0829 -0.0065 -0.0350
 1167ERGO    R416249   2.733  15.793   6.709 -0.1403  0.1346 -0.0093
 1167ERGO    R516250   2.615  15.614   6.671 -0.0675  0.0765  0.0231
 1167ERGO    C116251   2.485  15.706   7.018 -0.1700  0.1421 -0.0317
 1167ERGO    C216252   2.493  15.675   7.362  0.0532  0.1656  0.0245
 1168ERGO   ROH16253   4.819   7.592   6.226  0.0516  0.1652 -0.0404
 1168ERGO    R116254   4.787   7.475   6.482 -0.0571  0.1480 -0.0607
 1168ERGO    R216255   5.001   7.389   6.633 -0.1269  0.0241 -0.0260
 1168ERGO    R316256   4.892   7.550   6.822 -0.0879  0.0565 -0.0317
 1168ERGO    R416257   5.038   7.346   6.974 -0.0523  0.0950 -0.0252
 1168ERGO    R516258   4.828   7.401   6.999 -0.0447  0.0932  0.0117
 1168ERGO    C116259   4.957   7.473   7.351  0.0277  0.1668 -0.0301
 1168ERGO    C216260   4.893   7.416   7.702  0.0672 -0.0025  0.1373
 1169ERGO   ROH16261  11.688  10.350   9.936  0.1544 -0.0670  0.1159
 1169ERGO    R116262  11.781  10.243   9.691 -0.0166  0.0420  0.0014
 1169ERGO    R216263  11.665  10.305   9.448 -0.0873  0.2792  0.0915
 1169ERGO    R316264  11.919  10.374   9.381 -0.0722  0.1711  0.0316
 1169ERGO    R416265  11.785  10.330   9.125 -0.2196  0.4891  0.0563
 1169ERGO    R516266  11.971  10.238   9.191 -0.2490  0.3073 -0.1150
 1169ERGO    C116267  12.094  10.411   8.875 -0.2824  0.5098 -0.0203
 1169ERGO    C216268  12.221  10.627   8.598  0.1417 -0.1487  0.1712
 1170ERGO   ROH16269   4.443   2.980   6.052 -0.0414 -0.2025  0.0760
 1170ERGO    R116270   4.423   2.842   6.299 -0.1337 -0.1294  0.1100
 1170ERGO    R216271   4.586   2.900   6.515 -0.0800 -0.1994  0.0875
 1170ERGO    R316272   4.348   2.928   6.644 -0.0538  0.0098  0.0939
 1170ERGO    R416273   4.551   2.937   6.857 -0.0367 -0.2042  0.0925
 1170ERGO    R516274   4.377   2.805   6.848 -0.1637 -0.0421  0.0802
 1170ERGO    C116275   4.307   2.985   7.177  0.0130 -0.0106  0.1014
 1170ERGO    C216276   4.274   3.150   7.589 -0.0382 -0.2453 -0.1786
 1171ERGO   ROH16277   8.792  14.752   6.117 -0.2328  0.0024 -0.0972
 1171ERGO    R116278   8.892  14.559   6.299 -0.0875  0.0813 -0.0910
 1171ERGO    R216279   9.050  14.626   6.516  0.0029  0.1874 -0.1862
 1171ERGO    R316280   8.861  14.490   6.655  0.1086  0.1740 -0.0551
 1171ERGO    R416281   9.071  14.549   6.852  0.1978  0.2626 -0.1798
 1171ERGO    R516282   8.986  14.353   6.807  0.2187  0.2351 -0.0917
 1171ERGO    C116283   8.905  14.376   7.179  0.4107  0.2939 -0.0530
 1171ERGO    C216284   8.931  14.485   7.507 -0.1345  0.0133 -0.1526
 1172ERGO   ROH16285   9.731   5.489   9.553  0.1277  0.2338 -0.0663
 1172ERGO    R116286   9.538   5.520   9.347  0.0994  0.0803 -0.0646
 1172ERGO    R216287   9.386   5.749   9.319 -0.0027  0.0071 -0.1346
 1172ERGO    R316288   9.486   5.744   9.066 -0.0165 -0.0386 -0.1382
 1172ERGO    R416289   9.258   5.929   9.053  0.1841  0.2124 -0.0880
 1172ERGO    R516290   9.292   5.755   8.926 -0.0091  0.2071 -0.1302
 1172ERGO    C116291   9.277   6.030   8.661  0.2800  0.2891 -0.0641
 1172ERGO    C216292   9.307   6.085   8.328 -0.0738 -0.1801  0.0024
 1173ERGO   ROH16293  15.641  12.965   5.781 -0.0266  0.1184  0.1707
 1173ERGO    R116294  15.675  12.876   6.048 -0.0047  0.0097  0.1322
 1173ERGO    R216295  15.676  12.609   6.117 -0.0516 -0.0178  0.0305
 1173ERGO    R316296  15.915  12.672   6.229 -0.0203 -0.1112  0.0176
 1173ERGO    R416297  15.817  12.444   6.386 -0.1069 -0.0603  0.0338
 1173ERGO    R516298  15.882  12.637   6.464 -0.0236 -0.0837  0.0203
 1173ERGO    C116299  16.124  12.408   6.648 -0.1096 -0.1728  0.0236
 1173ERGO    C216300  16.240  12.256   6.845 -0.0659 -0.5000 -0.0369
 1174ERGO   ROH16301  10.356   7.781   6.409  0.1428  0.1063  0.0745
 1174ERGO    R116302  10.278   7.752   6.679  0.0937 -0.0747  0.0430
 1174ERGO    R216303  10.292   7.511   6.813  0.2693 -0.1239 -0.0519
 1174ERGO    R316304  10.438   7.655   6.991  0.0978 -0.0650  0.0425
 1174ERGO    R416305  10.342   7.423   7.143  0.3281 -0.2430 -0.0924
 1174ERGO    R516306  10.318   7.633   7.198  0.1011 -0.2996  0.0179
 1174ERGO    C116307  10.509   7.507   7.503  0.2012 -0.2572 -0.0275
 1174ERGO    C216308  10.698   7.462   7.829  0.0535  0.2502 -0.1128
 1175ERGO   ROH16309  18.266   5.767   5.994 -0.1257  0.0893 -0.0213
 1175ERGO    R116310  18.205   5.655   6.247 -0.2277  0.1148 -0.0327
 1175ERGO    R216311  18.382   5.663   6.460 -0.2182 -0.0638 -0.0255
 1175ERGO    R316312  18.170   5.776   6.588 -0.1220  0.1130 -0.0224
 1175ERGO    R416313  18.284   5.589   6.783 -0.2583  0.0510 -0.0120
 1175ERGO    R516314  18.077   5.597   6.717 -0.2529  0.2042  0.0037
 1175ERGO    C116315  18.029   5.652   7.092 -0.1913  0.2838 -0.0014
 1175ERGO    C216316  17.910   5.485   7.378 -0.0568 -0.6135 -0.1462
 1176ERGO   ROH16317   0.730  11.381   6.402 -0.0383 -0.0189  0.1592
 1176ERGO    R116318   0.708  11.575   6.607  0.1203 -0.0534  0.2096
 1176ERGO    R216319   0.528  11.550   6.815  0.0029  0.1043  0.1242
 1176ERGO    R316320   0.750  11.584   6.968 -0.0164 -0.2198  0.2319
 1176ERGO    R416321   0.526  11.633   7.151 -0.0427  0.1839  0.1055
 1176ERGO    R516322   0.695  11.766   7.114  0.1967 -0.0922  0.1611
 1176ERGO    C116323   0.733  11.712   7.490 -0.0874 -0.0740  0.1959
 1176ERGO    C216324   0.936  11.578   7.796 -0.2117 -0.3708  0.1468
 1177ERGO   ROH16325   1.562   1.322   5.930 -0.0596 -0.1661 -0.0186
 1177ERGO    R116326   1.672   1.271   6.186  0.0241 -0.1004 -0.0416
 1177ERGO    R216327   1.856   1.440   6.305 -0.0774  0.0257 -0.0675
 1177ERGO    R316328   1.677   1.437   6.510 -0.0369 -0.1153 -0.0319
 1177ERGO    R416329   1.935   1.492   6.638 -0.0512  0.1264 -0.0888
 1177ERGO    R516330   1.794   1.333   6.691  0.0962  0.0028 -0.0458
 1177ERGO    C116331   1.812   1.520   7.023  0.0020  0.0527 -0.0677
 1177ERGO    C216332   1.759   1.700   7.265 -0.1229  0.0250  0.0966
 1178ERGO   ROH16333   7.488   7.744   5.649  0.2229  0.0109 -0.0720
 1178ERGO    R116334   7.391   7.862   5.887  0.1569  0.0945 -0.1386
 1178ERGO    R216335   7.352   7.717   6.119 -0.1320  0.1233 -0.1603
 1178ERGO    R316336   7.512   7.908   6.227 -0.0364 -0.0153 -0.0547
 1178ERGO    R416337   7.430   7.742   6.455 -0.3266  0.0641 -0.1095
 1178ERGO    R516338   7.410   7.959   6.438 -0.1269  0.0772 -0.1245
 1178ERGO    C116339   7.626   7.936   6.752 -0.3501 -0.1006  0.0190
 1178ERGO    C216340   7.681   7.865   7.075  0.0998 -0.1659 -0.2991
 1179ERGO   ROH16341  10.929   6.197   6.145  0.0542  0.0501 -0.2095
 1179ERGO    R116342  10.968   6.297   6.407  0.0343  0.0140 -0.1930
 1179ERGO    R216343  11.118   6.163   6.597  0.0218 -0.0106 -0.2013
 1179ERGO    R316344  11.250   6.400   6.612  0.0184 -0.0110 -0.1581
 1179ERGO    R416345  11.283   6.281   6.877  0.0017 -0.0490 -0.1729
 1179ERGO    R516346  11.206   6.480   6.833  0.0023 -0.0432 -0.1494
 1179ERGO    C116347  11.502   6.573   7.054 -0.0134 -0.0717 -0.1158
 1179ERGO    C216348  11.694   6.664   7.434 -0.1600 -0.0610  0.1535
 1180ERGO   ROH16349   2.315   4.923   6.487 -0.0485  0.2168  0.1304
 1180ERGO    R116350   2.437   4.787   6.703 -0.0243  0.1523  0.0767
 1180ERGO    R216351   2.696   4.840   6.785  0.0086  0.0819  0.0226
 1180ERGO    R316352   2.577   4.877   7.027  0.0753  0.0662  0.0576
 1180ERGO    R416353   2.865   4.881   7.084  0.0891  0.0526 -0.0188
 1180ERGO    R516354   2.716   4.755   7.180  0.1118  0.0503  0.0110
 1180ERGO    C116355   2.852   4.939   7.484  0.1986  0.0208 -0.0099
 1180ERGO    C216356   2.989   4.969   7.770  0.2816 -0.0890  0.2259
 1181ERGO   ROH16357   3.119   3.650   6.394  0.1183 -0.0072 -0.0709
 1181ERGO    R116358   2.950   3.699   6.615  0.0753 -0.0647 -0.0911
 1181ERGO    R216359   2.968   3.557   6.851  0.1217 -0.0322 -0.0758
 1181ERGO    R316360   2.990   3.805   6.961 -0.0053 -0.0100 -0.0979
 1181ERGO    R416361   2.957   3.625   7.190  0.0106  0.0021 -0.0854
 1181ERGO    R516362   2.838   3.802   7.146 -0.0506 -0.0504 -0.1349
 1181ERGO    C116363   2.972   3.897   7.490 -0.1733  0.0429 -0.1118
 1181ERGO    C216364   2.869   3.852   7.918 -0.2905  0.0791  0.1056
 1182ERGO   ROH16365   8.509   5.656   5.825 -0.0759  0.2530  0.1573
 1182ERGO    R116366   8.629   5.584   6.071 -0.0546  0.1053  0.1041
 1182ERGO    R216367   8.770   5.765   6.225  0.0524 -0.0168  0.1437
 1182ERGO    R316368   8.598   5.684   6.419  0.0619 -0.0198  0.1523
 1182ERGO    R416369   8.776   5.877   6.552  0.0125  0.0555  0.1206
 1182ERGO    R516370   8.733   5.673   6.617  0.0594  0.0549  0.1618
 1182ERGO    C116371   8.617   5.867   6.925 -0.0017  0.0947  0.1152
 1182ERGO    C216372   8.609   5.861   7.284 -0.0340 -0.0640 -0.2251
 1183ERGO   ROH16373   7.879   2.947   9.772  0.0250 -0.1163  0.1150
 1183ERGO    R116374   7.821   2.794   9.542 -0.1153  0.0459  0.0406
 1183ERGO    R216375   7.730   2.907   9.306  0.1470  0.2641  0.0414
 1183ERGO    R316376   7.942   2.775   9.199 -0.0046 -0.0214  0.0828
 1183ERGO    R416377   7.757   2.813   8.975  0.1285  0.3224  0.0229
 1183ERGO    R516378   7.845   2.625   9.041 -0.1736  0.1677  0.0014
 1183ERGO    C116379   7.972   2.634   8.682 -0.0246  0.0883  0.0509
 1183ERGO    C216380   8.030   2.639   8.396  0.1098 -0.0121 -0.1372
 1184ERGO   ROH16381   8.014   9.819   9.499  0.3064 -0.1344 -0.0201
 1184ERGO    R116382   7.935   9.812   9.228  0.2082  0.0578  0.0024
 1184ERGO    R216383   7.985  10.020   9.053  0.3203  0.0994  0.0847
 1184ERGO    R316384   8.100   9.824   8.904  0.1092  0.0726 -0.0483
 1184ERGO    R416385   8.040  10.038   8.712  0.1379  0.1782  0.0577
 1184ERGO    R516386   7.980   9.829   8.696 -0.0074  0.2207  0.0200
 1184ERGO    C116387   8.181   9.865   8.374 -0.1664  0.1989 -0.0827
 1184ERGO    C216388   8.089   9.960   8.026  0.0560 -0.1263 -0.0281
 1185ERGO   ROH16389   6.281   3.393   6.138 -0.0130 -0.0498  0.0277
 1185ERGO    R116390   6.443   3.443   6.364  0.2460  0.1230 -0.1894
 1185ERGO    R216391   6.584   3.678   6.396 -0.2046  0.4180 -0.2458
 1185ERGO    R316392   6.452   3.688   6.633  0.1358 -0.0576 -0.0203
 1185ERGO    R416393   6.693   3.850   6.676 -0.1379  0.4264 -0.2769
 1185ERGO    R516394   6.625   3.683   6.799  0.4108  0.1774 -0.2939
 1185ERGO    C116395   6.632   3.959   7.062  0.2206 -0.0152 -0.0833
 1185ERGO    C216396   6.464   4.180   7.355  0.3122  0.2888  0.0921
 1186ERGO   ROH16397   9.245   3.787   6.118 -0.1205  0.0481  0.0273
 1186ERGO    R116398   9.288   4.035   6.249  0.1486  0.0269 -0.0149
 1186ERGO    R216399   9.156   4.106   6.481 -0.0718  0.3696 -0.2323
 1186ERGO    R316400   9.408   4.144   6.575 -0.1254 -0.0696  0.1202
 1186ERGO    R416401   9.243   4.333   6.726  0.0171  0.3955 -0.2886
 1186ERGO    R516402   9.423   4.380   6.612  0.2975 -0.0615 -0.0582
 1186ERGO    C116403   9.531   4.501   6.957  0.0186 -0.0017  0.0095
 1186ERGO    C216404   9.435   4.602   7.333  0.0497  0.1484  0.0553
 1187ERGO   ROH16405  10.867  13.917   6.054  0.1351  0.1088 -0.0244
 1187ERGO    R116406  11.078  13.911   6.242  0.1352  0.0259 -0.0274
 1187ERGO    R216407  11.037  13.862   6.511  0.1287 -0.0299 -0.0404
 1187ERGO    R316408  11.221  13.667   6.471  0.0941 -0.0537 -0.0851
 1187ERGO    R416409  11.181  13.672   6.761  0.3059  0.0872 -0.0512
 1187ERGO    R516410  11.371  13.687   6.656  0.2323  0.0334 -0.2016
 1187ERGO    C116411  11.437  13.378   6.869  0.3767  0.1330 -0.0994
 1187ERGO    C216412  11.635  13.259   7.129 -0.2894 -0.0825  0.0555
 1188ERGO   ROH16413   9.058   4.558   7.625 -0.1088 -0.0411 -0.1330
 1188ERGO    R116414   9.179   4.314   7.704 -0.0237  0.0264 -0.0516
 1188ERGO    R216415   9.276   4.272   7.960 -0.0946  0.1114 -0.0086
 1188ERGO    R316416   9.114   4.055   7.952  0.0076  0.0357 -0.0338
 1188ERGO    R416417   9.284   4.012   8.186 -0.0859  0.1718  0.0602
 1188ERGO    R516418   9.254   3.873   8.021  0.0570  0.1163  0.0796
 1188ERGO    C116419   9.136   3.656   8.311  0.0153  0.1360  0.0766
 1188ERGO    C216420   8.917   3.554   8.524  0.0997  0.2743 -0.1411
 1189ERGO   ROH16421   8.677  13.053   5.889 -0.1183 -0.0598 -0.0360
 1189ERGO    R116422   8.546  12.995   6.134  0.0730 -0.1111  0.0573
 1189ERGO    R216423   8.684  12.947   6.369  0.2553  0.1248  0.0083
 1189ERGO    R316424   8.525  13.146   6.464  0.0902 -0.0060  0.0093
 1189ERGO    R416425   8.580  12.976   6.697  0.2135  0.0373  0.0025
 1189ERGO    R516426   8.384  13.038   6.625  0.1702 -0.1196 -0.0014
 1189ERGO    C116427   8.372  13.180   6.978  0.0341 -0.1365  0.0002
 1189ERGO    C216428   8.485  13.252   7.194 -0.0687  0.0004 -0.1723
 1190ERGO   ROH16429  18.320   4.639   6.266  0.0580  0.0148  0.0526
 1190ERGO    R116430  18.340   4.568   6.539  0.0349  0.1336  0.0864
 1190ERGO    R216431  18.247   4.730   6.743 -0.1610  0.1362 -0.0008
 1190ERGO    R316432  18.109   4.506   6.814  0.0001  0.0482  0.0381
 1190ERGO    R416433  18.078   4.689   7.042 -0.1460  0.0703 -0.0013
 1190ERGO    R516434  18.151   4.484   7.049  0.0053  0.1257  0.0438
 1190ERGO    C116435  17.851   4.456   7.283  0.0139 -0.0507  0.0349
 1190ERGO    C216436  17.552   4.521   7.485  0.2184 -0.0231  0.2128
 1191ERGO   ROH16437   8.693  17.000   6.317 -0.0521 -0.2507  0.0258
 1191ERGO    R116438   8.781  16.972   6.585 -0.0779 -0.1244  0.0488
 1191ERGO    R216439   8.611  16.996   6.801 -0.1347 -0.1936  0.0151
 1191ERGO    R316440   8.710  16.751   6.865  0.0289 -0.1100  0.0874
 1191ERGO    R416441   8.619  16.863   7.120 -0.1670 -0.1472  0.0346
 1191ERGO    R516442   8.817  16.783   7.077 -0.0857  0.0000  0.1292
 1191ERGO    C116443   8.716  16.556   7.366 -0.0322 -0.0420  0.1139
 1191ERGO    C216444   8.655  16.246   7.568  0.0143  0.0061  0.2104
 1192ERGO   ROH16445   3.024  15.362   9.611 -0.1506 -0.0200  0.0297
 1192ERGO    R116446   2.972  15.426   9.340 -0.0139 -0.1637 -0.0316
 1192ERGO    R216447   2.857  15.664   9.262 -0.0949 -0.2576 -0.2070
 1192ERGO    R316448   3.077  15.682   9.103 -0.0028 -0.2077 -0.0747
 1192ERGO    R416449   2.854  15.763   8.930  0.1219  0.0517 -0.1211
 1192ERGO    R516450   3.002  15.608   8.889  0.0752  0.0236 -0.1858
 1192ERGO    C116451   3.060  15.836   8.589  0.3345  0.2787  0.0531
 1192ERGO    C216452   3.038  15.862   8.318 -0.0265 -0.2909  0.2958
 1193ERGO   ROH16453   8.270  15.388   6.147  0.0326  0.0429  0.1916
 1193ERGO    R116454   8.167  15.568   6.339 -0.0055  0.1353  0.0849
 1193ERGO    R216455   7.909  15.665   6.328 -0.0493  0.0147  0.0673
 1193ERGO    R316456   7.896  15.569   6.582  0.0442  0.1902  0.1410
 1193ERGO    R416457   7.628  15.677   6.529 -0.1489 -0.3395 -0.0419
 1193ERGO    R516458   7.757  15.726   6.698 -0.2902  0.0361 -0.0322
 1193ERGO    C116459   7.452  15.594   6.885 -0.1193 -0.3810 -0.0363
 1193ERGO    C216460   7.346  15.407   7.147 -0.1527 -0.4094 -0.0615
 1194ERGO   ROH16461   3.624   0.594   5.931  0.0656  0.0085 -0.0007
 1194ERGO    R116462   3.497   0.658   6.175 -0.0277  0.0575 -0.0610
 1194ERGO    R216463   3.417   0.466   6.356 -0.0099  0.0969 -0.0084
 1194ERGO    R316464   3.567   0.613   6.529 -0.1104  0.2188 -0.0235
 1194ERGO    R416465   3.447   0.402   6.695  0.2019  0.0267 -0.0392
 1194ERGO    R516466   3.438   0.617   6.731 -0.0347  0.0054  0.0303
 1194ERGO    C116467   3.605   0.502   7.054  0.2308  0.1001 -0.0714
 1194ERGO    C216468   3.536   0.320   7.353  0.0606  0.0826 -0.0902
 1195ERGO   ROH16469  14.373  13.950   5.922  0.0665 -0.0025 -0.0226
 1195ERGO    R116470  14.432  13.736   6.097  0.0505  0.0213  0.0124
 1195ERGO    R216471  14.545  13.775   6.346  0.0393  0.0544  0.0132
 1195ERGO    R316472  14.330  13.631   6.430  0.0299  0.0746  0.0228
 1195ERGO    R416473  14.518  13.624   6.656  0.1098 -0.0849 -0.0473
 1195ERGO    R516474  14.425  13.452   6.559  0.0266 -0.0131 -0.0956
 1195ERGO    C116475  14.300  13.402   6.916  0.1419 -0.1470 -0.0736
 1195ERGO    C216476  14.215  13.211   7.188  0.1241  0.0925  0.1657
 1196ERGO   ROH16477  12.895   3.080   6.130 -0.0626  0.0657 -0.0183
 1196ERGO    R116478  12.923   2.974   6.391 -0.0227  0.0635 -0.0220
 1196ERGO    R216479  13.137   3.038   6.555  0.0437  0.0102 -0.0736
 1196ERGO    R316480  12.940   3.107   6.729  0.1026  0.0712 -0.0339
 1196ERGO    R416481  13.144   2.983   6.896  0.1371  0.1375 -0.0555
 1196ERGO    R516482  12.934   2.929   6.888  0.1444  0.1387  0.0322
 1196ERGO    C116483  12.963   3.017   7.258  0.2471  0.2690 -0.0076
 1196ERGO    C216484  12.875   2.829   7.498  0.1713  0.0753 -0.0272
 1197ERGO   ROH16485   8.346   3.226   6.845 -0.0554  0.0748  0.1663
 1197ERGO    R116486   8.252   3.068   7.060  0.0749  0.1016  0.2451
 1197ERGO    R216487   8.370   3.069   7.309  0.0238  0.3875  0.2718
 1197ERGO    R316488   8.118   3.126   7.393 -0.0594  0.1628  0.1809
 1197ERGO    R416489   8.250   3.013   7.629 -0.1028  0.1051  0.1775
 1197ERGO    R516490   8.062   2.947   7.541 -0.0139  0.0307  0.0398
 1197ERGO    C116491   7.943   3.034   7.893 -0.2546 -0.2702  0.0372
 1197ERGO    C216492   7.703   3.002   8.313  0.2955  0.2073  0.1743
 1198ERGO   ROH16493  10.158   9.301   5.933  0.1565 -0.1365 -0.1051
 1198ERGO    R116494  10.062   9.391   6.184  0.1164  0.0586 -0.1895
 1198ERGO    R216495  10.040   9.224   6.404 -0.3043  0.1292 -0.1760
 1198ERGO    R316496  10.192   9.415   6.523 -0.0870 -0.0873 -0.0979
 1198ERGO    R416497  10.075   9.264   6.745 -0.6055  0.2034 -0.1502
 1198ERGO    R516498  10.066   9.480   6.716 -0.1907  0.2181 -0.2577
 1198ERGO    C116499  10.239   9.466   7.056 -0.5768  0.0434 -0.0618
 1198ERGO    C216500  10.211   9.593   7.413  0.1555  0.0594  0.3039
 1199ERGO   ROH16501   8.504   7.307   5.890  0.1145  0.1314  0.0220
 1199ERGO    R116502   8.527   7.216   6.157  0.0699  0.2216  0.0576
 1199ERGO    R216503   8.366   7.312   6.361 -0.1556  0.0955 -0.0504
 1199ERGO    R316504   8.311   7.048   6.398  0.1199  0.0390 -0.0246
 1199ERGO    R416505   8.229   7.176   6.648  0.0448 -0.0403 -0.0174
 1199ERGO    R516506   8.365   7.007   6.627  0.2104  0.0985 -0.0382
 1199ERGO    C116507   8.097   6.849   6.849  0.4201 -0.1726  0.0261
 1199ERGO    C216508   7.842   6.980   7.094 -0.2684  0.1756 -0.2257
 1200ERGO   ROH16509  12.200   6.783   6.333 -0.0059  0.0305 -0.2115
 1200ERGO    R116510  12.232   7.037   6.455 -0.0058 -0.0547 -0.0318
 1200ERGO    R216511  12.020   7.180   6.558 -0.0143 -0.0940 -0.0048
 1200ERGO    R316512  12.173   7.182   6.783 -0.0863 -0.2616  0.0484
 1200ERGO    R416513  11.986   7.407   6.816  0.1906  0.0004 -0.0583
 1200ERGO    R516514  12.204   7.415   6.831  0.2054 -0.2872  0.0159
 1200ERGO    C116515  12.110   7.541   7.178  0.2423 -0.1020 -0.0395
 1200ERGO    C216516  12.001   7.662   7.535  0.0375  0.0289 -0.0876
 1201ERGO   ROH16517   5.059  16.573   5.914 -0.0579  0.1379  0.0374
 1201ERGO    R116518   5.166  16.659   6.162  0.0081  0.0949  0.0226
 1201ERGO    R216519   5.042  16.609   6.403  0.0758  0.0517  0.0435
 1201ERGO    R316520   5.284  16.501   6.468  0.0948  0.0442 -0.0348
 1201ERGO    R416521   5.125  16.483   6.715  0.0735 -0.2032 -0.0556
 1201ERGO    R516522   5.323  16.573   6.693  0.0603 -0.1404  0.0361
 1201ERGO    C116523   5.400  16.308   6.956  0.0899 -0.3585 -0.1868
 1201ERGO    C216524   5.302  16.197   7.254  0.0540  0.0845 -0.0952
 1202ERGO   ROH16525  11.690  16.106   5.893  0.1851 -0.0444 -0.0206
 1202ERGO    R116526  11.656  16.040   6.165  0.2053 -0.1002 -0.0322
 1202ERGO    R216527  11.863  15.948   6.323  0.2579  0.0450 -0.0202
 1202ERGO    R316528  11.789  16.154   6.484  0.0789 -0.0304 -0.0030
 1202ERGO    R416529  11.840  15.931   6.668  0.1038 -0.0558 -0.0340
 1202ERGO    R516530  11.658  16.051   6.657  0.0466 -0.1416 -0.0902
 1202ERGO    C116531  11.757  16.114   7.020 -0.1541 -0.1852 -0.0260
 1202ERGO    C216532  11.924  16.165   7.292  0.2723 -0.0764 -0.1927
 1203ERGO   ROH16533  18.231  18.204   9.426  0.1542  0.3002 -0.0714
 1203ERGO    R116534  18.048  18.274   9.222  0.1194  0.2487 -0.0593
 1203ERGO    R216535  18.127  18.384   8.981  0.0926  0.0634 -0.1599
 1203ERGO    R316536  17.987  18.176   8.876 -0.0279  0.0527  0.0212
 1203ERGO    R416537  18.053  18.345   8.646  0.0282 -0.1644 -0.1198
 1203ERGO    R516538  17.854  18.275   8.703  0.0018 -0.0173 -0.0389
 1203ERGO    C116539  17.877  18.127   8.352 -0.1222 -0.3067  0.0734
 1203ERGO    C216540  17.728  18.100   8.042  0.1757  0.0287  0.1689
 1204ERGO   ROH16541   0.231  15.267   6.259  0.0527 -0.1798 -0.0212
 1204ERGO    R116542   0.122  15.335   6.511 -0.0218 -0.2366 -0.0376
 1204ERGO    R216543   0.247  15.274   6.749 -0.0264 -0.1731 -0.0176
 1204ERGO    R316544   0.220  15.541   6.795 -0.1704 -0.1865 -0.0224
 1204ERGO    R416545   0.331  15.434   7.044  0.0990 -0.0851 -0.0994
 1204ERGO    R516546   0.151  15.555   7.024  0.0008 -0.2094  0.0304
 1204ERGO    C116547   0.354  15.776   7.259  0.0369 -0.0465 -0.1516
 1204ERGO    C216548   0.585  15.886   7.350  0.1388  0.1295 -0.0106
 1205ERGO   ROH16549  15.954   4.076   6.109 -0.1364  0.0168 -0.0965
 1205ERGO    R116550  16.119   3.971   6.314 -0.0072 -0.0121 -0.2136
 1205ERGO    R216551  16.173   4.110   6.547  0.0328 -0.0984 -0.1709
 1205ERGO    R316552  16.080   3.883   6.665  0.1752 -0.1923 -0.2369
 1205ERGO    R416553  16.183   4.045   6.886 -0.0910 -0.1118 -0.1691
 1205ERGO    R516554  16.237   3.839   6.840  0.1222 -0.0612 -0.1556
 1205ERGO    C116555  16.102   3.794   7.195 -0.0293 -0.2078 -0.2301
 1205ERGO    C216556  16.102   3.831   7.490  0.2381 -0.1285 -0.1301
 1206ERGO   ROH16557   4.792   4.563   6.087  0.1841 -0.0538 -0.0947
 1206ERGO    R116558   4.755   4.760   6.287  0.2889  0.0240 -0.1518
 1206ERGO    R216559   4.616   4.711   6.521  0.0548  0.2319 -0.2446
 1206ERGO    R316560   4.844   4.801   6.637  0.0899 -0.0392 -0.0921
 1206ERGO    R416561   4.633   4.859   6.833  0.0335  0.1606 -0.2085
 1206ERGO    R516562   4.777   5.001   6.752  0.2414  0.0178 -0.0998
 1206ERGO    C116563   4.858   5.030   7.123  0.0541 -0.1352 -0.0442
 1206ERGO    C216564   4.776   5.007   7.453  0.2726  0.2853 -0.1283
 1207ERGO   ROH16565   8.938  17.407   6.409  0.0846 -0.0022 -0.0644
 1207ERGO    R116566   8.986  17.369   6.685 -0.0097 -0.0925 -0.0600
 1207ERGO    R216567   9.075  17.572   6.850  0.2194 -0.2177 -0.0260
 1207ERGO    R316568   8.857  17.502   6.998  0.1046  0.0406 -0.0684
 1207ERGO    R416569   9.011  17.682   7.171  0.2803 -0.1304 -0.0432
 1207ERGO    R516570   8.941  17.481   7.221  0.0346 -0.0502 -0.0497
 1207ERGO    C116571   8.769  17.681   7.497  0.2078  0.1629 -0.0929
 1207ERGO    C216572   8.628  17.800   7.799  0.1409  0.0863  0.0703
 1208ERGO   ROH16573   4.985  17.827   5.867  0.0254  0.2745 -0.0252
 1208ERGO    R116574   5.118  17.686   6.073 -0.0120  0.1923 -0.0578
 1208ERGO    R216575   5.382  17.733   6.140 -0.0186  0.1448 -0.0113
 1208ERGO    R316576   5.279  17.768   6.389 -0.0407  0.0676 -0.0088
 1208ERGO    R416577   5.544  17.651   6.434 -0.0269  0.0753 -0.0257
 1208ERGO    R516578   5.354  17.577   6.512 -0.0301  0.0356 -0.0586
 1208ERGO    C116579   5.542  17.636   6.839 -0.0525 -0.0381 -0.0317
 1208ERGO    C216580   5.667  17.477   7.146 -0.2060  0.2437 -0.1536
 1209ERGO   ROH16581  16.615   1.521   5.793  0.1980 -0.0091 -0.0542
 1209ERGO    R116582  16.529   1.451   6.053  0.0525  0.0162 -0.0961
 1209ERGO    R216583  16.675   1.285   6.219 -0.0105  0.0876  0.0222
 1209ERGO    R316584  16.652   1.493   6.393 -0.1745  0.1091 -0.0213
 1209ERGO    R416585  16.629   1.253   6.560  0.0585  0.1098  0.0345
 1209ERGO    R516586  16.489   1.420   6.552 -0.0965 -0.0100  0.0132
 1209ERGO    C116587  16.581   1.430   6.922 -0.0557  0.1429  0.0009
 1209ERGO    C216588  16.600   1.413   7.350 -0.5173 -0.1100  0.3516
 1210ERGO   ROH16589   6.870  12.535   7.838  0.0281 -0.1040  0.0587
 1210ERGO    R116590   6.603  12.444   7.830 -0.0525  0.1363 -0.0731
 1210ERGO    R216591   6.457  12.434   7.596  0.1694 -0.0537 -0.2078
 1210ERGO    R316592   6.420  12.174   7.668 -0.1430  0.0749  0.1281
 1210ERGO    R416593   6.204  12.230   7.476  0.2160 -0.0418 -0.3270
 1210ERGO    R516594   6.182  12.149   7.678 -0.1857  0.2741 -0.2317
 1210ERGO    C116595   6.023  11.868   7.474 -0.0502  0.0859 -0.0811
 1210ERGO    C216596   5.774  11.610   7.536  0.0041  0.1965 -0.0493
 1211ERGO   ROH16597   0.156   2.943   6.180  0.2685 -0.1530  0.1312
 1211ERGO    R116598   0.008   2.731   6.295  0.1040 -0.0685  0.0782
 1211ERGO    R216599  -0.149   2.764   6.519  0.1310 -0.0041  0.0877
 1211ERGO    R316600  -0.343   2.659   6.360  0.0468  0.1863  0.0628
 1211ERGO    R416601  -0.454   2.645   6.631  0.1142  0.0404  0.0878
 1211ERGO    R516602  -0.436   2.480   6.489  0.0112  0.1309 -0.0361
 1211ERGO    C116603  -0.814   2.478   6.546  0.0252  0.2450  0.0644
 1211ERGO    C216604  -1.023   2.239   6.599 -0.1587  0.0608 -0.1843
 1212ERGO   ROH16605  16.500   5.035   5.756  0.1125  0.0211 -0.0896
 1212ERGO    R116606  16.626   4.892   5.965  0.1346 -0.0038 -0.1203
 1212ERGO    R216607  16.847   4.990   6.101 -0.0744  0.1477  0.1142
 1212ERGO    R316608  16.692   4.945   6.319 -0.1764 -0.2183 -0.0262
 1212ERGO    R416609  16.963   4.974   6.426 -0.2887  0.1363  0.1921
 1212ERGO    R516610  16.827   4.807   6.461 -0.0677 -0.0987 -0.0088
 1212ERGO    C116611  16.885   4.922   6.820 -0.5091 -0.2139  0.1058
 1212ERGO    C216612  16.866   4.982   7.159  0.0878 -0.0957 -0.0937
 1213ERGO   ROH16613   1.077  16.406   6.348 -0.0858 -0.0122  0.1513
 1213ERGO    R116614   1.340  16.344   6.433 -0.1224 -0.4118 -0.0041
 1213ERGO    R216615   1.465  16.478   6.641  0.4052 -0.2047 -0.4308
 1213ERGO    R316616   1.498  16.227   6.740 -0.0638 -0.0795  0.0966
 1213ERGO    R416617   1.709  16.385   6.867  0.4052 -0.2361 -0.4434
 1213ERGO    R516618   1.736  16.200   6.756 -0.0964 -0.5616 -0.0664
 1213ERGO    C116619   1.882  16.096   7.092 -0.0351 -0.1372  0.0443
 1213ERGO    C216620   2.183  16.092   7.368 -0.3443  0.0129 -0.1892
 1214ERGO   ROH16621  15.719   8.920   6.342 -0.0421  0.1011  0.0437
 1214ERGO    R116622  15.633   8.841   6.600  0.0723 -0.0513  0.0360
 1214ERGO    R216623  15.802   8.721   6.782  0.2291  0.1057 -0.0062
 1214ERGO    R316624  15.719   8.923   6.944  0.0097 -0.0217  0.0457
 1214ERGO    R416625  15.761   8.696   7.125  0.3294 -0.0123 -0.0022
 1214ERGO    R516626  15.580   8.815   7.107  0.1717 -0.2293  0.0550
 1214ERGO    C116627  15.659   8.870   7.476  0.1818 -0.2006  0.0488
 1214ERGO    C216628  15.580   8.898   7.771  0.0095  0.1369  0.1579
 1215ERGO   ROH16629  11.203   3.010   6.165  0.0308 -0.0366  0.1768
 1215ERGO    R116630  11.141   3.017   6.441  0.0638 -0.1075  0.1869
 1215ERGO    R216631  10.962   2.843   6.558 -0.1054  0.0141  0.1195
 1215ERGO    R316632  11.170   2.791   6.725 -0.1378 -0.2779  0.0727
 1215ERGO    R416633  10.942   2.846   6.903  0.0085  0.1676  0.1253
 1215ERGO    R516634  11.138   2.942   6.908  0.1757 -0.1588  0.0305
 1215ERGO    C116635  11.127   2.798   7.260  0.0443 -0.0173  0.0847
 1215ERGO    C216636  10.947   2.716   7.563 -0.0430  0.2520 -0.1783
 1216ERGO   ROH16637  11.248   1.732   6.264 -0.1948  0.1241 -0.1624
 1216ERGO    R116638  11.062   1.761   6.476 -0.2366  0.1625 -0.2029
 1216ERGO    R216639  11.099   1.641   6.723 -0.3883  0.0330 -0.2384
 1216ERGO    R316640  11.067   1.894   6.815 -0.2381  0.0190 -0.1466
 1216ERGO    R416641  11.007   1.723   7.046 -0.2320 -0.0203 -0.1802
 1216ERGO    R516642  10.880   1.880   6.964 -0.1882  0.0621 -0.0833
 1216ERGO    C116643  10.924   2.009   7.320  0.0001 -0.0646 -0.0602
 1216ERGO    C216644  10.897   2.223   7.473 -0.1840  0.2020 -0.2599
 1217ERGO   ROH16645   6.404   7.911   5.688 -0.0576  0.1790  0.0403
 1217ERGO    R116646   6.527   7.848   5.935 -0.0938  0.0340  0.0217
 1217ERGO    R216647   6.518   8.018   6.154  0.0134 -0.0210  0.0667
 1217ERGO    R316648   6.419   7.798   6.279 -0.1209  0.0051  0.0098
 1217ERGO    R416649   6.411   8.009   6.482  0.1287 -0.0674  0.1037
 1217ERGO    R516650   6.505   7.813   6.502 -0.0224 -0.1565 -0.0134
 1217ERGO    C116651   6.257   7.798   6.792  0.0697 -0.0699  0.0718
 1217ERGO    C216652   6.000   7.810   7.047 -0.3855  0.0664  0.0663
 1218ERGO   ROH16653   9.534   2.656   6.416 -0.2325 -0.0452  0.1054
 1218ERGO    R116654   9.574   2.676   6.695 -0.3050 -0.0364  0.1162
 1218ERGO    R216655   9.489   2.482   6.872 -0.0171 -0.2188  0.0654
 1218ERGO    R316656   9.749   2.486   6.951 -0.0279  0.1893  0.0993
 1218ERGO    R416657   9.604   2.371   7.179  0.1389 -0.2133  0.0088
 1218ERGO    R516658   9.740   2.541   7.184 -0.1583  0.0270  0.1335
 1218ERGO    C116659   9.915   2.310   7.431  0.2198  0.1731  0.0076
 1218ERGO    C216660  10.046   2.221   7.695  0.1811 -0.3081 -0.3953
 1219ERGO   ROH16661  14.443  14.859   5.943  0.0019 -0.0595 -0.1449
 1219ERGO    R116662  14.430  14.965   6.206  0.0220  0.0410 -0.1823
 1219ERGO    R216663  14.340  14.818   6.421 -0.1499  0.1814 -0.1459
 1219ERGO    R316664  14.579  14.888   6.529 -0.1145  0.0272 -0.1246
 1219ERGO    R416665  14.397  14.872   6.758 -0.1108  0.0750 -0.1360
 1219ERGO    R516666  14.523  15.042   6.704 -0.0235  0.0133 -0.0915
 1219ERGO    C116667  14.655  14.971   7.055 -0.0549 -0.1318 -0.1102
 1219ERGO    C216668  14.737  14.805   7.361 -0.0468  0.2666  0.0804
 1220ERGO   ROH16669   6.586  13.136   6.620  0.0537  0.0333  0.0284
 1220ERGO    R116670   6.523  13.074   6.889  0.1763  0.1060  0.0744
 1220ERGO    R216671   6.603  13.233   7.101 -0.0179  0.3506 -0.0326
 1220ERGO    R316672   6.337  13.231   7.159 -0.0128  0.0110  0.0020
 1220ERGO    R416673   6.470  13.184   7.416  0.0876  0.2525 -0.0022
 1220ERGO    R516674   6.314  13.061   7.326  0.2362  0.0188  0.0489
 1220ERGO    C116675   6.144  13.154   7.655  0.1537 -0.1235  0.0478
 1220ERGO    C216676   6.171  13.349   7.845 -0.2475  0.3562 -0.0984
 1221ERGO   ROH16677   1.169   5.986   9.468 -0.1903  0.2189 -0.0991
 1221ERGO    R116678   1.185   5.769   9.287 -0.0794  0.2613 -0.1412
 1221ERGO    R216679   1.035   5.538   9.316  0.2192  0.0692 -0.0414
 1221ERGO    R316680   0.959   5.595   9.061 -0.0653  0.0186  0.0289
 1221ERGO    R416681   0.954   5.303   9.076  0.0964  0.0211  0.0464
 1221ERGO    R516682   1.060   5.423   8.929 -0.1120  0.0663 -0.0657
 1221ERGO    C116683   0.836   5.219   8.697 -0.2422 -0.0544  0.1636
 1221ERGO    C216684   0.800   5.171   8.284 -0.0050 -0.0929 -0.3267
 1222ERGO   ROH16685  11.342   4.374   6.313  0.2396  0.1872  0.0334
 1222ERGO    R116686  11.271   4.383   6.587 -0.1058  0.2118 -0.0540
 1222ERGO    R216687  11.443   4.477   6.782 -0.2205 -0.0972  0.1939
 1222ERGO    R316688  11.234   4.641   6.841 -0.0625  0.1950 -0.0276
 1222ERGO    R416689  11.405   4.651   7.079 -0.3490 -0.1701  0.2219
 1222ERGO    R516690  11.193   4.603   7.074 -0.4309  0.1476 -0.0885
 1222ERGO    C116691  11.187   4.906   7.307 -0.2755  0.0618  0.0303
 1222ERGO    C216692  11.355   5.109   7.509 -0.1518 -0.0728  0.1582
 1223ERGO   ROH16693  14.612  18.506   6.162  0.1907  0.0642  0.1437
 1223ERGO    R116694  14.625  18.516   6.445  0.0652  0.0733  0.1503
 1223ERGO    R216695  14.464  18.682   6.596 -0.0802 -0.0021  0.0815
 1223ERGO    R316696  14.400  18.451   6.723 -0.0232 -0.0327  0.0543
 1223ERGO    R416697  14.256  18.659   6.871 -0.0398 -0.0799  0.1052
 1223ERGO    R516698  14.392  18.510   6.955 -0.0030 -0.0693  0.0643
 1223ERGO    C116699  14.075  18.428   7.151  0.0374 -0.1539  0.0935
 1223ERGO    C216700  13.743  18.500   7.446 -0.2037 -0.2657 -0.2121
 1224ERGO   ROH16701  12.405   4.126   6.058 -0.1384  0.2138 -0.0375
 1224ERGO    R116702  12.445   4.001   6.310 -0.0834  0.1165 -0.0929
 1224ERGO    R216703  12.446   4.143   6.547 -0.0271  0.0268 -0.0360
 1224ERGO    R316704  12.256   3.962   6.618 -0.0148  0.0033 -0.0654
 1224ERGO    R416705  12.363   4.062   6.872  0.0566 -0.1180 -0.0501
 1224ERGO    R516706  12.347   3.854   6.812  0.0312 -0.0883 -0.1396
 1224ERGO    C116707  12.135   3.846   7.129  0.1169 -0.2244 -0.0859
 1224ERGO    C216708  11.980   3.880   7.427 -0.2283  0.0677 -0.0671
 1225ERGO   ROH16709  12.504  17.258   6.040  0.0952 -0.1752  0.2754
 1225ERGO    R116710  12.487  17.380   6.295  0.0355 -0.1930  0.2807
 1225ERGO    R216711  12.285  17.555   6.363  0.1112 -0.0622  0.1898
 1225ERGO    R316712  12.249  17.384   6.571 -0.1171 -0.0680  0.1476
 1225ERGO    R416713  12.093  17.621   6.643  0.2180  0.1287  0.2194
 1225ERGO    R516714  12.246  17.525   6.764  0.0902 -0.1159  0.1843
 1225ERGO    C116715  11.947  17.498   7.001  0.0658  0.2345  0.1971
 1225ERGO    C216716  11.818  17.588   7.273  0.3546 -0.2210 -0.0791
 1226ERGO   ROH16717   9.974  15.338   6.192 -0.0894  0.3372  0.1487
 1226ERGO    R116718  10.191  15.263   6.357 -0.0439  0.2036  0.0306
 1226ERGO    R216719  10.453  15.270   6.271 -0.0726  0.2161 -0.0547
 1226ERGO    R316720  10.488  15.424   6.493  0.0262  0.0773  0.0287
 1226ERGO    R416721  10.741  15.279   6.463  0.0303  0.1279 -0.2023
 1226ERGO    R516722  10.616  15.287   6.641  0.1249 -0.0041 -0.1283
 1226ERGO    C116723  10.941  15.429   6.782  0.1829 -0.0538 -0.2099
 1226ERGO    C216724  11.182  15.521   6.879  0.1716  0.0527  0.1089
 1227ERGO   ROH16725  18.835   0.121   9.136 -0.4311 -0.2241  0.0542
 1227ERGO    R116726  18.783   0.061   8.865 -0.3276  0.0688 -0.0340
 1227ERGO    R216727  18.669   0.244   8.692  0.0240  0.3669  0.0327
 1227ERGO    R316728  18.889   0.190   8.541  0.0606  0.2064  0.1417
 1227ERGO    R416729  18.707   0.329   8.359  0.1925  0.2009  0.0080
 1227ERGO    R516730  18.801   0.135   8.325  0.1242  0.1465  0.1320
 1227ERGO    C116731  18.935   0.327   8.023  0.3248 -0.0465  0.0957
 1227ERGO    C216732  18.981   0.559   7.757 -0.3172 -0.0488 -0.2562
 1228ERGO   ROH16733  11.329  18.556   6.276 -0.1169  0.0648 -0.1279
 1228ERGO    R116734  11.187  18.391   6.457  0.1999 -0.2055 -0.1182
 1228ERGO    R216735  11.315  18.232   6.644  0.5205  0.4126  0.2164
 1228ERGO    R316736  11.153  18.364   6.819 -0.1385  0.0998 -0.1209
 1228ERGO    R416737  11.181  18.095   6.932  0.5831  0.2696  0.1779
 1228ERGO    R516738  10.994  18.199   6.889  0.2807 -0.3522 -0.1723
 1228ERGO    C116739  10.951  18.139   7.263  0.0008 -0.1076 -0.1612
 1228ERGO    C216740  10.903  18.053   7.482  0.0776 -0.1180 -0.0185
 1229ERGO   ROH16741   3.254  10.471   9.057  0.0441 -0.1465 -0.0644
 1229ERGO    R116742   3.336  10.317   8.834  0.1346  0.0890 -0.1976
 1229ERGO    R216743   3.163  10.151   8.696  0.3165 -0.1986 -0.0901
 1229ERGO    R316744   3.248  10.295   8.481 -0.1599  0.0518 -0.1243
 1229ERGO    R416745   3.141  10.047   8.367  0.2143 -0.1235 -0.1073
 1229ERGO    R516746   3.339  10.131   8.332  0.0262  0.2784 -0.2670
 1229ERGO    C116747   3.207  10.121   7.975 -0.2925  0.1553 -0.1495
 1229ERGO    C216748   3.168   9.874   7.743 -0.1232 -0.0871 -0.2477
 1230ERGO   ROH16749   4.391   3.823   6.413 -0.0936  0.1470  0.0222
 1230ERGO    R116750   4.155   3.870   6.562 -0.0844  0.0071  0.0815
 1230ERGO    R216751   4.078   3.708   6.772  0.1098  0.0098  0.1553
 1230ERGO    R316752   4.073   3.943   6.909 -0.0335  0.0486  0.0857
 1230ERGO    R416753   3.919   3.757   7.075 -0.0076  0.0269  0.0918
 1230ERGO    R516754   3.853   3.952   7.004 -0.0698 -0.0197  0.0135
 1230ERGO    C116755   3.821   4.006   7.380 -0.2105  0.0733 -0.0105
 1230ERGO    C216756   3.755   3.930   7.754  0.1273 -0.0057  0.1733
 1231ERGO   ROH16757   8.445  10.027   5.815 -0.1865 -0.0452 -0.0300
 1231ERGO    R116758   8.421   9.759   5.902 -0.0264 -0.0556 -0.0157
 1231ERGO    R216759   8.640   9.606   5.976  0.0505  0.1296  0.1458
 1231ERGO    R316760   8.497   9.571   6.205 -0.0732  0.0409  0.0565
 1231ERGO    R416761   8.761   9.460   6.264 -0.0040  0.3016  0.2581
 1231ERGO    R516762   8.570   9.359   6.288  0.0725  0.1242  0.1467
 1231ERGO    C116763   8.698   9.341   6.647 -0.1517  0.3185  0.2395
 1231ERGO    C216764   8.819   9.223   6.841  0.1874  0.1113  0.0039
 1232ERGO   ROH16765  17.450   9.638   6.118 -0.1466 -0.0895 -0.0958
 1232ERGO    R116766  17.338   9.742   6.356 -0.0838  0.0074 -0.1075
 1232ERGO    R216767  17.103   9.646   6.464 -0.1229  0.1315 -0.0705
 1232ERGO    R316768  17.255   9.616   6.687 -0.1160  0.1060 -0.0789
 1232ERGO    R416769  16.978   9.591   6.782 -0.1025  0.0585 -0.0751
 1232ERGO    R516770  17.130   9.727   6.859 -0.1188  0.0575 -0.0540
 1232ERGO    C116771  17.049   9.531   7.176 -0.0841 -0.0080 -0.0857
 1232ERGO    C216772  17.040   9.353   7.477  0.2592  0.0739  0.1196
 1233ERGO   ROH16773   7.460  17.127   6.042 -0.1715 -0.0245  0.0092
 1233ERGO    R116774   7.272  17.137   6.253 -0.1767 -0.0764  0.0092
 1233ERGO    R216775   7.255  16.941   6.447 -0.0215 -0.0107  0.1025
 1233ERGO    R316776   7.284  17.151   6.617 -0.1734  0.0920  0.0013
 1233ERGO    R416777   7.099  16.969   6.754 -0.0751  0.0611  0.0675
 1233ERGO    R516778   7.066  17.180   6.712 -0.1966  0.0136 -0.0417
 1233ERGO    C116779   7.035  17.183   7.092 -0.2488  0.1994 -0.0477
 1233ERGO    C216780   7.011  17.044   7.396 -0.2702 -0.0547 -0.0353
 1234ERGO   ROH16781  17.885   6.682   5.881  0.0124  0.1438 -0.1111
 1234ERGO    R116782  18.082   6.766   6.066  0.0521  0.0345 -0.1013
 1234ERGO    R216783  18.103   7.028   6.153  0.2444  0.0454 -0.1584
 1234ERGO    R316784  18.087   6.914   6.399  0.1130  0.1109 -0.1374
 1234ERGO    R416785  18.230   7.166   6.443  0.1956  0.0549 -0.1426
 1234ERGO    R516786  18.296   6.967   6.503  0.0928  0.0475 -0.0736
 1234ERGO    C116787  18.288   7.139   6.843  0.0436  0.1218 -0.1137
 1234ERGO    C216788  18.172   7.324   7.178 -0.0443  0.0288 -0.2393
 1235ERGO   ROH16789   0.372   4.716   6.007 -0.2543 -0.0419  0.1953
 1235ERGO    R116790   0.483   4.823   6.243 -0.3250  0.0543  0.1867
 1235ERGO    R216791   0.360   4.800   6.490 -0.2368 -0.1430  0.2182
 1235ERGO    R316792   0.600   4.694   6.563 -0.0843  0.1354  0.1327
 1235ERGO    R416793   0.543   4.898   6.766 -0.2535  0.0566  0.1588
 1235ERGO    R516794   0.725   4.881   6.646 -0.2742  0.2766  0.0988
 1235ERGO    C116795   0.875   4.856   6.996 -0.1200  0.4340  0.0440
 1235ERGO    C216796   0.858   5.009   7.415  0.0322 -0.4234  0.2759
 1236ERGO   ROH16797   6.898  18.566   6.085  0.0249  0.0066 -0.0731
 1236ERGO    R116798   6.878  18.655   6.353 -0.0517 -0.0269 -0.0672
 1236ERGO    R216799   6.790  18.492   6.558  0.0343 -0.1001 -0.0854
 1236ERGO    R316800   7.024  18.565   6.674 -0.0185  0.0386 -0.0644
 1236ERGO    R416801   6.870  18.442   6.891  0.0845 -0.1616 -0.1067
 1236ERGO    R516802   6.962  18.639   6.893 -0.0688 -0.0915 -0.0352
 1236ERGO    C116803   7.137  18.481   7.193  0.0641 -0.0669 -0.0995
 1236ERGO    C216804   7.406  18.368   7.515  0.1153  0.0857 -0.0130
 1237ERGO   ROH16805  16.952  15.643   5.690 -0.2082 -0.1918 -0.2514
 1237ERGO    R116806  16.952  15.619   5.972 -0.0529 -0.0657 -0.2388
 1237ERGO    R216807  16.726  15.661   6.126  0.0235 -0.0247 -0.1343
 1237ERGO    R316808  16.783  15.412   6.220  0.1043  0.0237 -0.0543
 1237ERGO    R416809  16.635  15.542   6.437 -0.0428  0.0026 -0.1432
 1237ERGO    R516810  16.830  15.446   6.452 -0.0036  0.0987 -0.0434
 1237ERGO    C116811  16.635  15.239   6.706 -0.0052  0.0640 -0.0732
 1237ERGO    C216812  16.561  14.978   6.892 -0.1416 -0.1714  0.1635
 1238ERGO   ROH16813  10.753   1.609   6.096 -0.1514  0.2007 -0.1948
 1238ERGO    R116814  10.637   1.804   6.266 -0.3136  0.0165 -0.0890
 1238ERGO    R216815  10.445   1.741   6.455 -0.0315 -0.3040  0.1095
 1238ERGO    R316816  10.619   1.864   6.624 -0.0579 -0.0081 -0.0718
 1238ERGO    R416817  10.372   1.838   6.779  0.0329 -0.0476  0.0488
 1238ERGO    R516818  10.485   2.021   6.744 -0.1223  0.0042 -0.1678
 1238ERGO    C116819  10.492   2.010   7.126  0.0457  0.3794 -0.1567
 1238ERGO    C216820  10.383   2.097   7.354  0.2318  0.0444  0.3814
 1239ERGO   ROH16821   6.061   0.760   6.037  0.2010  0.2752 -0.1726
 1239ERGO    R116822   6.207   0.713   6.275  0.1684  0.3958 -0.1316
 1239ERGO    R216823   6.253   0.910   6.463 -0.2259  0.3751 -0.0242
 1239ERGO    R316824   6.141   0.729   6.633 -0.0092  0.1264 -0.1477
 1239ERGO    R416825   6.284   0.916   6.807 -0.3710  0.3004 -0.0063
 1239ERGO    R516826   6.306   0.699   6.804 -0.0214  0.3258 -0.0903
 1239ERGO    C116827   6.198   0.749   7.167 -0.2522  0.0233 -0.1119
 1239ERGO    C216828   6.010   0.617   7.411  0.1759  0.2446 -0.0418
 1240ERGO   ROH16829   8.277  15.949   6.143  0.0404 -0.0819  0.0012
 1240ERGO    R116830   8.122  16.157   6.257  0.0504 -0.0571 -0.0335
 1240ERGO    R216831   7.896  16.107   6.408 -0.0431 -0.0168 -0.1683
 1240ERGO    R316832   8.026  16.261   6.592 -0.0942 -0.0996 -0.0596
 1240ERGO    R416833   7.754  16.230   6.698 -0.0711 -0.3304 -0.0439
 1240ERGO    R516834   7.860  16.418   6.665 -0.1701 -0.2424  0.0931
 1240ERGO    C116835   7.793  16.446   7.039 -0.1353 -0.5905  0.1306
 1240ERGO    C216836   7.750  16.699   7.269 -0.2030 -0.2001  0.1437
 1241ERGO   ROH16837  17.116  10.587   6.278 -0.1854 -0.1518 -0.1283
 1241ERGO    R116838  17.055  10.709   6.526 -0.1628 -0.0561 -0.1697
 1241ERGO    R216839  16.811  10.675   6.653 -0.0853 -0.1545 -0.0471
 1241ERGO    R316840  16.968  10.597   6.861  0.0581  0.0689 -0.0682
 1241ERGO    R416841  16.733  10.720   6.986  0.0438  0.0144 -0.0383
 1241ERGO    R516842  16.941  10.772   7.023  0.0337  0.1597 -0.1675
 1241ERGO    C116843  16.834  10.674   7.376  0.2537  0.3224 -0.0530
 1241ERGO    C216844  16.617  10.673   7.692 -0.5421 -0.2546  0.4403
 1242ERGO   ROH16845  17.459  13.482   5.853  0.1526  0.2158 -0.2919
 1242ERGO    R116846  17.496  13.627   6.093  0.1964 -0.0147 -0.1575
 1242ERGO    R216847  17.285  13.736   6.234  0.2371 -0.0479 -0.0838
 1242ERGO    R316848  17.392  13.594   6.440  0.1519 -0.2749 -0.1909
 1242ERGO    R416849  17.149  13.715   6.551  0.2892 -0.0799 -0.0624
 1242ERGO    R516850  17.351  13.729   6.633  0.3363 -0.3294 -0.1037
 1242ERGO    C116851  17.170  13.570   6.929  0.2400 -0.3116 -0.1505
 1242ERGO    C216852  16.992  13.442   7.193 -0.0998  0.0661  0.0551
 1243ERGO   ROH16853  18.303   1.502   5.747 -0.1470  0.1193  0.1881
 1243ERGO    R116854  18.123   1.525   5.964 -0.1299  0.0237  0.2133
 1243ERGO    R216855  17.849   1.508   5.933 -0.1305  0.0034  0.2327
 1243ERGO    R316856  17.872   1.315   6.123 -0.0918 -0.0599  0.1644
 1243ERGO    R416857  17.586   1.378   6.116 -0.1237 -0.1987  0.1026
 1243ERGO    R516858  17.715   1.379   6.292 -0.1760 -0.2028  0.1426
 1243ERGO    C116859  17.455   1.122   6.402 -0.0832 -0.3759 -0.0372
 1243ERGO    C216860  17.163   1.013   6.440  0.3004  0.1832 -0.2430
 1244ERGO   ROH16861  16.084  16.733   5.991 -0.0919 -0.1034 -0.1228
 1244ERGO    R116862  16.182  16.543   6.175  0.0644 -0.0374 -0.1376
 1244ERGO    R216863  16.388  16.599   6.352 -0.0682  0.1598 -0.0487
 1244ERGO    R316864  16.208  16.515   6.537 -0.0377 -0.1051 -0.1341
 1244ERGO    R416865  16.466  16.415   6.634  0.1065  0.4172  0.0754
 1244ERGO    R516866  16.285  16.297   6.601  0.3390  0.0569  0.0005
 1244ERGO    C116867  16.342  16.229   6.972  0.2372  0.3187  0.0676
 1244ERGO    C216868  16.505  16.152   7.240  0.1291  0.0950  0.0963
 1245ERGO   ROH16869  14.486   2.619   6.281 -0.1588 -0.0259  0.1135
 1245ERGO    R116870  14.347   2.574   6.523 -0.2223  0.0038  0.0828
 1245ERGO    R216871  14.349   2.330   6.653 -0.1845  0.0452  0.1578
 1245ERGO    R316872  14.434   2.479   6.864 -0.3019  0.1366  0.1414
 1245ERGO    R416873  14.402   2.209   6.972  0.0238  0.0893  0.1415
 1245ERGO    R516874  14.313   2.391   7.051 -0.1648 -0.0076  0.1667
 1245ERGO    C116875  14.512   2.278   7.356  0.0350  0.2008  0.1166
 1245ERGO    C216876  14.811   2.181   7.570 -0.1310 -0.1616 -0.0807
 1246ERGO   ROH16877  16.721   8.631   9.650 -0.0114 -0.0453  0.0211
 1246ERGO    R116878  16.814   8.729   9.401  0.0085 -0.1287 -0.0054
 1246ERGO    R216879  16.914   8.564   9.203 -0.1522 -0.2173 -0.0186
 1246ERGO    R316880  16.726   8.686   9.050 -0.0984 -0.0896  0.0170
 1246ERGO    R416881  16.934   8.605   8.861 -0.1490 -0.1431 -0.0090
 1246ERGO    R516882  16.851   8.805   8.885 -0.0503 -0.1111  0.0411
 1246ERGO    C116883  16.769   8.744   8.518 -0.0966  0.0200  0.0299
 1246ERGO    C216884  16.733   8.749   8.158 -0.3942 -0.1156 -0.0744
 1247ERGO   ROH16885  17.224  12.092   5.820  0.0089 -0.0150 -0.0827
 1247ERGO    R116886  17.132  12.079   6.087  0.1781 -0.2472 -0.0319
 1247ERGO    R216887  17.300  12.024   6.300  0.4416  0.1659 -0.1145
 1247ERGO    R316888  17.198  12.256   6.399 -0.0905 -0.0736 -0.0726
 1247ERGO    R416889  17.308  12.117   6.633  0.4938  0.2597 -0.1424
 1247ERGO    R516890  17.105  12.194   6.611  0.2600 -0.2801  0.0232
 1247ERGO    C116891  17.216  12.388   6.919  0.0249  0.0898 -0.1193
 1247ERGO    C216892  17.248  12.598   7.091 -0.1447  0.0901  0.1201
 1248ERGO   ROH16893   6.563  10.076   5.929  0.2137  0.1605 -0.1849
 1248ERGO    R116894   6.394  10.265   6.053  0.1601  0.1620 -0.2600
 1248ERGO    R216895   6.294  10.230   6.308 -0.0938  0.0804 -0.3679
 1248ERGO    R316896   6.405  10.475   6.350 -0.0482  0.0250 -0.1531
 1248ERGO    R416897   6.233  10.430   6.584 -0.0461 -0.1541 -0.1843
 1248ERGO    R516898   6.229  10.603   6.452 -0.0211 -0.0332 -0.0303
 1248ERGO    C116899   6.302  10.775   6.784  0.0246 -0.3426  0.1243
 1248ERGO    C216900   6.421  10.939   6.993  0.1373 -0.1428  0.1405
 1249ERGO   ROH16901   5.656   6.204   5.892  0.2176 -0.0426  0.2086
 1249ERGO    R116902   5.698   6.171   6.170  0.0298  0.0085  0.2448
 1249ERGO    R216903   5.766   6.381   6.337 -0.1258  0.0488  0.2642
 1249ERGO    R316904   5.549   6.298   6.477 -0.2093  0.0288  0.1207
 1249ERGO    R416905   5.678   6.493   6.652 -0.2111 -0.1456  0.3105
 1249ERGO    R516906   5.623   6.290   6.704 -0.3051 -0.1597  0.1439
 1249ERGO    C116907   5.422   6.481   6.966 -0.3392 -0.2775  0.2028
 1249ERGO    C216908   5.121   6.602   7.229  0.1381 -0.0124 -0.3048
 1250ERGO   ROH16909  15.511  18.787   5.974 -0.0363 -0.0361  0.0665
 1250ERGO    R116910  15.489  18.669   6.230 -0.0570  0.0380  0.0995
 1250ERGO    R216911  15.629  18.763   6.450 -0.0062  0.0482  0.0672
 1250ERGO    R316912  15.382  18.776   6.561  0.0050  0.1636  0.0784
 1250ERGO    R416913  15.564  18.767   6.789 -0.0030 -0.0400  0.0686
 1250ERGO    R516914  15.395  18.635   6.754 -0.0852  0.0839  0.0230
 1250ERGO    C116915  15.294  18.782   7.092  0.0093  0.0170  0.0799
 1250ERGO    C216916  15.306  18.914   7.496 -0.0955 -0.0737  0.1143
 1251ERGO   ROH16917  10.636   0.690   6.485  0.4196  0.1280  0.0910
 1251ERGO    R116918  10.573   0.728   6.759  0.4359  0.1935  0.0852
 1251ERGO    R216919  10.645   0.957   6.897  0.0766  0.4173 -0.0862
 1251ERGO    R316920  10.380   0.967   6.954  0.0685 -0.0175 -0.0114
 1251ERGO    R416921  10.513   1.053   7.201  0.0040  0.3487 -0.0952
 1251ERGO    R516922  10.366   0.893   7.182  0.2715  0.0736  0.0342
 1251ERGO    C116923  10.187   1.118   7.433 -0.0458 -0.0994 -0.0302
 1251ERGO    C216924  10.111   1.407   7.608 -0.0161  0.0379  0.2192
 1252ERGO   ROH16925   2.827  18.455   6.095 -0.2788 -0.0222  0.2318
 1252ERGO    R116926   2.945  18.459   6.352 -0.2923 -0.0032  0.2378
 1252ERGO    R216927   2.796  18.463   6.584 -0.3058 -0.1828  0.2333
 1252ERGO    R316928   2.947  18.245   6.646 -0.1404 -0.0859  0.1777
 1252ERGO    R416929   2.935  18.400   6.895 -0.1962 -0.1218  0.1973
 1252ERGO    R516930   3.115  18.329   6.795 -0.1671  0.0147  0.1513
 1252ERGO    C116931   3.157  18.160   7.134  0.0228  0.0047  0.1241
 1252ERGO    C216932   3.306  17.955   7.331 -0.2352 -0.4640  0.0684
 1253ERGO   ROH16933   4.057  11.694   5.772 -0.0936  0.0194  0.1545
 1253ERGO    R116934   3.955  11.727   6.034 -0.1014 -0.0835  0.1644
 1253ERGO    R216935   3.746  11.897   6.093 -0.0362 -0.0303  0.2398
 1253ERGO    R316936   3.637  11.674   6.203 -0.1367 -0.0477  0.1094
 1253ERGO    R416937   3.477  11.896   6.309 -0.1202 -0.0499  0.1370
 1253ERGO    R516938   3.577  11.741   6.425 -0.2044 -0.1224  0.1143
 1253ERGO    C116939   3.217  11.686   6.539 -0.2633 -0.0776 -0.0453
 1253ERGO    C216940   2.875  11.820   6.648 -0.1813  0.0424 -0.0322
 1254ERGO   ROH16941  11.989   2.883   6.179  0.1227 -0.0401 -0.0728
 1254ERGO    R116942  12.124   2.735   6.379  0.0821  0.0186 -0.0010
 1254ERGO    R216943  12.118   2.806   6.646 -0.1067  0.0054  0.0015
 1254ERGO    R316944  12.032   2.550   6.679  0.0001 -0.0389 -0.0618
 1254ERGO    R416945  12.114   2.635   6.947  0.1148 -0.1305 -0.0702
 1254ERGO    R516946  12.182   2.457   6.841  0.1192 -0.0600 -0.1837
 1254ERGO    C116947  12.031   2.296   7.152  0.3439 -0.2510 -0.1715
 1254ERGO    C216948  11.818   2.071   7.359 -0.2583 -0.0350 -0.3230
 1255ERGO   ROH16949   7.571   9.764   6.028 -0.3778 -0.2062 -0.2457
 1255ERGO    R116950   7.361   9.733   6.216 -0.1692 -0.2049 -0.0054
 1255ERGO    R216951   7.404   9.643   6.473  0.1283 -0.1590 -0.0329
 1255ERGO    R316952   7.274   9.872   6.541  0.1728 -0.1652  0.0728
 1255ERGO    R416953   7.230   9.692   6.768  0.1659 -0.2507  0.0041
 1255ERGO    R516954   7.077   9.797   6.654  0.1724 -0.1791  0.0619
 1255ERGO    C116955   7.006   9.935   7.002  0.2295 -0.3099  0.1249
 1255ERGO    C216956   6.849   9.847   7.226 -0.0343  0.1566  0.0964
 1256ERGO   ROH16957  16.364  17.627   6.129 -0.0712  0.0370  0.0158
 1256ERGO    R116958  16.457  17.556   6.387 -0.0129  0.0611  0.0026
 1256ERGO    R216959  16.528  17.745   6.575  0.0299  0.0809 -0.0277
 1256ERGO    R316960  16.349  17.611   6.730  0.0626  0.0944  0.0201
 1256ERGO    R416961  16.576  17.664   6.908  0.2621 -0.2335 -0.1336
 1256ERGO    R516962  16.485  17.470   6.869  0.0756 -0.1284 -0.2149
 1256ERGO    C116963  16.436  17.491   7.247  0.4276 -0.4037 -0.1504
 1256ERGO    C216964  16.675  17.342   7.566  0.1563  0.1545  0.1202
 1257ERGO   ROH16965   7.264  13.931   9.692 -0.0795  0.1567  0.1181
 1257ERGO    R116966   7.333  13.932   9.417 -0.0463  0.3577  0.1257
 1257ERGO    R216967   7.243  13.739   9.241  0.4589  0.1333  0.0986
 1257ERGO    R316968   7.156  13.954   9.100 -0.0801 -0.0630  0.1085
 1257ERGO    R416969   7.204  13.748   8.898  0.4587  0.0592  0.0965
 1257ERGO    R516970   7.286  13.950   8.899 -0.0462  0.2772  0.1170
 1257ERGO    C116971   7.100  13.955   8.565 -0.0474 -0.1682  0.1044
 1257ERGO    C216972   7.017  14.058   8.184 -0.2640 -0.1274  0.1933
 1258ERGO   ROH16973  16.227   2.993   5.866  0.2140 -0.0433 -0.1065
 1258ERGO    R116974  16.205   3.020   6.147  0.1696  0.0095 -0.1148
 1258ERGO    R216975  16.131   2.810   6.311 -0.0350  0.0865 -0.1046
 1258ERGO    R316976  16.362   2.872   6.440 -0.0143 -0.0798 -0.0595
 1258ERGO    R416977  16.173   2.804   6.654 -0.1232  0.1097 -0.0933
 1258ERGO    R516978  16.290   2.987   6.638  0.0308  0.0126 -0.0963
 1258ERGO    C116979  16.414   2.858   6.975 -0.1550 -0.0328 -0.0444
 1258ERGO    C216980  16.317   2.689   7.258 -0.0176  0.1448 -0.1140
 1259ERGO   ROH16981   1.074  10.571   6.360 -0.2262 -0.0672  0.0840
 1259ERGO    R116982   1.067  10.555   6.642 -0.0476 -0.2707  0.0786
 1259ERGO    R216983   1.215  10.370   6.785  0.3494 -0.1194 -0.1280
 1259ERGO    R316984   1.306  10.591   6.914  0.0445 -0.0465 -0.0280
 1259ERGO    R416985   1.375  10.367   7.091  0.3066 -0.0335 -0.1038
 1259ERGO    R516986   1.263  10.546   7.146  0.0631 -0.1945 -0.0503
 1259ERGO    C116987   1.554  10.573   7.391 -0.0045  0.0849  0.0043
 1259ERGO    C216988   1.765  10.795   7.686  0.1815 -0.0636  0.0329
 1260ERGO   ROH16989  11.342  11.828   6.163 -0.0641 -0.1151 -0.1087
 1260ERGO    R116990  11.288  11.691   6.404 -0.0472 -0.0253 -0.0509
 1260ERGO    R216991  11.478  11.539   6.535 -0.0408 -0.0105 -0.0195
 1260ERGO    R316992  11.412  11.698   6.746  0.0083  0.0827 -0.0765
 1260ERGO    R416993  11.496  11.445   6.868  0.1008  0.1863  0.0287
 1260ERGO    R516994  11.308  11.550   6.903  0.1035  0.1581  0.0453
 1260ERGO    C116995  11.445  11.539   7.259  0.2295  0.3883  0.0034
 1260ERGO    C216996  11.776  11.620   7.540 -0.0172  0.2999 -0.3236
 1261ERGO   ROH16997   2.803  13.430   6.482  0.0060  0.1705 -0.1876
 1261ERGO    R116998   2.736  13.605   6.694 -0.1057  0.1007 -0.1651
 1261ERGO    R216999   2.822  13.867   6.704 -0.0038  0.0610  0.0275
 1261ERGO    R317000   2.556  13.919   6.733 -0.0092  0.1584 -0.1784
 1261ERGO    R417001   2.690  14.136   6.877 -0.0388  0.0524  0.0150
 1261ERGO    R517002   2.536  14.003   6.956 -0.1616  0.0849 -0.1624
 1261ERGO    C117003   2.364  14.340   7.005 -0.0643  0.1386 -0.1856
 1261ERGO    C217004   2.244  14.665   7.122 -0.2571  0.0483  0.0070
 1262ERGO   ROH17005  13.539  13.060   5.775  0.0584  0.1853 -0.1302
 1262ERGO    R117006  13.581  13.071   6.055 -0.0072 -0.0439 -0.1094
 1262ERGO    R217007  13.535  13.301   6.204  0.2234 -0.0832  0.0211
 1262ERGO    R317008  13.378  13.135   6.350 -0.0175  0.0086 -0.1267
 1262ERGO    R417009  13.467  13.337   6.540  0.0525 -0.1255 -0.0075
 1262ERGO    R517010  13.485  13.122   6.563 -0.1541 -0.1541 -0.0627
 1262ERGO    C117011  13.280  13.203   6.874 -0.2734 -0.0639 -0.1628
 1262ERGO    C217012  13.173  13.175   7.200 -0.0810  0.0855  0.0078
 1263ERGO   ROH17013  15.561  15.501   5.967  0.0798 -0.0847  0.1176
 1263ERGO    R117014  15.519  15.273   6.129  0.1937 -0.1309  0.0834
 1263ERGO    R217015  15.719  15.159   6.281  0.2177  0.0322  0.1771
 1263ERGO    R317016  15.541  15.192   6.483  0.0865 -0.1303  0.0907
 1263ERGO    R417017  15.736  14.998   6.586  0.3513  0.2185  0.2699
 1263ERGO    R517018  15.519  14.974   6.579  0.3859 -0.1180  0.1983
 1263ERGO    C117019  15.578  14.936   6.954  0.3058  0.1745  0.2427
 1263ERGO    C217020  15.694  14.810   7.274  0.2435 -0.3454  0.0459
 1264ERGO   ROH17021  15.282   0.869   6.211  0.0517  0.1092  0.1412
 1264ERGO    R117022  15.252   0.818   6.487  0.1657  0.0764  0.1477
 1264ERGO    R217023  15.450   0.874   6.671  0.1333  0.3230  0.1090
 1264ERGO    R317024  15.252   1.013   6.794 -0.0174  0.0838  0.1447
 1264ERGO    R417025  15.366   0.845   7.005  0.3467  0.3387  0.1657
 1264ERGO    R517026  15.156   0.857   6.948  0.2921  0.0006  0.2631
 1264ERGO    C117027  15.131   0.959   7.315  0.3295  0.1232  0.2322
 1264ERGO    C217028  14.877   0.909   7.668  0.0396  0.0535 -0.2944
 1265ERGO   ROH17029  16.574   7.684   9.291 -0.0345  0.3746 -0.0070
 1265ERGO    R117030  16.666   7.573   9.048  0.0443  0.2497  0.0786
 1265ERGO    R217031  16.502   7.541   8.828  0.0824  0.0201  0.0814
 1265ERGO    R317032  16.697   7.683   8.702  0.0283  0.0270  0.0049
 1265ERGO    R417033  16.537   7.569   8.485 -0.1162  0.1080  0.0670
 1265ERGO    R517034  16.753   7.551   8.510 -0.1026  0.0709 -0.0648
 1265ERGO    C117035  16.740   7.718   8.168 -0.2824  0.1655 -0.0133
 1265ERGO    C217036  16.702   7.746   7.765  0.1535 -0.3140 -0.2433
 1266ERGO   ROH17037   0.093   9.130   5.933  0.0504  0.2330 -0.0145
 1266ERGO    R117038   0.121   9.310   6.150 -0.1025  0.1859  0.0462
 1266ERGO    R217039  -0.049   9.308   6.368 -0.0497 -0.0912  0.0901
 1266ERGO    R317040   0.184   9.285   6.508  0.0145  0.1206  0.0214
 1266ERGO    R417041  -0.003   9.415   6.694 -0.0340 -0.0076  0.0606
 1266ERGO    R517042   0.195   9.487   6.637 -0.1108  0.1485 -0.0112
 1266ERGO    C117043   0.242   9.455   7.014  0.0352  0.2398 -0.0211
 1266ERGO    C217044   0.311   9.346   7.263  0.1255  0.1435 -0.0803
 1267ERGO   ROH17045   0.802   5.265   6.577  0.1033 -0.0690  0.1176
 1267ERGO    R117046   0.799   5.319   6.855  0.1192 -0.0206  0.1095
 1267ERGO    R217047   1.024   5.299   7.014  0.1247 -0.0261  0.1100
 1267ERGO    R317048   0.961   5.554   7.081  0.1616 -0.0052  0.0608
 1267ERGO    R417049   1.155   5.470   7.283 -0.0571 -0.0780  0.2327
 1267ERGO    R517050   0.958   5.554   7.320 -0.0553 -0.0060  0.0559
 1267ERGO    C117051   1.173   5.810   7.503 -0.1282 -0.0886  0.2580
 1267ERGO    C217052   1.354   5.786   7.776  0.1887  0.1802 -0.1026
 1268ERGO   ROH17053   5.889  18.524   6.144 -0.1904  0.0686  0.2400
 1268ERGO    R117054   5.969  18.625   6.396 -0.0762  0.1320  0.1784
 1268ERGO    R217055   5.794  18.654   6.607  0.0326  0.1322  0.2656
 1268ERGO    R317056   5.978  18.504   6.739  0.1360  0.1983  0.1990
 1268ERGO    R417057   5.803  18.609   6.950  0.0229 -0.0531  0.2426
 1268ERGO    R517058   6.020  18.625   6.941  0.0163  0.1213  0.2748
 1268ERGO    C117059   5.981  18.441   7.273  0.1143 -0.0991  0.1668
 1268ERGO    C217060   5.724  18.366   7.527  0.2168  0.0667  0.3209
 1269ERGO   ROH17061   2.486   0.494   6.338 -0.1989 -0.0614 -0.2158
 1269ERGO    R117062   2.384   0.445   6.598 -0.0116 -0.1125 -0.1497
 1269ERGO    R217063   2.135   0.534   6.679  0.0806 -0.0503  0.0756
 1269ERGO    R317064   2.098   0.272   6.741  0.0382 -0.0611  0.0161
 1269ERGO    R417065   1.900   0.415   6.903  0.1214 -0.0490  0.1191
 1269ERGO    R517066   2.048   0.273   6.975  0.1137 -0.1079  0.0354
 1269ERGO    C117067   1.729   0.100   7.092  0.1053 -0.0583  0.0884
 1269ERGO    C217068   1.504  -0.207   7.173  0.0448  0.0233  0.0017
 1270ERGO   ROH17069  10.933  13.433   6.055 -0.1577 -0.0677  0.1375
 1270ERGO    R117070  10.944  13.376   6.332 -0.0021 -0.0017  0.1465
 1270ERGO    R217071  10.895  13.124   6.434 -0.0308  0.0412  0.2414
 1270ERGO    R317072  11.138  13.159   6.550  0.0574 -0.0187  0.0768
 1270ERGO    R417073  11.010  12.948   6.708  0.0546  0.1110  0.2504
 1270ERGO    R517074  11.097  13.133   6.785  0.1879  0.1061  0.1149
 1270ERGO    C117075  11.306  12.879   6.977  0.1873  0.0956  0.1011
 1270ERGO    C217076  11.360  12.472   7.101  0.0763  0.0225  0.0145
 1271ERGO   ROH17077  10.440  10.214   6.044  0.0052  0.0715  0.0154
 1271ERGO    R117078  10.360  10.429   6.210 -0.2045 -0.1297  0.1796
 1271ERGO    R217079  10.282  10.393   6.472  0.2586 -0.3592  0.2930
 1271ERGO    R317080  10.473  10.580   6.521 -0.0516  0.0403  0.0448
 1271ERGO    R417081  10.364  10.514   6.785  0.6356 -0.4602  0.2387
 1271ERGO    R517082  10.382  10.713   6.698 -0.0031 -0.3238  0.3602
 1271ERGO    C117083  10.591  10.760   7.014  0.5637 -0.1440 -0.0261
 1271ERGO    C217084  10.561  10.969   7.434 -0.0245  0.1922  0.0242
 1272ERGO   ROH17085  13.661  17.351   6.247  0.2104  0.1965  0.0477
 1272ERGO    R117086  13.641  17.544   6.453  0.0938  0.0713  0.1558
 1272ERGO    R217087  13.407  17.590   6.592  0.0216 -0.0357  0.0741
 1272ERGO    R317088  13.564  17.544   6.809 -0.0752 -0.1518  0.1204
 1272ERGO    R417089  13.320  17.664   6.919  0.0438  0.1664  0.0352
 1272ERGO    R517090  13.525  17.731   6.952  0.1156 -0.0612  0.0543
 1272ERGO    C117091  13.417  17.664   7.312 -0.0342  0.1752  0.0561
 1272ERGO    C217092  13.215  17.739   7.523  0.0733 -0.1738  0.3863
 1273ERGO   ROH17093   7.566   3.769   6.477 -0.1330 -0.1901 -0.0026
 1273ERGO    R117094   7.561   3.793   6.759  0.1429 -0.0325 -0.0083
 1273ERGO    R217095   7.759   3.925   6.900  0.0834  0.3977 -0.3062
 1273ERGO    R317096   7.549   4.065   7.000 -0.0530  0.0955 -0.1598
 1273ERGO    R417097   7.744   4.057   7.219  0.0535  0.2599 -0.2500
 1273ERGO    R517098   7.535   3.996   7.229  0.1338 -0.0087 -0.1791
 1273ERGO    C117099   7.537   4.265   7.499 -0.0921 -0.1041 -0.0798
 1273ERGO    C217100   7.316   4.425   7.744 -0.0204  0.0269  0.0626
 1274ERGO   ROH17101  17.476   2.909   6.084 -0.0384 -0.1494 -0.1588
 1274ERGO    R117102  17.503   2.911   6.366 -0.0329 -0.0477 -0.1593
 1274ERGO    R217103  17.373   2.729   6.529 -0.1713  0.1222 -0.0772
 1274ERGO    R317104  17.624   2.681   6.621 -0.2058 -0.0320 -0.0617
 1274ERGO    R417105  17.447   2.560   6.821 -0.2952  0.1329 -0.0394
 1274ERGO    R517106  17.606   2.705   6.859 -0.1952  0.0318 -0.0670
 1274ERGO    C117107  17.725   2.417   7.078 -0.3996 -0.0056 -0.0028
 1274ERGO    C217108  17.792   2.295   7.341 -0.0100 -0.0169  0.1325
 1275ERGO   ROH17109   7.258   2.185   5.869  0.0720  0.0483  0.0488
 1275ERGO    R117110   7.098   2.095   6.084  0.1601  0.0165  0.1018
 1275ERGO    R217111   7.143   2.171   6.346  0.1176  0.1763  0.0635
 1275ERGO    R317112   6.883   2.248   6.336  0.0526 -0.0411  0.0455
 1275ERGO    R417113   6.962   2.288   6.616  0.1845  0.6007 -0.0674
 1275ERGO    R517114   6.791   2.173   6.544  0.2274  0.3154  0.2616
 1275ERGO    C117115   6.611   2.428   6.763  0.1625  0.6438 -0.1605
 1275ERGO    C217116   6.361   2.664   6.857  0.0041  0.0983 -0.0557
 1276ERGO   ROH17117  14.595   9.806   6.153  0.0467 -0.1654  0.0291
 1276ERGO    R117118  14.775   9.902   6.349  0.0299 -0.0450 -0.0133
 1276ERGO    R217119  14.729  10.133   6.493 -0.1035 -0.0876  0.0177
 1276ERGO    R317120  14.765   9.969   6.706  0.0766 -0.0791 -0.0063
 1276ERGO    R417121  14.840  10.234   6.804 -0.1283 -0.0290  0.0073
 1276ERGO    R517122  14.961  10.053   6.815  0.0253  0.0731 -0.0344
 1276ERGO    C117123  14.939  10.139   7.186  0.0264  0.0132 -0.0212
 1276ERGO    C217124  15.046  10.239   7.524  0.3045 -0.0940  0.0903
 1277ERGO   ROH17125   2.373  13.450   6.269 -0.0024  0.0912 -0.1317
 1277ERGO    R117126   2.357  13.707   6.388 -0.0650  0.0855 -0.1302
 1277ERGO    R217127   2.127  13.860   6.382 -0.1449 -0.0349 -0.0032
 1277ERGO    R317128   2.161  13.864   6.651  0.0059 -0.0051 -0.0209
 1277ERGO    R417129   1.989  14.094   6.595 -0.3479 -0.2290  0.0850
 1277ERGO    R517130   2.177  14.096   6.706 -0.2798  0.0204 -0.0211
 1277ERGO    C117131   1.942  14.234   6.972 -0.3246 -0.3141  0.1198
 1277ERGO    C217132   1.807  14.219   7.162  0.0082 -0.1859  0.2491
 1278ERGO   ROH17133   4.705  15.653   6.151 -0.0962 -0.0662 -0.0264
 1278ERGO    R117134   4.743  15.719   6.423 -0.1150  0.1158 -0.0674
 1278ERGO    R217135   4.539  15.816   6.583 -0.1855 -0.0068 -0.0856
 1278ERGO    R317136   4.609  15.609   6.744  0.0527  0.1482  0.0153
 1278ERGO    R417137   4.421  15.768   6.904 -0.2326 -0.0525 -0.1095
 1278ERGO    R517138   4.622  15.706   6.963 -0.1607  0.2512 -0.0143
 1278ERGO    C117139   4.419  15.545   7.242 -0.0365  0.0662 -0.0285
 1278ERGO    C217140   4.249  15.439   7.531 -0.0689 -0.1860  0.3176
 1279ERGO   ROH17141  17.309  14.580   5.843  0.0073  0.0551  0.0230
 1279ERGO    R117142  17.200  14.451   6.070  0.1029  0.0165  0.0494
 1279ERGO    R217143  16.930  14.397   6.096  0.0541  0.3127  0.3029
 1279ERGO    R317144  17.017  14.143   6.137 -0.1848  0.1789  0.0114
 1279ERGO    R417145  16.751  14.152   6.261 -0.0824  0.3354  0.1889
 1279ERGO    R517146  16.937  14.088   6.356 -0.0923  0.0533  0.0066
 1279ERGO    C117147  16.729  13.770   6.396 -0.3860  0.2229 -0.1512
 1279ERGO    C217148  16.391  13.695   6.522  0.1296  0.0489 -0.1670
 1280ERGO   ROH17149   9.946  18.372   8.053 -0.2278  0.0612  0.0796
 1280ERGO    R117150   9.871  18.351   8.325 -0.1268 -0.0013  0.1035
 1280ERGO    R217151  10.030  18.228   8.514  0.0042  0.0726  0.0431
 1280ERGO    R317152  10.001  18.464   8.645 -0.0843  0.0470  0.0691
 1280ERGO    R417153   9.971  18.260   8.854  0.0130  0.0139  0.0502
 1280ERGO    R517154   9.832  18.422   8.809 -0.0556 -0.0391  0.0761
 1280ERGO    C117155   9.910  18.502   9.174 -0.0648 -0.0444  0.0787
 1280ERGO    C217156   9.907  18.391   9.410 -0.2182  0.3024 -0.1951
 1281ERGO   ROH17157  14.828   7.057   6.431 -0.3016 -0.0787  0.0399
 1281ERGO    R117158  14.833   6.860   6.635 -0.1887 -0.0117  0.1021
 1281ERGO    R217159  15.043   6.683   6.666 -0.1672  0.0100  0.0511
 1281ERGO    R317160  15.044   6.780   6.920 -0.0390  0.0889  0.0223
 1281ERGO    R417161  15.234   6.557   6.925 -0.0383  0.0804 -0.0087
 1281ERGO    R517162  15.064   6.585   7.058  0.0249  0.1254  0.0704
 1281ERGO    C117163  15.347   6.574   7.313  0.1571  0.1954 -0.0706
 1281ERGO    C217164  15.475   6.411   7.467 -0.2469 -0.2597  0.1789
 1282ERGO   ROH17165   8.606   2.286   6.363  0.0596 -0.1371  0.0367
 1282ERGO    R117166   8.438   2.186   6.567  0.0346  0.0714  0.1203
 1282ERGO    R217167   8.440   1.921   6.646 -0.3914  0.0186 -0.0199
 1282ERGO    R317168   8.481   2.029   6.892  0.0094 -0.1765  0.0062
 1282ERGO    R417169   8.376   1.761   6.945 -0.6094  0.0388 -0.0545
 1282ERGO    R517170   8.298   1.949   7.024 -0.1193  0.2037  0.0720
 1282ERGO    C117171   8.377   1.768   7.351 -0.3602 -0.1325 -0.0501
 1282ERGO    C217172   8.175   1.617   7.626 -0.1800  0.1665  0.0026
 1283ERGO   ROH17173  17.099   3.889   6.042  0.2621 -0.1252 -0.1264
 1283ERGO    R117174  17.282   3.867   6.257  0.1616 -0.0504 -0.0312
 1283ERGO    R217175  17.226   3.958   6.511 -0.0020 -0.0610 -0.0618
 1283ERGO    R317176  17.290   3.703   6.582  0.0544 -0.0355 -0.0211
 1283ERGO    R417177  17.416   3.871   6.787  0.0300  0.0239 -0.0570
 1283ERGO    R517178  17.514   3.719   6.665  0.0546  0.0239 -0.0351
 1283ERGO    C117179  17.587   3.581   7.013  0.1016  0.0973 -0.0158
 1283ERGO    C217180  17.580   3.493   7.355 -0.0432 -0.0042  0.0791
 1284ERGO   ROH17181  15.138   4.309   5.803  0.0760  0.1674  0.1519
 1284ERGO    R117182  15.000   4.273   6.048  0.0339  0.0166  0.1075
 1284ERGO    R217183  14.984   4.028   6.175  0.1248 -0.0372  0.0225
 1284ERGO    R317184  15.084   4.167   6.386  0.0067 -0.0553  0.0914
 1284ERGO    R417185  15.067   3.890   6.481  0.0946 -0.0881  0.0075
 1284ERGO    R517186  14.982   4.066   6.577 -0.0059 -0.1514  0.0336
 1284ERGO    C117187  15.210   3.941   6.857 -0.0339 -0.1346  0.0635
 1284ERGO    C217188  15.231   3.825   7.111  0.0726  0.0923 -0.0586
 1285ERGO   ROH17189   1.445  13.394   6.042 -0.1508 -0.0295 -0.0032
 1285ERGO    R117190   1.363  13.469   6.303 -0.2031 -0.0323 -0.0183
 1285ERGO    R217191   1.115  13.579   6.355 -0.2907 -0.2149 -0.0368
 1285ERGO    R317192   1.099  13.375   6.535 -0.1237 -0.1876  0.0100
 1285ERGO    R417193   0.879  13.556   6.607 -0.0187 -0.1461  0.2298
 1285ERGO    R517194   1.036  13.482   6.740  0.1180 -0.1510  0.0680
 1285ERGO    C117195   0.727  13.351   6.922  0.2963 -0.0804  0.4290
 1285ERGO    C217196   0.632  13.301   7.222 -0.2170  0.1331  0.1465
 1286ERGO   ROH17197  14.069  16.572   8.910  0.4204  0.2975  0.1346
 1286ERGO    R117198  14.022  16.642   8.639 -0.0132  0.2587  0.1946
 1286ERGO    R217199  14.145  16.513   8.428  0.1101  0.6120  0.0488
 1286ERGO    R317200  13.889  16.478   8.343  0.0975  0.0063  0.2808
 1286ERGO    R417201  14.055  16.418   8.109  0.0473  0.5984  0.0691
 1286ERGO    R517202  13.890  16.560   8.118 -0.3309  0.1767  0.3284
 1286ERGO    C117203  13.763  16.329   7.842 -0.0010  0.0219  0.2986
 1286ERGO    C217204  13.820  16.116   7.523  0.2683  0.4059 -0.0828
 1287ERGO   ROH17205  13.542  11.628   5.994 -0.0438  0.1755  0.1861
 1287ERGO    R117206  13.635  11.688   6.254  0.1744  0.0931  0.1308
 1287ERGO    R217207  13.465  11.756   6.462  0.3637  0.3290  0.2227
 1287ERGO    R317208  13.592  11.552   6.589  0.1849  0.1817  0.1667
 1287ERGO    R417209  13.493  11.723   6.805  0.2736  0.1597  0.2139
 1287ERGO    R517210  13.698  11.656   6.777  0.2242  0.0190  0.2304
 1287ERGO    C117211  13.629  11.513   7.124  0.0533 -0.0771  0.1562
 1287ERGO    C217212  13.704  11.425   7.553 -0.4142  0.0259  0.0906
 1288ERGO   ROH17213   0.151   1.099   6.285  0.0739  0.1219  0.0302
 1288ERGO    R117214  -0.035   1.167   6.487  0.0970  0.1591  0.0387
 1288ERGO    R217215  -0.015   1.072   6.745  0.0525  0.1018  0.0189
 1288ERGO    R317216  -0.027   1.336   6.809  0.1571  0.0940  0.0723
 1288ERGO    R417217  -0.025   1.196   7.068 -0.2076  0.0200  0.0451
 1288ERGO    R517218  -0.171   1.344   7.001 -0.0442  0.1345 -0.0751
 1288ERGO    C117219  -0.041   1.516   7.316 -0.2607 -0.0349  0.1105
 1288ERGO    C217220  -0.003   1.524   7.757  0.1659 -0.2141  0.1323
 1289ERGO   ROH17221   1.535  14.946   9.127  0.3943  0.0025  0.0361
 1289ERGO    R117222   1.657  15.007   8.879  0.2980 -0.0240 -0.0176
 1289ERGO    R217223   1.695  14.818   8.681  0.0840 -0.0097 -0.0700
 1289ERGO    R317224   1.561  14.999   8.528  0.1078  0.0936  0.0290
 1289ERGO    R417225   1.665  14.804   8.337 -0.0624  0.0812 -0.0626
 1289ERGO    R517226   1.693  15.020   8.330  0.0408  0.0737 -0.0218
 1289ERGO    C117227   1.522  14.965   7.993 -0.1254  0.2310  0.0345
 1289ERGO    C217228   1.388  14.786   7.648  0.0266 -0.1122 -0.0431
 1290ERGO   ROH17229   5.624  11.354   5.922  0.0260 -0.0742  0.0400
 1290ERGO    R117230   5.669  11.309   6.198  0.0504  0.1597  0.0766
 1290ERGO    R217231   5.611  11.498   6.391 -0.2483  0.2004 -0.0491
 1290ERGO    R317232   5.466  11.295   6.500  0.0219  0.0584  0.0540
 1290ERGO    R417233   5.575  11.443   6.730 -0.1162  0.2904 -0.0203
 1290ERGO    R517234   5.594  11.229   6.692  0.1451  0.2934  0.0593
 1290ERGO    C117235   5.418  11.221   7.031  0.2144  0.2095  0.0934
 1290ERGO    C217236   5.349  11.391   7.226 -0.0244  0.1740 -0.0504
 1291ERGO   ROH17237   4.654   9.361   5.827  0.0926  0.1037  0.0369
 1291ERGO    R117238   4.754   9.320   6.089 -0.0437  0.0639  0.0831
 1291ERGO    R217239   4.891   9.515   6.229 -0.0436  0.0140  0.1508
 1291ERGO    R317240   4.702   9.467   6.418 -0.1482  0.0731  0.0635
 1291ERGO    R417241   4.918   9.605   6.561 -0.0437 -0.2432  0.2231
 1291ERGO    R517242   4.828   9.414   6.615 -0.2552 -0.1930  0.0651
 1291ERGO    C117243   4.756   9.613   6.933 -0.1419 -0.3374  0.1832
 1291ERGO    C217244   4.675   9.771   7.146  0.0770  0.2001  0.4434
 1292ERGO   ROH17245   1.289  18.224   6.252  0.1116 -0.1225  0.1627
 1292ERGO    R117246   1.189  18.270   6.513  0.0193  0.0078  0.1072
 1292ERGO    R217247   1.131  18.065   6.688 -0.0687  0.0874  0.1863
 1292ERGO    R317248   1.297  18.201   6.854 -0.1094  0.1485  0.1746
 1292ERGO    R417249   1.115  18.056   7.033  0.0120  0.0472  0.1881
 1292ERGO    R517250   1.156  18.270   7.035 -0.0975  0.0570  0.2086
 1292ERGO    C117251   1.263  18.178   7.390  0.0208  0.0812  0.1782
 1292ERGO    C217252   1.227  18.289   7.703  0.2888  0.2223 -0.4356
 1293ERGO   ROH17253  17.256   0.964   9.647  0.0039 -0.0691 -0.0587
 1293ERGO    R117254  17.281   0.968   9.365  0.1140 -0.0894 -0.0491
 1293ERGO    R217255  17.516   0.904   9.235  0.0903 -0.3498  0.0395
 1293ERGO    R317256  17.357   0.728   9.102 -0.0575 -0.1696 -0.0278
 1293ERGO    R417257  17.529   0.842   8.895  0.0746 -0.2628  0.0221
 1293ERGO    R517258  17.312   0.834   8.893  0.0626 -0.0643 -0.0044
 1293ERGO    C117259  17.387   0.641   8.573 -0.0735 -0.0429 -0.0512
 1293ERGO    C217260  17.325   0.591   8.327 -0.1188 -0.2938  0.0497
 1294ERGO   ROH17261   7.065  13.108   6.248 -0.1725  0.0469  0.3185
 1294ERGO    R117262   7.215  12.904   6.375 -0.0503 -0.0091  0.0897
 1294ERGO    R217263   7.467  12.831   6.290 -0.0031  0.2415  0.0031
 1294ERGO    R317264   7.533  12.881   6.549 -0.0368 -0.0101  0.0663
 1294ERGO    R417265   7.780  12.781   6.428  0.0243  0.2662 -0.0484
 1294ERGO    R517266   7.684  12.704   6.607  0.0639  0.0061 -0.1302
 1294ERGO    C117267   8.025  12.799   6.751  0.0086  0.0444 -0.0189
 1294ERGO    C217268   8.257  12.704   7.007  0.1326 -0.0439 -0.2054
 1295ERGO   ROH17269   1.308   2.241   5.852 -0.0928 -0.2425  0.0941
 1295ERGO    R117270   1.344   2.282   6.130  0.1120 -0.2610  0.0721
 1295ERGO    R217271   1.594   2.297   6.247  0.2084  0.0050 -0.1498
 1295ERGO    R317272   1.500   2.534   6.342  0.0140 -0.1228 -0.0201
 1295ERGO    R417273   1.716   2.461   6.526  0.1649  0.0282 -0.1449
 1295ERGO    R517274   1.511   2.511   6.580  0.1406 -0.1966 -0.0355
 1295ERGO    C117275   1.698   2.777   6.778 -0.0429 -0.0784 -0.0204
 1295ERGO    C217276   1.828   2.878   7.018  0.0148 -0.0604 -0.1685
 1296ERGO   ROH17277  16.269   0.423   6.723  0.1810 -0.2620 -0.1236
 1296ERGO    R117278  16.301   0.477   7.000  0.0902 -0.0764 -0.1482
 1296ERGO    R217279  16.421   0.298   7.173  0.0391  0.0428  0.0098
 1296ERGO    R317280  16.580   0.512   7.232  0.0142  0.0867 -0.0794
 1296ERGO    R417281  16.640   0.316   7.441  0.1309  0.1310 -0.0694
 1296ERGO    R517282  16.579   0.523   7.471  0.0963  0.1232 -0.0800
 1296ERGO    C117283  16.915   0.526   7.651  0.1611  0.2235 -0.1993
 1296ERGO    C217284  17.099   0.604   7.895 -0.2934 -0.0043 -0.0253
 1297ERGO   ROH17285   2.364   6.551   9.311  0.3552  0.2024  0.2010
 1297ERGO    R117286   2.316   6.671   9.060  0.0531  0.0376  0.1744
 1297ERGO    R217287   2.519   6.775   8.903 -0.1588  0.1521 -0.0310
 1297ERGO    R317288   2.414   6.610   8.715 -0.1500 -0.0378  0.1280
 1297ERGO    R417289   2.579   6.800   8.564 -0.3065 -0.0468 -0.0724
 1297ERGO    R517290   2.369   6.754   8.528 -0.3014 -0.1857  0.0447
 1297ERGO    C117291   2.516   6.659   8.189 -0.3842 -0.3408  0.0527
 1297ERGO    C217292   2.714   6.846   8.007  0.1176  0.0690 -0.1422
 1298ERGO   ROH17293  14.804  12.160   6.106  0.1165 -0.1932 -0.0626
 1298ERGO    R117294  14.802  12.187   6.387  0.0201 -0.2892 -0.0529
 1298ERGO    R217295  14.689  12.405   6.515  0.1133 -0.2551 -0.0239
 1298ERGO    R317296  14.550  12.214   6.649 -0.0709 -0.2103 -0.1485
 1298ERGO    R417297  14.625  12.408   6.854 -0.0824 -0.3047 -0.0596
 1298ERGO    R517298  14.663  12.194   6.859 -0.2048 -0.3253 -0.0880
 1298ERGO    C117299  14.456  12.231   7.177 -0.3693 -0.2917 -0.1975
 1298ERGO    C217300  14.482  12.190   7.460 -0.0349 -0.0366  0.1134
 1299ERGO   ROH17301  14.231   8.246   6.146  0.1347  0.1608 -0.1212
 1299ERGO    R117302  14.290   8.276   6.421 -0.0288  0.2062 -0.0946
 1299ERGO    R217303  14.208   8.495   6.568 -0.4731  0.0170 -0.0910
 1299ERGO    R317304  14.101   8.305   6.730 -0.1999 -0.1977 -0.1477
 1299ERGO    R417305  14.079   8.554   6.883 -0.3302 -0.2710  0.0296
 1299ERGO    R517306  14.171   8.369   6.950 -0.1040 -0.2540 -0.1411
 1299ERGO    C117307  13.904   8.410   7.219  0.0095 -0.6402  0.0465
 1299ERGO    C217308  13.689   8.430   7.535  0.0611  0.2090 -0.0602
 1300ERGO   ROH17309  10.321  17.953   5.972 -0.0860 -0.2449  0.1459
 1300ERGO    R117310  10.259  18.149   6.167 -0.3465 -0.1145 -0.0622
 1300ERGO    R217311   9.999  18.209   6.240 -0.4285 -0.5042 -0.0125
 1300ERGO    R317312  10.091  18.156   6.490 -0.1985 -0.0329  0.0138
 1300ERGO    R417313   9.825  18.270   6.532 -0.3027 -0.2765  0.0175
 1300ERGO    R517314  10.010  18.338   6.623 -0.3162  0.0741 -0.1997
 1300ERGO    C117315   9.810  18.256   6.937 -0.0136  0.2988  0.0596
 1300ERGO    C217316   9.704  18.263   7.294 -0.1523 -0.2020 -0.3692
 1301ERGO   ROH17317  12.919   4.538   9.853  0.1182 -0.0800  0.1762
 1301ERGO    R117318  12.931   4.625   9.584  0.1870  0.0074  0.2065
 1301ERGO    R217319  13.021   4.463   9.379  0.1919  0.0553  0.1677
 1301ERGO    R317320  12.782   4.526   9.267  0.2249  0.1428  0.1462
 1301ERGO    R417321  12.964   4.496   9.040  0.2105 -0.0055  0.1588
 1301ERGO    R517322  12.837   4.668   9.083  0.2948  0.0661  0.1101
 1301ERGO    C117323  12.706   4.574   8.737  0.2522  0.0413  0.1333
 1301ERGO    C217324  12.683   4.605   8.397 -0.3922  0.2408 -0.1418
 1302ERGO   ROH17325   2.153   8.593   6.128  0.1139 -0.0460  0.2038
 1302ERGO    R117326   2.155   8.436   6.364  0.1533 -0.0170  0.2246
 1302ERGO    R217327   2.388   8.372   6.498  0.1914 -0.0866  0.1457
 1302ERGO    R317328   2.256   8.480   6.710  0.3120 -0.0048  0.1730
 1302ERGO    R417329   2.423   8.270   6.826 -0.0420 -0.3051  0.1046
 1302ERGO    R517330   2.208   8.294   6.852 -0.0008  0.0028  0.0686
 1302ERGO    C117331   2.321   8.311   7.216 -0.0647 -0.3554  0.1063
 1302ERGO    C217332   2.186   8.083   7.453  0.0583 -0.2218  0.1779
 1303ERGO   ROH17333   4.290  17.475   6.223  0.2393  0.0029  0.2002
 1303ERGO    R117334   4.277  17.375   6.487  0.2280  0.0040  0.1997
 1303ERGO    R217335   4.478  17.221   6.598  0.2565  0.0681  0.2333
 1303ERGO    R317336   4.471  17.410   6.793  0.1684  0.0681  0.2312
 1303ERGO    R417337   4.578  17.170   6.925  0.1563  0.0766  0.2659
 1303ERGO    R517338   4.407  17.289   6.990  0.1177  0.0569  0.2103
 1303ERGO    C117339   4.630  17.318   7.298  0.0153  0.0816  0.2829
 1303ERGO    C217340   4.816  17.232   7.617 -0.1867 -0.0762 -0.0779
 1304ERGO   ROH17341   3.756  10.716   5.779 -0.2810 -0.1510 -0.1300
 1304ERGO    R117342   3.594  10.657   6.004 -0.2187 -0.0134 -0.0484
 1304ERGO    R217343   3.659  10.461   6.187 -0.2413  0.0031 -0.0270
 1304ERGO    R317344   3.632  10.664   6.366 -0.0697  0.0609 -0.0634
 1304ERGO    R417345   3.502  10.433   6.493  0.1293  0.0690  0.1758
 1304ERGO    R517346   3.414  10.630   6.460  0.0443  0.0415  0.2098
 1304ERGO    C117347   3.384  10.607   6.840  0.5062  0.1616  0.2597
 1304ERGO    C217348   3.020  10.567   7.106  0.2020 -0.0300  0.0956
 1305ERGO   ROH17349   7.677   1.102   6.026  0.3238  0.0540  0.2148
 1305ERGO    R117350   7.449   1.156   6.185  0.2185  0.3430 -0.0228
 1305ERGO    R217351   7.373   0.995   6.397 -0.4270  0.2157 -0.3217
 1305ERGO    R317352   7.384   1.228   6.536 -0.0868  0.0233 -0.0104
 1305ERGO    R417353   7.179   1.070   6.673 -0.1961  0.0847 -0.1204
 1305ERGO    R517354   7.157   1.272   6.596 -0.0023  0.2138  0.1637
 1305ERGO    C117355   7.077   1.332   6.964  0.2576 -0.1722  0.2889
 1305ERGO    C217356   7.026   1.580   7.269 -0.3740 -0.1861  0.0310
 1306ERGO   ROH17357  12.512   0.712   6.040 -0.3454  0.2555  0.0466
 1306ERGO    R117358  12.536   0.552   6.272 -0.2826  0.1876 -0.0066
 1306ERGO    R217359  12.737   0.587   6.457 -0.1719  0.0660 -0.1029
 1306ERGO    R317360  12.530   0.604   6.632 -0.0744  0.0978  0.0119
 1306ERGO    R417361  12.769   0.615   6.800  0.0213 -0.1675 -0.0986
 1306ERGO    R517362  12.601   0.478   6.822 -0.0607 -0.0701 -0.1011
 1306ERGO    C117363  12.593   0.648   7.164  0.2255 -0.2736  0.0117
 1306ERGO    C217364  12.669   0.600   7.454  0.2914  0.1655 -0.2316
 1307ERGO   ROH17365  12.207   3.699   9.693  0.0875 -0.0620  0.1441
 1307ERGO    R117366  12.208   3.498   9.494 -0.0373 -0.1486  0.2289
 1307ERGO    R217367  11.987   3.342   9.438 -0.1732  0.0460  0.2140
 1307ERGO    R317368  12.029   3.431   9.184  0.0095 -0.0995  0.1911
 1307ERGO    R417369  11.997   3.141   9.156 -0.3476 -0.0723  0.2906
 1307ERGO    R517370  12.163   3.261   9.083 -0.1748 -0.3079  0.2902
 1307ERGO    C117371  12.042   3.108   8.755 -0.2775 -0.2778  0.3137
 1307ERGO    C217372  11.922   2.892   8.437 -0.0976  0.0111  0.0146
 1308ERGO   ROH17373   2.024  11.755   9.450 -0.2692 -0.1435 -0.0479
 1308ERGO    R117374   1.972  11.681   9.182 -0.2577 -0.1726 -0.0425
 1308ERGO    R217375   2.114  11.784   8.968 -0.3754 -0.0487 -0.0645
 1308ERGO    R317376   2.156  11.522   8.911 -0.1770 -0.0146 -0.0812
 1308ERGO    R417377   2.174  11.658   8.652 -0.3726  0.0037 -0.0846
 1308ERGO    R517378   2.046  11.488   8.701 -0.2171 -0.1027 -0.0454
 1308ERGO    C117379   2.249  11.338   8.414 -0.1848  0.0662 -0.1119
 1308ERGO    C217380   2.402  11.033   8.110 -0.0077  0.0049 -0.3588
 1309ERGO   ROH17381   1.548  11.657   6.143  0.1835  0.1258 -0.0144
 1309ERGO    R117382   1.653  11.807   6.359  0.1238  0.0040  0.0988
 1309ERGO    R217383   1.526  12.029   6.462  0.2900  0.1753 -0.0752
 1309ERGO    R317384   1.548  11.894   6.697 -0.1643  0.1664 -0.0272
 1309ERGO    R417385   1.562  12.178   6.772  0.4129  0.1761 -0.0886
 1309ERGO    R517386   1.706  12.022   6.824  0.0461 -0.1440  0.0443
 1309ERGO    C117387   1.605  12.138   7.173  0.0579  0.1683 -0.0514
 1309ERGO    C217388   1.636  12.146   7.445  0.0941  0.1142  0.1971
 1310ERGO   ROH17389   6.408  16.005   6.096  0.4978  0.0659  0.3466
 1310ERGO    R117390   6.275  15.869   6.306  0.2248 -0.0084  0.1323
 1310ERGO    R217391   6.383  15.845   6.560  0.0114 -0.3092  0.2011
 1310ERGO    R317392   6.146  15.954   6.636  0.0384 -0.1833  0.1063
 1310ERGO    R417393   6.267  15.859   6.885 -0.0812 -0.1850  0.1632
 1310ERGO    R517394   6.068  15.811   6.811 -0.0808 -0.1090  0.1141
 1310ERGO    C117395   5.977  15.970   7.146 -0.1098  0.0055  0.0522
 1310ERGO    C217396   5.811  16.151   7.347  0.0801  0.1701  0.2399
 1311ERGO   ROH17397  13.414  12.531   6.023 -0.1005 -0.1852 -0.0271
 1311ERGO    R117398  13.323  12.715   6.218 -0.0099 -0.1651 -0.0034
 1311ERGO    R217399  13.093  12.864   6.185  0.0510 -0.0644  0.0262
 1311ERGO    R317400  13.027  12.756   6.426  0.0203 -0.0595  0.0201
 1311ERGO    R417401  12.882  13.010   6.417 -0.0736 -0.1126 -0.0555
 1311ERGO    R517402  13.017  12.943   6.575 -0.0941 -0.0431 -0.0062
 1311ERGO    C117403  12.698  12.993   6.778 -0.1750 -0.1362 -0.1088
 1311ERGO    C217404  12.601  13.089   7.030 -0.1659 -0.0277 -0.0220
 1312ERGO   ROH17405  13.403   7.562   6.356  0.0255  0.0028  0.0335
 1312ERGO    R117406  13.285   7.663   6.593  0.0477 -0.0235  0.0553
 1312ERGO    R217407  13.050   7.561   6.697  0.0551 -0.0309  0.0623
 1312ERGO    R317408  13.200   7.532   6.921  0.0724 -0.0611  0.0470
 1312ERGO    R417409  12.941   7.413   6.989  0.0294  0.0602  0.0998
 1312ERGO    R517410  13.046   7.567   7.101  0.1110  0.0329  0.0624
 1312ERGO    C117411  13.019   7.298   7.370  0.0307  0.0849  0.1073
 1312ERGO    C217412  13.003   7.272   7.563 -0.1219  0.1743  0.0182
 1313ERGO   ROH17413  16.520  15.106   9.392 -0.0978 -0.0556  0.0595
 1313ERGO    R117414  16.500  15.168   9.116  0.1069  0.0763  0.0718
 1313ERGO    R217415  16.690  15.320   8.984  0.3920 -0.1474  0.2024
 1313ERGO    R317416  16.697  15.106   8.817  0.1454 -0.1043  0.1345
 1313ERGO    R417417  16.750  15.337   8.644  0.2232 -0.0996  0.1748
 1313ERGO    R517418  16.597  15.185   8.615  0.0978  0.0244  0.2111
 1313ERGO    C117419  16.792  15.146   8.289 -0.1065 -0.0313  0.0950
 1313ERGO    C217420  16.951  15.177   7.918  0.0522 -0.0047 -0.0407
 1314ERGO   ROH17421  14.506   4.942   6.265  0.1379  0.0002 -0.1547
 1314ERGO    R117422  14.406   4.940   6.530  0.1890 -0.2636 -0.1345
 1314ERGO    R217423  14.568   4.905   6.750  0.2997 -0.0482 -0.1783
 1314ERGO    R317424  14.454   5.137   6.832 -0.1003 -0.2708 -0.0810
 1314ERGO    R417425  14.597   5.037   7.068  0.1460 -0.0874 -0.1476
 1314ERGO    R517426  14.386   5.094   7.058  0.0350 -0.4603 -0.0745
 1314ERGO    C117427  14.506   5.333   7.330 -0.3190 -0.3192 -0.0384
 1314ERGO    C217428  14.644   5.419   7.672  0.0071  0.2565  0.0642
 1315ERGO   ROH17429   3.550   7.120   7.754  0.1465 -0.0147 -0.1091
 1315ERGO    R117430   3.705   7.267   7.569  0.1781 -0.0361 -0.1002
 1315ERGO    R217431   3.671   7.538   7.528  0.1608 -0.0456 -0.1631
 1315ERGO    R317432   3.937   7.547   7.581  0.1462 -0.0107 -0.0967
 1315ERGO    R417433   3.871   7.817   7.487  0.1172  0.0102 -0.0040
 1315ERGO    R517434   4.028   7.687   7.409  0.1608  0.0751 -0.0177
 1315ERGO    C117435   4.237   7.988   7.513  0.0781  0.0754  0.1510
 1315ERGO    C217436   4.449   8.126   7.353 -0.0027  0.1967 -0.1718
 1316ERGO   ROH17437   1.552   4.080   6.094  0.2513 -0.1422  0.0125
 1316ERGO    R117438   1.613   4.027   6.366  0.1088  0.0433  0.0827
 1316ERGO    R217439   1.580   4.215   6.565 -0.2242  0.1055 -0.0251
 1316ERGO    R317440   1.431   4.020   6.681 -0.1149  0.0087 -0.0450
 1316ERGO    R417441   1.440   4.234   6.881 -0.2290 -0.0092 -0.0198
 1316ERGO    R517442   1.494   4.025   6.912 -0.1131  0.0161 -0.0455
 1316ERGO    C117443   1.218   4.061   7.173 -0.1291 -0.1668 -0.0354
 1316ERGO    C217444   1.173   4.004   7.551  0.0324 -0.2963  0.1000
 1317ERGO   ROH17445   3.149   5.398   5.949  0.0827  0.1319  0.0211
 1317ERGO    R117446   3.229   5.369   6.219  0.1896  0.0485 -0.0187
 1317ERGO    R217447   3.485   5.432   6.305  0.1521  0.2658 -0.0535
 1317ERGO    R317448   3.351   5.588   6.483  0.0326  0.0162  0.0813
 1317ERGO    R417449   3.593   5.505   6.625  0.0771  0.0526  0.0225
 1317ERGO    R517450   3.388   5.484   6.694  0.0875 -0.1497 -0.0098
 1317ERGO    C117451   3.530   5.695   6.978 -0.0789 -0.3059  0.1932
 1317ERGO    C217452   3.580   5.650   7.343 -0.0909  0.0976  0.0230
 1318ERGO   ROH17453   4.596   6.601   6.000 -0.1947 -0.1032 -0.0099
 1318ERGO    R117454   4.446   6.618   6.240 -0.0254  0.0368  0.0883
 1318ERGO    R217455   4.450   6.420   6.432 -0.0241  0.0693  0.1186
 1318ERGO    R317456   4.517   6.627   6.597  0.2172  0.0564  0.0418
 1318ERGO    R417457   4.497   6.394   6.774  0.0641  0.1179  0.1112
 1318ERGO    R517458   4.394   6.585   6.798  0.2426  0.2207  0.0947
 1318ERGO    C117459   4.586   6.572   7.127  0.3420  0.1341  0.0347
 1318ERGO    C217460   4.677   6.419   7.383  0.1577 -0.1247  0.0059
 1319ERGO   ROH17461  11.518  12.827   5.834 -0.1263  0.0611 -0.0331
 1319ERGO    R117462  11.740  12.731   5.981 -0.0470  0.1653 -0.0851
 1319ERGO    R217463  11.801  12.823   6.235 -0.0733  0.1437 -0.0740
 1319ERGO    R317464  11.794  12.559   6.297  0.1038  0.1220 -0.1323
 1319ERGO    R417465  11.984  12.674   6.487  0.0679  0.2013 -0.1399
 1319ERGO    R517466  12.019  12.504   6.355  0.1515  0.2510 -0.1863
 1319ERGO    C117467  12.083  12.339   6.693  0.3164  0.2145 -0.2330
 1319ERGO    C217468  12.213  12.170   6.986  0.3543  0.0168  0.2987
 1320ERGO   ROH17469   1.757   2.729   7.696 -0.1738  0.1574 -0.0520
 1320ERGO    R117470   1.748   2.447   7.714  0.0951  0.1379 -0.1811
 1320ERGO    R217471   1.549   2.313   7.852  0.3222 -0.1075 -0.0927
 1320ERGO    R317472   1.518   2.183   7.615  0.2558 -0.0259 -0.1301
 1320ERGO    R417473   1.475   1.977   7.819  0.1809 -0.0697 -0.1762
 1320ERGO    R517474   1.615   1.968   7.652  0.1724 -0.0793 -0.1906
 1320ERGO    C117475   1.402   1.660   7.577  0.0363  0.0290 -0.2599
 1320ERGO    C217476   1.308   1.342   7.676  0.1756 -0.2261  0.0223
 1321ERGO   ROH17477   9.832   5.909   5.953 -0.1177 -0.1879 -0.1368
 1321ERGO    R117478   9.736   6.039   6.185 -0.0554 -0.1631 -0.1251
 1321ERGO    R217479   9.863   6.257   6.296  0.0088 -0.1906 -0.1472
 1321ERGO    R317480   9.619   6.373   6.272  0.0308 -0.1354 -0.1122
 1321ERGO    R417481   9.778   6.568   6.422  0.1385 -0.1113 -0.2509
 1321ERGO    R517482   9.584   6.485   6.480  0.1345 -0.0349 -0.1471
 1321ERGO    C117483   9.498   6.856   6.472  0.2345 -0.0134 -0.2785
 1321ERGO    C217484   9.577   7.192   6.364 -0.1823 -0.0791 -0.1091
 1322ERGO   ROH17485   1.276  15.141   6.138  0.1353 -0.1499  0.0074
 1322ERGO    R117486   1.215  15.243   6.395  0.2100  0.0107 -0.0380
 1322ERGO    R217487   1.148  15.080   6.608 -0.0279  0.1610  0.0018
 1322ERGO    R317488   1.351  15.213   6.730  0.1108 -0.0427 -0.0006
 1322ERGO    R417489   1.233  15.048   6.941 -0.1901  0.2126  0.0497
 1322ERGO    R517490   1.267  15.262   6.949  0.0938  0.1812 -0.0515
 1322ERGO    C117491   1.474  15.153   7.250 -0.1543  0.0516  0.0754
 1322ERGO    C217492   1.592  15.253   7.579 -0.2391  0.0957 -0.0756
 1323ERGO   ROH17493  13.060  10.411   6.148  0.3492 -0.1036  0.0920
 1323ERGO    R117494  13.155  10.268   6.372  0.1452 -0.1233  0.1693
 1323ERGO    R217495  13.373  10.351   6.520  0.1589 -0.2595  0.2358
 1323ERGO    R317496  13.199  10.333   6.728  0.0554 -0.0619  0.1681
 1323ERGO    R417497  13.454  10.409   6.851  0.0626 -0.2553  0.2583
 1323ERGO    R517498  13.329  10.239   6.906 -0.1050 -0.1321  0.2453
 1323ERGO    C117499  13.338  10.425   7.239 -0.0907 -0.0673  0.2078
 1323ERGO    C217500  13.202  10.477   7.561 -0.0987  0.0823  0.0522
 1324ERGO   ROH17501   7.353  13.978   5.880  0.1593  0.0394 -0.0245
 1324ERGO    R117502   7.419  14.034   6.150  0.4092 -0.1111 -0.0521
 1324ERGO    R217503   7.246  13.982   6.359  0.3341  0.3691  0.0107
 1324ERGO    R317504   7.458  13.843   6.457  0.0088 -0.2011 -0.0506
 1324ERGO    R417505   7.287  13.896   6.691  0.3717  0.6114  0.0709
 1324ERGO    R517506   7.500  13.943   6.671  0.5295 -0.0743 -0.1948
 1324ERGO    C117507   7.510  13.716   6.977  0.0883  0.2171  0.0484
 1324ERGO    C217508   7.754  13.663   7.130  0.2476  0.1378 -0.1636
 1325W        W17509   9.101  10.995  11.771 -0.4438 -0.2410 -0.1690
 1326W        W17510  12.255   3.270   4.009 -0.1202  0.1106 -0.0884
 1327W        W17511   5.388  18.806   3.032  0.0945 -0.2395  0.0918
 1328W        W17512   6.135   2.406   1.260 -0.2207  0.1269  0.0286
 1329W        W17513   1.107   4.517   0.154 -0.2640 -0.1283 -0.0384
 1330W        W17514  17.976   6.359  13.298  0.0834 -0.3635  0.0834
 1331W        W17515  18.421  10.434  11.767  0.0662 -0.5535  0.1097
 1332W        W17516   8.778   0.916  14.191  0.4012 -0.2692 -0.0414
 1333W        W17517  17.765  16.584   1.635  0.2388  0.1278 -0.0073
 1334W        W17518   4.566   7.138   3.843 -0.1412  0.1004 -0.4098
 1335W        W17519   8.394   4.690  10.041  0.0276 -0.1560 -0.0691
 1336W        W17520  15.418  16.761   2.537  0.0216 -0.1106 -0.0242
 1337W        W17521   4.427  12.313  10.312  0.3350  0.1251 -0.1841
 1338W        W17522   9.249  14.389   3.515  0.0821  0.1788 -0.3235
 1339W        W17523  13.462  15.342  11.049 -0.1105  0.2360  0.1421
 1340W        W17524  13.610   1.274   0.149  0.1806 -0.0243  0.0846
 1341W        W17525  14.034   4.703  15.476  0.3254 -0.0536  0.1367
 1342W        W17526   9.535  13.819   4.453  0.2399 -0.0043 -0.0954
 1343W        W17527  15.089   2.979   3.596 -0.2443  0.2941 -0.1818
 1344W        W17528   4.890   7.629  13.757  0.3781 -0.2198 -0.0169
 1345W        W17529   7.380  14.481   4.758  0.2112 -0.2675  0.0181
 1346W        W17530  17.529  14.442   4.772 -0.1068 -0.1538 -0.1045
 1347W        W17531   9.065  16.062  15.526 -0.1500  0.0353  0.1183
 1348W        W17532  17.009  18.629  15.157  0.1881  0.1007 -0.0456
 1349W        W17533   6.234   1.616   2.469 -0.0008  0.1864  0.1072
 1350W        W17534  10.209   7.205   0.872  0.0574  0.0182  0.4214
 1351W        W17535   4.334  17.736  11.749 -0.1300  0.0732 -0.0422
 1352W        W17536  14.824   8.103   0.128 -0.0511  0.1334  0.1309
 1353W        W17537   2.444   2.692   1.633  0.1914  0.0163 -0.2544
 1354W        W17538  10.853  17.225   4.252  0.1711  0.2565 -0.1094
 1355W        W17539   7.317  14.277   2.860  0.0889  0.3081  0.0889
 1356W        W17540   2.072  13.678   4.047  0.0688 -0.0660  0.2009
 1357W        W17541  18.070   6.905   3.494 -0.1853 -0.2309  0.0954
 1358W        W17542  18.258  12.432  12.695 -0.1910 -0.1080 -0.0177
 1359W        W17543  18.793  17.685  13.785  0.1387  0.1269 -0.0270
 1360W        W17544   2.589  13.847  11.976 -0.1565  0.1622  0.2623
 1361W        W17545  13.161  18.453   0.579 -0.0687  0.1089  0.0183
 1362W        W17546   2.766   6.657   0.791  0.2618 -0.0820  0.1589
 1363W        W17547   5.546   0.295   0.363 -0.1960 -0.2148  0.2972
 1364W        W17548  17.277   2.242   1.040  0.0352  0.1099 -0.0011
 1365W        W17549  18.525   7.750  15.458  0.2854 -0.0490  0.1626
 1366W        W17550  13.484   0.775   3.324 -0.1737  0.1725  0.2651
 1367W        W17551  18.205  18.393  12.583  0.0477 -0.0965 -0.1023
 1368W        W17552  12.412  17.312   3.734 -0.0442  0.1221  0.3586
 1369W        W17553  12.632  18.677  10.999 -0.0575 -0.1035 -0.1890
 1370W        W17554  18.475   3.184   5.491  0.1576  0.0611  0.0726
 1371W        W17555   8.268  11.918  12.169  0.0492 -0.0114  0.5094
 1372W        W17556   7.017   7.998  14.021 -0.1303  0.1218 -0.3521
 1373W        W17557  11.954  11.136  12.158  0.0795  0.0621  0.0374
 1374W        W17558   1.609   3.648   1.873 -0.2288  0.1052 -0.1329
 1375W        W17559   9.659  15.340   2.855 -0.3082 -0.2374 -0.2100
 1376W        W17560   8.524   2.323   2.836  0.2703 -0.2024 -0.0663
 1377W        W17561   4.209   5.505   2.341 -0.0463 -0.1972 -0.0263
 1378W        W17562  11.878   9.235   0.468 -0.2762 -0.0997  0.1031
 1379W        W17563  13.259   0.340  12.087 -0.1791  0.0073 -0.0258
 1380W        W17564   2.293  16.762  13.811  0.0294  0.1037  0.0040
 1381W        W17565  11.102   7.206   0.530 -0.3754  0.2860 -0.1339
 1382W        W17566  17.922  18.190   0.976 -0.0707 -0.1791 -0.0779
 1383W        W17567   0.632  16.920   4.459  0.1807 -0.0123  0.2827
 1384W        W17568   0.870   0.030  13.618  0.0264  0.2323 -0.1406
 1385W        W17569  10.119  13.810   5.178  0.1401  0.2092 -0.2990
 1386W        W17570   9.782  14.194  12.234  0.1253 -0.1736  0.1410
 1387W        W17571   1.387   0.756  12.561 -0.3365 -0.0523  0.0497
 1388W        W17572   0.085   3.360  14.217 -0.2481  0.0609 -0.0086
 1389W        W17573   3.222  13.714  11.190  0.0966  0.0238 -0.0881
 1390W        W17574  18.833  12.531   5.128  0.3234  0.0824 -0.1085
 1391W        W17575  13.008   2.242   1.066  0.3222  0.0492  0.1317
 1392W        W17576   5.250   5.266  12.637 -0.0251 -0.0710 -0.1836
 1393W        W17577  13.551  11.416  13.657 -0.4018  0.0037  0.1221
 1394W        W17578   9.621   9.458   3.310 -0.2046 -0.1778 -0.4874
 1395W        W17579   1.099  12.113  13.603 -0.1023  0.2325 -0.1408
 1396W        W17580   1.749   9.897  13.466 -0.0562 -0.0220 -0.0502
 1397W        W17581   7.682   1.536   5.190  0.2860 -0.0086 -0.1179
 1398W        W17582  12.614  17.951   2.876  0.0145 -0.0204 -0.1937
 1399W        W17583  11.213  15.436   3.787  0.1186 -0.1443 -0.1451
 1400W        W17584   1.779  16.985   0.199  0.0340  0.0459 -0.1642
 1401W        W17585  16.339   1.256   2.298  0.0310  0.0697  0.4160
 1402W        W17586   4.174   0.632   3.077 -0.1488  0.1012 -0.0163
 1403W        W17587  11.078   7.464   0.118 -0.1441 -0.2173 -0.0213
 1404W        W17588  17.566   1.933  12.491 -0.4210  0.2647  0.0401
 1405W        W17589   9.265   1.601   2.419  0.1129  0.1864 -0.4369
 1406W        W17590  18.447   4.131  11.835  0.3213 -0.3918  0.0370
 1407W        W17591  16.719  17.786   4.512  0.0699  0.2402 -0.2155
 1408W        W17592  17.676  14.462   2.373 -0.3769  0.0130  0.0760
 1409W        W17593   5.657  12.749  12.178 -0.1356 -0.1652  0.3201
 1410W        W17594   3.310   1.345   5.190 -0.1229 -0.0980 -0.0990
 1411W        W17595   8.266  14.823  13.214 -0.2338 -0.2367 -0.0260
 1412W        W17596   6.302   5.573   3.245  0.0045 -0.3768  0.0962
 1413W        W17597  14.542   8.973   1.019  0.3345 -0.2888  0.1080
 1414W        W17598   3.979   0.704  14.697 -0.2348 -0.2378 -0.1522
 1415W        W17599  11.369  12.290  11.424  0.0149 -0.0800 -0.3592
 1416W        W17600   5.889  17.054  12.824 -0.0869  0.0812  0.1227
 1417W        W17601   3.990   9.917   3.383  0.1594 -0.2682  0.0585
 1418W        W17602   3.965   4.966   4.099  0.2545 -0.1623  0.1589
 1419W        W17603  18.843   9.424   3.264  0.1103  0.1389 -0.2459
 1420W        W17604  13.248   5.811   0.904  0.0997  0.1923  0.1943
 1421W        W17605   8.913  17.091   3.498  0.0660  0.3495 -0.1315
 1422W        W17606   1.639   5.928   0.666 -0.2899  0.2869 -0.2650
 1423W        W17607   9.585   5.616  12.741  0.2036  0.3858  0.1504
 1424W        W17608   2.183   4.452   2.132 -0.0772  0.0876  0.0178
 1425W        W17609   1.842  18.073   9.825 -0.4444  0.2245 -0.1056
 1426W        W17610   3.661  11.061   1.480  0.1586 -0.1422 -0.2593
 1427W        W17611  10.945  16.671  12.422  0.0253  0.0342  0.0441
 1428W        W17612   4.853   4.576  14.511 -0.0324 -0.1507  0.3473
 1429W        W17613  17.975  10.484   4.297 -0.2505  0.0328  0.3143
 1430W        W17614  13.080   5.249   4.432  0.0925 -0.1534 -0.1265
 1431W        W17615   7.869   7.524   3.767  0.2880  0.0741  0.0028
 1432W        W17616   0.331  18.758  12.355  0.0755 -0.1272  0.1994
 1433W        W17617  17.135   8.239  11.901  0.1401  0.0186 -0.1735
 1434W        W17618  17.567   8.991  10.942 -0.0864  0.1855  0.0559
 1435W        W17619   6.661  16.064   3.787  0.0250  0.1970  0.1120
 1436W        W17620   1.542   2.392   1.353 -0.0103 -0.1593 -0.1030
 1437W        W17621  15.315   8.787   2.147 -0.0526  0.3869  0.2823
 1438W        W17622  14.254  16.742  14.507 -0.1028  0.1710  0.1207
 1439W        W17623  15.115  17.815  13.895  0.1735  0.1664 -0.1235
 1440W        W17624   0.889  15.722   4.005  0.1232  0.4612  0.1233
 1441W        W17625  15.844   0.999   5.680  0.1218 -0.1410  0.0351
 1442W        W17626   8.383  15.530  12.059  0.0500 -0.0484  0.2787
 1443W        W17627  15.186   5.542  13.609  0.1465  0.1386 -0.0846
 1444W        W17628   9.852  17.768  12.855  0.1037  0.0020  0.0894
 1445W        W17629   5.159  12.397  12.779 -0.1043 -0.0951  0.0797
 1446W        W17630  12.640   7.390   4.438 -0.1210  0.1349 -0.2279
 1447W        W17631   6.473   1.386  10.831  0.2548  0.0505 -0.4451
 1448W        W17632  11.507  11.085  14.055 -0.0453  0.2406 -0.0868
 1449W        W17633   0.143   7.246   3.977 -0.1688  0.1615  0.0237
 1450W        W17634  17.926   3.565   4.113 -0.1956  0.2530  0.3817
 1451W        W17635  13.552  18.830   5.479 -0.3943  0.1271 -0.1811
 1452W        W17636  11.148   8.333  13.455 -0.1669 -0.3766 -0.0173
 1453W        W17637  18.631   5.903  11.619 -0.1543  0.1779  0.1064
 1454W        W17638  11.457   7.540  14.981  0.0575 -0.1425 -0.0460
 1455W        W17639   2.573  16.116  11.095 -0.0966 -0.2713 -0.1406
 1456W        W17640   9.124   8.619  14.185  0.0015  0.0698 -0.0556
 1457W        W17641   7.242  14.134  14.638 -0.0410 -0.2781 -0.1093
 1458W        W17642  16.064   3.364   2.617  0.0022  0.0282 -0.1322
 1459W        W17643  16.174  11.004  10.998 -0.1867  0.1609  0.1076
 1460W        W17644   3.501   9.121  14.029 -0.4009  0.0597 -0.2470
 1461W        W17645  18.639  12.861  14.277  0.0041  0.1495 -0.2385
 1462W        W17646   7.667  11.464   3.833  0.0418  0.3502  0.2171
 1463W        W17647   0.275  16.463   2.250  0.0817  0.0513  0.1975
 1464W        W17648   9.160   4.094  10.911 -0.1311  0.2504  0.5151
 1465W        W17649   2.553   1.561   0.150 -0.0046  0.1312  0.0493
 1466W        W17650   8.552  18.232   1.038  0.1677 -0.2839  0.0848
 1467W        W17651   2.463  12.566  12.826  0.1078  0.3120 -0.4182
 1468W        W17652   5.802   7.452   3.537 -0.2514 -0.0414 -0.2221
 1469W        W17653   3.450   0.852   1.994 -0.1458 -0.0562 -0.1114
 1470W        W17654  16.301   8.781   4.935 -0.0180 -0.0007  0.1377
 1471W        W17655   1.721   5.150   0.647 -0.0931  0.0950 -0.1511
 1472W        W17656   4.729   4.147   1.894 -0.2930 -0.1055  0.1204
 1473W        W17657   0.712  10.825   3.440 -0.1047  0.0552  0.2598
 1474W        W17658  14.370  18.436  14.169  0.1478 -0.1360 -0.1865
 1475W        W17659  13.033  12.117   1.957 -0.2689  0.1819 -0.0064
 1476W        W17660  11.529   8.375   0.641  0.1680  0.0685 -0.1257
 1477W        W17661   0.651  17.451  13.889 -0.3272  0.1474 -0.0163
 1478W        W17662   9.065  17.191   2.813 -0.1054 -0.0089  0.0115
 1479W        W17663  14.596  15.841   1.663 -0.0042 -0.0390 -0.2503
 1480W        W17664  17.186  17.146   0.874 -0.2060  0.0139 -0.0989
 1481W        W17665   8.167  15.442   4.005  0.1618 -0.1474 -0.0031
 1482W        W17666   0.828   6.765   3.949  0.0738  0.1890  0.0148
 1483W        W17667   1.549   2.785  11.072  0.3555 -0.3103  0.1272
 1484W        W17668  14.742  15.559   3.596  0.2620  0.2651 -0.0625
 1485W        W17669   7.400  15.532  12.641 -0.1263  0.1077 -0.2081
 1486W        W17670  12.071  15.624   0.362 -0.1237 -0.1856 -0.1234
 1487W        W17671  12.209  15.236   1.765 -0.2690  0.0836 -0.0640
 1488W        W17672   7.587   6.782  13.389 -0.0575 -0.1404 -0.0227
 1489W        W17673  18.120  14.161   0.020  0.0977 -0.0578 -0.2198
 1490W        W17674  17.338  15.885   1.358 -0.0844 -0.0359 -0.2428
 1491W        W17675  12.569   5.906  14.633 -0.2293 -0.0682 -0.3721
 1492W        W17676  11.169   7.353   1.512 -0.0157  0.1348 -0.0252
 1493W        W17677   4.845  10.281  14.516  0.1194  0.0542  0.4242
 1494W        W17678   8.297  18.723   4.257  0.0115 -0.0954 -0.3619
 1495W        W17679   4.534  11.692  15.423  0.0086 -0.0838 -0.0665
 1496W        W17680  12.800   6.749  14.566  0.1159 -0.2046  0.3733
 1497W        W17681   1.202   1.177   2.996  0.0251  0.0019 -0.1688
 1498W        W17682  11.431  17.061  12.963  0.1593 -0.2619  0.1716
 1499W        W17683  13.035  18.475   1.893  0.0768  0.0788  0.1451
 1500W        W17684   2.755  11.984   2.653 -0.0975 -0.2590 -0.1812
 1501W        W17685   0.848   5.909  11.603  0.1075 -0.1338  0.0303
 1502W        W17686  11.301  14.307   4.947 -0.2069  0.1810  0.2787
 1503W        W17687   9.386   9.908  11.287 -0.1940 -0.5134  0.1572
 1504W        W17688   7.553  13.742  12.970  0.3601  0.1034 -0.1207
 1505W        W17689  17.882   0.031  11.619  0.4776 -0.4132 -0.1757
 1506W        W17690   7.486  17.632  12.303  0.3541 -0.0205  0.0272
 1507W        W17691  18.239   0.553   1.685  0.1065 -0.2623  0.0704
 1508W        W17692   1.898  12.157  14.151 -0.1355  0.2242 -0.2884
 1509W        W17693  16.727   5.786  11.570  0.1293  0.0060 -0.1111
 1510W        W17694  13.286   5.233  15.301 -0.2711 -0.0257 -0.1401
 1511W        W17695   7.913  18.404  13.755 -0.0004 -0.2338  0.2482
 1512W        W17696   3.088  18.605  11.671  0.3096 -0.2979 -0.4721
 1513W        W17697  16.367  15.192  12.814 -0.0161 -0.2318  0.2334
 1514W        W17698   5.884  17.130   0.254 -0.2111 -0.0577 -0.0351
 1515W        W17699  15.515   9.524   0.015  0.1349  0.1218 -0.3307
 1516W        W17700   2.607   4.454   3.295 -0.1188 -0.0317 -0.2414
 1517W        W17701   1.275  11.350   3.395 -0.2485 -0.1118 -0.1289
 1518W        W17702   8.603  17.995  14.885 -0.1377  0.2472 -0.0844
 1519W        W17703  15.782   6.428  11.145  0.0865 -0.1058  0.1844
 1520W        W17704   3.167   9.369  14.337 -0.2996 -0.0117  0.1916
 1521W        W17705   6.904   3.050   0.389 -0.0816 -0.0484 -0.3144
 1522W        W17706  10.954  14.391   2.507  0.0009  0.1372 -0.0530
 1523W        W17707   0.525  10.174  11.662  0.1019  0.0169 -0.0735
 1524W        W17708  14.096  14.611   1.261 -0.0731  0.2285  0.1302
 1525W        W17709  18.489   6.096   0.881 -0.0951 -0.1442 -0.4558
 1526W        W17710   8.794  13.209   3.469  0.1578  0.2091 -0.0617
 1527W        W17711   0.485   3.037  13.912 -0.0583 -0.0777 -0.0846
 1528W        W17712   6.920   8.140  15.062 -0.1964  0.0098  0.0202
 1529W        W17713  16.571   4.194   0.692 -0.3295 -0.0019  0.3615
 1530W        W17714   2.650  12.210  13.185 -0.5022 -0.2319  0.1132
 1531W        W17715  12.502   6.593  10.238 -0.0856 -0.0222  0.0968
 1532W        W17716   3.169   7.043  14.903  0.1442 -0.0746 -0.1574
 1533W        W17717  14.022   9.210  11.464  0.2061 -0.2858  0.2102
 1534W        W17718  16.378  12.917  12.857  0.0383  0.1986 -0.0321
 1535W        W17719   9.060   4.966   0.340  0.1105 -0.1215  0.0481
 1536W        W17720   7.981  11.142  13.168 -0.2485  0.2316  0.1600
 1537W        W17721  11.667  17.991  15.359  0.4586 -0.1415  0.0014
 1538W        W17722  16.834  18.233   4.575 -0.0895  0.2657  0.1941
 1539W        W17723   8.528   9.514  15.229  0.3937 -0.0198 -0.0991
 1540W        W17724   6.767   7.195  12.886 -0.2895  0.1493 -0.1408
 1541W        W17725   4.164   6.135  12.960 -0.0173 -0.1377  0.2269
 1542W        W17726  16.731  18.463   2.436  0.1350 -0.4783  0.2079
 1543W        W17727  11.985   8.457   4.215 -0.1575 -0.1779 -0.0530
 1544W        W17728   9.229  12.535   0.893 -0.0535 -0.0899 -0.0373
 1545W        W17729   8.656  11.976   4.439  0.0007  0.0863  0.0881
 1546W        W17730   9.144  15.840  14.344 -0.1204 -0.1311  0.2783
 1547W        W17731  15.482   4.677  12.019  0.0155  0.3862  0.2717
 1548W        W17732  15.008   8.103   1.162  0.0422 -0.1145 -0.0093
 1549W        W17733  16.451   3.151   2.088  0.0037  0.2136 -0.1167
 1550W        W17734  13.352  13.457   5.586 -0.1829  0.0174 -0.0030
 1551W        W17735   7.714  12.173  14.345  0.2064  0.0112 -0.1382
 1552W        W17736   0.225  15.230   3.225 -0.1303 -0.0759  0.0637
 1553W        W17737   0.802   6.589   2.707  0.0096  0.0193 -0.2003
 1554W        W17738   6.759  12.471   4.084 -0.0504 -0.0603 -0.1627
 1555W        W17739  10.207   6.669  14.249 -0.0321 -0.0314  0.0095
 1556W        W17740  11.837  14.882   1.718  0.1343 -0.1176  0.0031
 1557W        W17741  11.030   6.743  15.316  0.1204 -0.3514  0.1592
 1558W        W17742  10.739   6.480   5.391 -0.0327 -0.0576  0.0897
 1559W        W17743   5.509  16.714   4.324  0.1215 -0.2535 -0.0377
 1560W        W17744  18.581   4.060  13.593  0.1054  0.1324  0.1313
 1561W        W17745   9.418   2.972   4.614 -0.0748  0.1157 -0.1561
 1562W        W17746   7.416   9.951   0.288  0.1675  0.0046  0.0151
 1563W        W17747   8.064   7.284   0.164 -0.1623  0.0307  0.0098
 1564W        W17748  10.114   0.238  11.465 -0.1844  0.1382 -0.2410
 1565W        W17749  15.743  13.002  11.079  0.1873  0.3181 -0.2922
 1566W        W17750  11.563  13.021  15.407 -0.1807  0.0281  0.2833
 1567W        W17751  11.528  12.771  13.333  0.0553  0.1418 -0.0356
 1568W        W17752   1.363   5.884   4.371 -0.1280  0.0949  0.2031
 1569W        W17753   0.085  17.573   4.121  0.0830 -0.1133  0.0775
 1570W        W17754  15.462   2.904   4.514 -0.2738  0.3147  0.0655
 1571W        W17755  14.175   6.386   0.799 -0.2435  0.1343 -0.0490
 1572W        W17756  10.622   8.653  10.981  0.2530 -0.4782  0.1043
 1573W        W17757   5.320   9.511  12.001 -0.3662  0.2888  0.1228
 1574W        W17758  18.065   5.026   1.502 -0.0719  0.2418  0.0389
 1575W        W17759  18.553   5.551  15.404 -0.0384 -0.1963  0.1564
 1576W        W17760  11.600   3.380   5.214 -0.0571 -0.1185  0.1918
 1577W        W17761   0.964   8.957   4.855  0.1838  0.0005 -0.0700
 1578W        W17762  10.601   7.884  10.922 -0.1780 -0.2198  0.2170
 1579W        W17763  16.238   8.290  14.115 -0.3932  0.3144 -0.2164
 1580W        W17764   5.318  12.578  13.472  0.2029 -0.0184  0.0002
 1581W        W17765   9.408   0.489  13.506 -0.0778  0.1753 -0.1521
 1582W        W17766   8.305   8.365   1.690 -0.2165 -0.1094 -0.0870
 1583W        W17767  13.933  18.634  11.905  0.1201  0.1106  0.1245
 1584W        W17768  14.907  10.598  14.173 -0.1537 -0.1650 -0.3184
 1585W        W17769  17.088   4.537  10.182  0.1140  0.3369  0.2220
 1586W        W17770   9.125   3.213  14.604  0.0866 -0.3419  0.0311
 1587W        W17771   3.281   6.668   0.944 -0.1394  0.2189 -0.0456
 1588W        W17772   4.189   7.198  11.211  0.0731  0.1419 -0.3528
 1589W        W17773  14.942  13.450   1.116 -0.0876 -0.2314  0.2622
 1590W        W17774  18.272   8.122   1.680 -0.4180  0.1326  0.1761
 1591W        W17775   8.922   1.110  11.164  0.1486  0.2550  0.0642
 1592W        W17776   4.715   3.392   3.040 -0.2683 -0.0132 -0.0233
 1593W        W17777   2.608  17.773   0.247  0.1118  0.2273 -0.1684
 1594W        W17778  17.014  14.358   2.963  0.2756 -0.2588  0.3827
 1595W        W17779   6.338   6.749   0.512 -0.1029 -0.3495  0.0061
 1596W        W17780   6.314   3.893   2.619 -0.1893  0.2342 -0.0382
 1597W        W17781   7.910   9.103   4.159 -0.1827  0.2282 -0.3569
 1598W        W17782   7.105   8.507  14.075 -0.1217 -0.0828  0.1875
 1599W        W17783   8.131   7.643  14.466 -0.1709  0.0952 -0.0669
 1600W        W17784   0.272  18.653   0.328 -0.3251 -0.1237 -0.1504
 1601W        W17785   8.295  18.416   3.798  0.1286  0.0997  0.1506
 1602W        W17786   4.624  17.680   4.981  0.0939 -0.3671 -0.1625
 1603W        W17787   6.029   8.486   2.607  0.0098 -0.0044 -0.0558
 1604W        W17788  10.049   6.457  13.327 -0.0398 -0.0715  0.0645
 1605W        W17789   4.099   7.037   4.393  0.1365 -0.1205  0.0518
 1606W        W17790  17.863   1.998  11.330  0.4010 -0.0283  0.2282
 1607W        W17791   8.369  17.533   4.636 -0.0031  0.0236  0.2448
 1608W        W17792   7.573   8.836   1.390 -0.1625  0.0237  0.2653
 1609W        W17793   8.174  11.484  12.414 -0.2013  0.3464  0.0023
 1610W        W17794   0.558   2.924  15.217 -0.0715 -0.3527  0.2921
 1611W        W17795   5.576  12.064   2.850 -0.2348 -0.0706 -0.1503
 1612W        W17796   3.775   2.547  12.089 -0.1359 -0.2233 -0.3428
 1613W        W17797  13.043  16.991   0.041 -0.1623 -0.0239 -0.2486
 1614W        W17798   7.920   1.634   2.443  0.1180  0.2190 -0.0034
 1615W        W17799   2.507   9.762   2.389 -0.1402 -0.0078 -0.3458
 1616W        W17800   5.767  12.814   0.562  0.2788 -0.0740  0.0163
 1617W        W17801   9.368   4.610   2.152  0.0133  0.1912  0.1911
 1618W        W17802  11.717  13.710  12.757  0.1956 -0.1156  0.1213
 1619W        W17803  10.813   5.563   5.149  0.1040 -0.2041 -0.0139
 1620W        W17804   6.258  16.788   0.324 -0.7290  0.0972  0.2411
 1621W        W17805  13.044  14.822   3.106 -0.0294  0.2062 -0.0337
 1622W        W17806   4.527  16.355   0.904 -0.1154 -0.2474 -0.1340
 1623W        W17807  16.689   8.125   4.543 -0.2971 -0.3753 -0.2608
 1624W        W17808  18.542  16.229   4.015 -0.3858 -0.0534 -0.0155
 1625W        W17809   8.852  16.242  11.706  0.0528 -0.1203 -0.0280
 1626W        W17810   3.132  11.718   1.313 -0.2051  0.4666 -0.0906
 1627W        W17811   9.567   4.206   3.873  0.0369 -0.0999  0.0626
 1628W        W17812   0.403  10.816  15.213  0.0596 -0.2359  0.1533
 1629W        W17813   6.354   8.544  13.314 -0.2786  0.0250 -0.2719
 1630W        W17814   1.902  17.966  15.163  0.1736  0.2806  0.1005
 1631W        W17815   8.760  10.212  11.477 -0.0051  0.1967 -0.1163
 1632W        W17816   1.317  17.323  14.416 -0.0719 -0.1179 -0.2742
 1633W        W17817  18.798   1.535  14.302 -0.1933  0.0412  0.0661
 1634W        W17818  10.706  18.659  13.295 -0.2277  0.0049  0.0805
 1635W        W17819   9.111   8.232  10.643  0.1026  0.2995  0.4151
 1636W        W17820  14.975   3.945  13.915  0.2900  0.0751 -0.1737
 1637W        W17821   8.688   4.706  11.405  0.1051 -0.0740 -0.2777
 1638W        W17822  12.469   1.632   3.629 -0.2238 -0.1993  0.0682
 1639W        W17823   6.441   9.797   0.496 -0.0990  0.0845  0.1542
 1640W        W17824  18.130  18.106  12.138 -0.0101 -0.3261 -0.2987
 1641W        W17825   1.025   0.112  11.698  0.1499  0.0399  0.0377
 1642W        W17826  17.824   8.219   4.067 -0.0939 -0.0792  0.3364
 1643W        W17827  16.074   5.342   3.231  0.1310  0.4117 -0.0031
 1644W        W17828  15.751   3.724   3.026  0.0113  0.3088 -0.2061
 1645W        W17829   9.697   3.828   3.575 -0.2209 -0.1566  0.0817
 1646W        W17830  17.058   6.768  14.925 -0.0829 -0.1044 -0.1628
 1647W        W17831   6.319   2.350   2.394 -0.2946  0.3893 -0.1870
 1648W        W17832   7.563  12.636   0.819  0.2698  0.1382  0.0169
 1649W        W17833  10.505   2.687   4.998 -0.1146 -0.0265 -0.0045
 1650W        W17834  16.684  15.144  14.669  0.3991  0.1886 -0.1105
 1651W        W17835  11.315  15.385   1.509 -0.0399 -0.0155 -0.1593
 1652W        W17836   8.361   1.830   3.687  0.1882  0.1344 -0.2682
 1653W        W17837  18.623  16.564   2.051  0.1353  0.3809 -0.0153
 1654W        W17838   8.018  16.641  15.357  0.1834 -0.1017 -0.0948
 1655W        W17839  16.435  17.846   1.871 -0.0604  0.1879 -0.2807
 1656W        W17840   2.589  16.695   1.483  0.2784  0.0860 -0.0031
 1657W        W17841   2.597   3.524  10.550 -0.0018  0.2752  0.0717
 1658W        W17842  15.618   5.331   4.581 -0.3032  0.0826  0.3806
 1659W        W17843   1.601   9.509   4.377 -0.1049 -0.2290 -0.1946
 1660W        W17844   8.744   8.879   1.060  0.1339 -0.2314  0.4325
 1661W        W17845   4.745  15.952  10.634  0.0628  0.2825 -0.0163
 1662W        W17846   7.823  10.570   3.117 -0.2148  0.0644 -0.1311
 1663W        W17847  13.832   7.962   1.790 -0.1919 -0.1451  0.0319
 1664W        W17848   2.230   8.742  14.869  0.1913 -0.1313 -0.0946
 1665W        W17849   0.467   1.264  13.545 -0.2820 -0.2739 -0.0286
 1666W        W17850  13.605  15.033   0.460  0.0289  0.3406 -0.2255
 1667W        W17851  13.083   8.740  15.277 -0.0752 -0.2511  0.0683
 1668W        W17852   7.361   5.962   4.853  0.1330 -0.1256 -0.1430
 1669W        W17853   1.949   3.034   0.778  0.2239  0.0068  0.2070
 1670W        W17854   5.938  13.614   0.242  0.2160 -0.2101  0.0124
 1671W        W17855  16.784  16.035  13.678 -0.1783  0.2596 -0.0408
 1672W        W17856  13.522  17.423   5.695  0.0756  0.3936 -0.2621
 1673W        W17857   6.212   8.019   3.268 -0.1037 -0.1606  0.0638
 1674W        W17858   1.565  18.507  13.876  0.2199 -0.1836  0.0969
 1675W        W17859   4.529  12.508   4.028  0.0723 -0.1314 -0.1257
 1676W        W17860   5.835  11.699   3.171 -0.0556 -0.1490 -0.0190
 1677W        W17861   5.664   6.890   1.900  0.1744  0.0163 -0.2283
 1678W        W17862   8.162   2.050  12.003 -0.6240  0.1825 -0.1763
 1679W        W17863   5.421  11.529   5.182  0.1547  0.1395  0.1118
 1680W        W17864  16.342  17.234   2.034  0.2521 -0.2948  0.0902
 1681W        W17865   4.081  10.469   2.754  0.0791 -0.1302 -0.0297
 1682W        W17866   1.618  15.159   5.283 -0.0586 -0.0765 -0.0172
 1683W        W17867  15.085  10.657   2.864  0.0565 -0.3111 -0.1019
 1684W        W17868  10.205  16.290  15.027 -0.0857  0.1079  0.1876
 1685W        W17869   8.847  15.068   0.223 -0.1325 -0.2394  0.2546
 1686W        W17870   1.184  15.604   3.570 -0.1009 -0.1339 -0.1091
 1687W        W17871   3.683  16.043   2.961  0.1636  0.4444 -0.3682
 1688W        W17872  11.921   2.584   3.397 -0.1110  0.4416  0.4096
 1689W        W17873   6.964   6.014   3.023 -0.1040  0.1273 -0.3422
 1690W        W17874   2.192   0.340   2.312  0.0694 -0.0221  0.0073
 1691W        W17875  17.706   4.586   0.466 -0.3299  0.0961  0.0866
 1692W        W17876  13.102   9.324   4.103  0.0507 -0.0573 -0.0041
 1693W        W17877  16.677   6.297   3.848  0.1133  0.0157 -0.0300
 1694W        W17878  16.177  14.859   4.158 -0.2764 -0.0644  0.0552
 1695W        W17879   7.722  16.648   0.742  0.0891  0.1556  0.3492
 1696W        W17880   6.942  12.137  12.365  0.0668 -0.0590 -0.1163
 1697W        W17881  10.401  14.974   4.450  0.1154  0.3175 -0.1408
 1698W        W17882  10.301   1.688   1.581 -0.1765  0.0375  0.0776
 1699W        W17883   8.477   5.149   0.297 -0.0115  0.0143 -0.1935
 1700W        W17884  11.754  10.585  12.291  0.2065 -0.2359 -0.1395
 1701W        W17885  17.447  15.884   2.425 -0.1737 -0.0408 -0.1547
 1702W        W17886  11.168   9.883   2.041 -0.1310 -0.0140  0.3560
 1703W        W17887   0.901   0.796   3.852  0.1218 -0.0625 -0.2246
 1704W        W17888  12.495   3.854  14.865  0.0616  0.1913 -0.1255
 1705W        W17889  14.945   3.909   5.273  0.1993  0.3392  0.2956
 1706W        W17890   8.324   0.338  12.621 -0.1680 -0.0149 -0.3301
 1707W        W17891   8.707   1.889   4.132  0.0215 -0.1592  0.3605
 1708W        W17892  10.851   4.816   3.723 -0.1989  0.2851 -0.0010
 1709W        W17893   9.466  14.840   1.892  0.2005 -0.2848  0.3323
 1710W        W17894   9.992   8.734  13.913 -0.2996  0.0785  0.0708
 1711W        W17895  17.841   2.920   0.720 -0.0119  0.2631  0.0527
 1712W        W17896  15.121   6.122  15.459 -0.1600 -0.0638 -0.1540
 1713W        W17897   6.778   8.347  13.612  0.0293 -0.3505  0.1736
 1714W        W17898  11.269   1.461  11.982 -0.1081 -0.1549  0.0512
 1715W        W17899   7.464  17.033   2.411 -0.3129 -0.1074 -0.0871
 1716W        W17900  10.782   7.899  12.064  0.0566 -0.1425  0.2964
 1717W        W17901   5.418   6.827   1.415  0.1426 -0.0714  0.0373
 1718W        W17902  18.736  14.257  11.303  0.0227  0.3116  0.0027
 1719W        W17903  15.064  10.121   2.880 -0.0834 -0.0749  0.0602
 1720W        W17904   1.553  10.139  13.076  0.0387  0.1392  0.1810
 1721W        W17905  14.778  16.981   3.403  0.3960  0.0331 -0.1016
 1722W        W17906  14.437  15.486  13.080 -0.0735 -0.3107  0.2353
 1723W        W17907   7.667  16.118   3.307 -0.0577 -0.0798 -0.2103
 1724W        W17908   5.819   2.771   0.948  0.1148  0.0631  0.0669
 1725W        W17909  14.607  12.764   2.431  0.5422 -0.0287  0.2646
 1726W        W17910  13.224   0.276   5.119 -0.0204 -0.1268 -0.0868
 1727W        W17911   2.504  18.489   1.300 -0.0046  0.1386  0.1801
 1728W        W17912   3.516  10.237   1.134 -0.0552  0.1350  0.3281
 1729W        W17913  11.277  18.026  11.866  0.3357 -0.0744 -0.0182
 1730W        W17914   6.604  15.735   2.274 -0.0892  0.0010  0.1524
 1731W        W17915   5.658   4.504  13.827  0.2548 -0.0778 -0.3081
 1732W        W17916  14.005   0.108   3.832  0.0425  0.1773  0.0360
 1733W        W17917   1.678  16.149   4.320  0.0224 -0.0913 -0.2114
 1734W        W17918   7.484  17.172   4.371  0.0702 -0.0543 -0.1321
 1735W        W17919   0.685   4.709  14.395  0.1151 -0.1139  0.3162
 1736W        W17920  15.239  15.139  14.455 -0.0909 -0.3113  0.0682
 1737W        W17921  17.385   1.669  12.907 -0.1209 -0.2198 -0.2270
 1738W        W17922   5.648   1.937   4.662 -0.2636 -0.1158 -0.0026
 1739W        W17923   8.431   6.781   3.799 -0.1525  0.3454  0.1522
 1740W        W17924  18.708  10.204  14.040  0.1652  0.2801  0.1355
 1741W        W17925  11.307   2.333   0.144 -0.1018  0.0082  0.0676
 1742W        W17926  12.437   2.863  13.683 -0.0821 -0.2885  0.2765
 1743W        W17927   4.284   9.359   1.708 -0.2111 -0.3457  0.2148
 1744W        W17928  15.997  17.029   0.461 -0.2025  0.1071  0.0797
 1745W        W17929   5.655   5.232   4.643  0.1235  0.0317 -0.1266
 1746W        W17930   4.151  17.636  13.845 -0.1758 -0.1320  0.0820
 1747W        W17931   3.638  16.921   0.420 -0.0448  0.0498  0.0455
 1748W        W17932  16.681  12.199  14.271  0.2019  0.1246  0.0769
 1749W        W17933  16.216  13.077   1.813  0.2806  0.0972 -0.1532
 1750W        W17934   0.894  11.249   0.126 -0.0114  0.0925  0.0429
 1751W        W17935   6.084   6.060   1.192  0.2305  0.0195 -0.1074
 1752W        W17936   5.140  16.061  13.647  0.1603  0.2470 -0.1257
 1753W        W17937   0.168  15.751   1.432 -0.1627 -0.0029 -0.0515
 1754W        W17938   3.943   3.876  11.322  0.2324  0.0333 -0.0514
 1755W        W17939  16.684  15.191   2.155 -0.4242 -0.1755  0.2182
 1756W        W17940   5.731  10.803   4.785 -0.1188  0.1244  0.1246
 1757W        W17941   4.121   6.841  10.870 -0.1152 -0.2192 -0.2738
 1758W        W17942  11.382   9.808  15.173 -0.0938 -0.0431  0.1821
 1759W        W17943  11.608  13.161   1.433  0.0328  0.0614  0.2740
 1760W        W17944   9.015   1.153  14.625 -0.4438  0.0299  0.1178
 1761W        W17945  17.515   6.390   4.096 -0.0762 -0.1421  0.1089
 1762W        W17946   2.832  18.470  10.465 -0.0941 -0.1115 -0.1377
 1763W        W17947   9.035  12.109   9.564  0.3166  0.2881  0.0193
 1764W        W17948   2.544  13.846   3.097 -0.1180 -0.1124  0.0839
 1765W        W17949  18.382   2.354  15.393  0.1747  0.0235  0.0625
 1766W        W17950  16.691   5.237  15.249 -0.5242 -0.3040  0.2077
 1767W        W17951  13.883  18.541  11.021  0.1524 -0.1630  0.0487
 1768W        W17952  11.267   1.623   4.672  0.4987  0.2194  0.0238
 1769W        W17953  15.299  18.723   4.377  0.0629 -0.1298  0.1533
 1770W        W17954   8.538  13.096  13.437 -0.0840  0.2277 -0.1054
 1771W        W17955  16.809   5.514   2.363 -0.1719 -0.1985  0.1393
 1772W        W17956  10.203  13.132   2.577 -0.2476  0.0831  0.2048
 1773W        W17957   2.775   6.424   4.476 -0.1509 -0.4762  0.1260
 1774W        W17958   0.845   7.460  10.941  0.2018  0.1836  0.0189
 1775W        W17959  12.979  13.372  11.412 -0.0112  0.1292  0.3645
 1776W        W17960  11.201  18.846   3.477  0.5224  0.2404 -0.0246
 1777W        W17961   7.982  10.555   4.860 -0.1579  0.3407  0.1031
 1778W        W17962   9.000  12.354   4.518 -0.0437  0.2181 -0.1765
 1779W        W17963   1.839  18.429   1.751  0.3612  0.3610 -0.0974
 1780W        W17964  10.730  11.276   4.301  0.1480  0.0990  0.1512
 1781W        W17965  10.941  12.676   5.074 -0.1690  0.3493  0.1471
 1782W        W17966   4.811   2.707  13.627  0.0172 -0.2063 -0.2327
 1783W        W17967   4.401  12.083  11.519  0.1097  0.1384 -0.1354
 1784W        W17968   8.803   3.841   6.293 -0.1731  0.0438  0.1482
 1785W        W17969   3.673  18.791  13.885 -0.1504 -0.2363 -0.0461
 1786W        W17970   3.667   9.154  15.063  0.1650 -0.0635  0.2998
 1787W        W17971   3.250  14.737   1.703  0.0949 -0.1188  0.0051
 1788W        W17972   7.883   5.488   4.136  0.3206 -0.0025  0.1795
 1789W        W17973  16.045   1.480   2.651 -0.2156 -0.0837 -0.0921
 1790W        W17974   9.988  17.025  12.292 -0.2092 -0.0259  0.1770
 1791W        W17975   5.857  15.624  13.336  0.0753 -0.1648 -0.1661
 1792W        W17976   8.107   4.571   5.109 -0.0936 -0.0757  0.3721
 1793W        W17977   3.653  11.307   5.799  0.1575 -0.0812 -0.4134
 1794W        W17978   0.022   5.348   2.990  0.2354  0.1009  0.2968
 1795W        W17979  12.635  12.883   3.966 -0.1882  0.0929  0.0178
 1796W        W17980   0.528  16.976   5.182  0.4189  0.0245 -0.1464
 1797W        W17981  15.325  15.510  11.240 -0.1543  0.0372 -0.0482
 1798W        W17982  13.455  17.466  13.619 -0.2027  0.2843 -0.1270
 1799W        W17983   4.765   1.528   2.256 -0.1006  0.0370  0.0800
 1800W        W17984  18.688  12.739  11.185 -0.2019 -0.1877  0.0624
 1801W        W17985  17.584  14.770  11.615  0.0181 -0.2771  0.0421
 1802W        W17986  10.188  14.228   3.875  0.1216  0.2633  0.2327
 1803W        W17987   8.877   5.421  12.730  0.1481  0.0886 -0.3104
 1804W        W17988   1.461   5.604   3.961 -0.0054 -0.0823  0.0377
 1805W        W17989   7.252  12.834  15.165  0.1769 -0.4550  0.0418
 1806W        W17990   4.036  15.488  12.237  0.2235  0.0686  0.1257
 1807W        W17991   2.867   0.119   2.147 -0.0528 -0.2036 -0.1936
 1808W        W17992   1.099  17.434   0.843  0.0529 -0.2684  0.0027
 1809W        W17993   1.314   0.220   2.055 -0.0990 -0.0143 -0.2522
 1810W        W17994   2.625   0.121   2.602 -0.0125 -0.1009  0.0137
 1811W        W17995  10.449   1.830  15.528  0.2108  0.0160 -0.1664
 1812W        W17996   6.313  12.528  14.442 -0.0560 -0.1306  0.1080
 1813W        W17997  12.929   9.264   3.620  0.1203  0.2738 -0.0255
 1814W        W17998  15.425   7.256  10.590  0.0791 -0.2441 -0.0997
 1815W        W17999   4.988  18.676  14.953  0.0931 -0.4019  0.1638
 1816W        W18000   8.829   3.522   0.848  0.1914 -0.0669 -0.3058
 1817W        W18001  15.004  12.295   0.285 -0.3722 -0.2116 -0.1276
 1818W        W18002   3.415  14.552  12.243 -0.0761  0.1511 -0.1058
 1819W        W18003   2.013   4.705  12.429  0.1473 -0.0811  0.3279
 1820W        W18004  15.857   8.501  12.259  0.0082  0.1230 -0.0614
 1821W        W18005   0.782   9.923   4.456  0.1345 -0.1648  0.0894
 1822W        W18006  11.206  16.319  15.294 -0.1516  0.0845  0.3409
 1823W        W18007   5.391   2.929  12.063 -0.0550 -0.1207  0.2966
 1824W        W18008  16.026  14.068  11.171 -0.0422 -0.1511 -0.0435
 1825W        W18009  16.171   4.154   4.806  0.1589 -0.2148  0.2720
 1826W        W18010  15.249  12.113   3.619 -0.0355 -0.0483 -0.1194
 1827W        W18011   6.793   6.106  11.715 -0.2389  0.2323 -0.0814
 1828W        W18012   4.409   3.618  13.592  0.1153  0.3672 -0.0129
 1829W        W18013   6.245   0.122  15.172  0.1892 -0.1344  0.3452
 1830W        W18014   5.033   6.527   2.548 -0.2161  0.4240 -0.2205
 1831W        W18015   7.755  12.770  12.045 -0.3314 -0.0132 -0.1802
 1832W        W18016   4.376   9.118   4.713  0.3299 -0.3185  0.5117
 1833W        W18017  17.415   2.859  14.686  0.3090  0.1513  0.1841
 1834W        W18018   9.897   1.101  13.004  0.2083  0.0983  0.4157
 1835W        W18019   8.810   2.276   1.034 -0.2511 -0.0629 -0.0113
 1836W        W18020  10.942  16.310  14.846  0.1362 -0.0393  0.0373
 1837W        W18021   8.621  11.377   2.328  0.0065 -0.2557  0.1485
 1838W        W18022  18.813   5.199  12.772  0.1400  0.0449 -0.0610
 1839W        W18023  15.351   0.478  14.679  0.0504 -0.0494  0.0035
 1840W        W18024   7.139  12.023   1.264  0.0521 -0.0248  0.2233
 1841W        W18025  16.705   4.350  10.604 -0.0610  0.0691 -0.1210
 1842W        W18026   0.664  17.105   5.677  0.3818  0.1970 -0.1177
 1843W        W18027   1.160   4.018   0.425  0.0396  0.2788  0.0509
 1844W        W18028  16.780   8.230  14.817  0.0335  0.1075  0.3836
 1845W        W18029  17.605  16.835  13.224  0.1525  0.1919 -0.1318
 1846W        W18030   5.502   2.916   4.096  0.0944  0.0092 -0.0935
 1847W        W18031   6.342  13.306   0.155 -0.0281 -0.0180 -0.0772
 1848W        W18032  15.967  10.695   0.519 -0.1712  0.0282 -0.0646
 1849W        W18033  18.528  12.893  14.804  0.2342  0.1356  0.1133
 1850W        W18034  10.467   7.477  13.378 -0.1723  0.3582  0.0356
 1851W        W18035   8.005   6.598  10.410 -0.0094 -0.0709  0.0090
 1852W        W18036   5.118  13.881   4.794 -0.0356 -0.1212 -0.1283
 1853W        W18037  12.324   3.601  10.809 -0.2680  0.1569 -0.0654
 1854W        W18038  16.149  13.356  12.876 -0.1176 -0.3377  0.1341
 1855W        W18039   8.511  17.300   3.451  0.2122  0.1978 -0.0714
 1856W        W18040  14.030  12.467   4.841  0.0432 -0.1760  0.1314
 1857W        W18041   7.007  11.804  10.187  0.4212  0.1301 -0.2504
 1858W        W18042  16.767   9.381  11.468  0.1279 -0.1102  0.1780
 1859W        W18043   3.906   0.844   2.288 -0.0286 -0.2310  0.0782
 1860W        W18044  14.495   1.270   1.892 -0.0076  0.0195  0.3392
 1861W        W18045   4.819  11.494   0.297  0.2415 -0.0591 -0.1008
 1862W        W18046   1.085   6.110  10.776 -0.2229  0.0756  0.1494
 1863W        W18047   4.661   2.447  12.978 -0.0398 -0.1515 -0.0745
 1864W        W18048  18.806  11.355  14.584  0.1107  0.0247 -0.1633
 1865W        W18049   3.140   4.315  14.970  0.2367  0.0389 -0.0915
 1866W        W18050   9.509  13.066   3.680  0.1910  0.0373  0.6245
 1867W        W18051   7.840   0.413   3.291 -0.1675  0.2501  0.1572
 1868W        W18052   5.788  10.505  14.683  0.1293 -0.3589  0.1220
 1869W        W18053   3.349   0.205   1.993 -0.1207 -0.1334 -0.2198
 1870W        W18054   7.953   3.318   5.920 -0.0803 -0.2085 -0.1140
 1871W        W18055  10.929   2.730   1.023  0.3257 -0.1951  0.0334
 1872W        W18056  13.525   5.182   4.907  0.1216  0.0168  0.1516
 1873W        W18057   3.631   3.956   4.907  0.0417  0.1909 -0.0256
 1874W        W18058   3.850   4.407   4.798  0.0006  0.0322  0.3487
 1875W        W18059  17.563  18.310  11.834 -0.3428 -0.0961 -0.0454
 1876W        W18060   3.334  18.511   1.677 -0.0465 -0.3944  0.0794
 1877W        W18061  12.194  18.214   4.170 -0.0035 -0.2712 -0.1007
 1878W        W18062  11.564   9.749  13.819 -0.3805 -0.0821 -0.0832
 1879W        W18063  12.312  14.341  15.099 -0.1278  0.1972 -0.0959
 1880W        W18064   0.041   4.860  11.060 -0.3769  0.2179  0.0542
 1881W        W18065  10.847  10.852   1.803  0.0190  0.3258  0.0145
 1882W        W18066   5.255   2.268   4.789 -0.3207  0.1295  0.1148
 1883W        W18067  15.813  12.869   4.781 -0.1470  0.1708  0.0363
 1884W        W18068  16.210   6.591   4.446  0.0039  0.0260 -0.1426
 1885W        W18069  18.374  15.974  14.109 -0.1804  0.0825 -0.0660
 1886W        W18070  13.004   6.809  11.411 -0.0003 -0.2208 -0.1109
 1887W        W18071   8.988   2.166   3.000  0.1547 -0.1772 -0.0769
 1888W        W18072   7.248  18.725   1.902  0.2027 -0.1651  0.2311
 1889W        W18073  14.852  13.205   0.660  0.1384 -0.1130  0.2287
 1890W        W18074  13.726   8.684   1.341 -0.0220  0.0742 -0.2652
 1891W        W18075   8.758   2.345  13.489  0.1870 -0.1196 -0.0533
 1892W        W18076  14.666   9.151  13.386  0.1919  0.1354 -0.2647
 1893W        W18077  15.989   4.733  15.328 -0.2111  0.1572 -0.1040
 1894W        W18078  12.758  14.967  13.713 -0.1001  0.1018 -0.2700
 1895W        W18079   2.321  16.396   4.274  0.2227 -0.2645  0.1848
 1896W        W18080   7.864   4.835   1.193  0.3073 -0.0973 -0.3566
 1897W        W18081   3.698  18.033   1.829 -0.2381 -0.1769  0.0593
 1898W        W18082  14.842  15.175  11.653  0.1445 -0.0199  0.2192
 1899W        W18083  11.923   8.749   0.717 -0.0994  0.0531  0.0952
 1900W        W18084   2.616   3.718   3.231 -0.0008 -0.4222  0.1495
 1901W        W18085  16.766   3.942   3.723 -0.1527 -0.0585 -0.0529
 1902W        W18086  17.110   7.708  11.876  0.0903  0.1275  0.2151
 1903W        W18087   9.477  18.450   0.087 -0.0015 -0.0941 -0.0404
 1904W        W18088  16.092  13.231  12.404  0.0197  0.1861  0.4290
 1905W        W18089  12.177  15.335  14.167 -0.0038 -0.3111  0.2495
 1906W        W18090  11.837  16.748   1.648 -0.3216 -0.2112 -0.2779
 1907W        W18091  18.078  18.124   4.338 -0.2832 -0.0692  0.0294
 1908W        W18092  17.958   1.706  10.943 -0.0557 -0.0434 -0.0622
 1909W        W18093  16.067  10.155   4.450  0.0425  0.2634 -0.2494
 1910W        W18094   3.677  10.594  11.209 -0.0825 -0.2030  0.1207
 1911W        W18095   7.412  13.994   4.759 -0.0552 -0.2035 -0.1009
 1912W        W18096  11.763  15.109  13.933 -0.2523 -0.2867 -0.0227
 1913W        W18097   3.559  17.573  14.607 -0.1065  0.0229  0.0106
 1914W        W18098   3.272  14.230   0.024 -0.0053  0.0113 -0.0924
 1915W        W18099   7.075  17.468   2.175  0.0571 -0.0075  0.2755
 1916W        W18100   5.416   2.662  14.478  0.1029 -0.5236  0.2244
 1917W        W18101   7.713  11.006  14.909  0.4558 -0.2725 -0.0311
 1918W        W18102   6.631   5.193  14.444  0.1411  0.1240 -0.0658
 1919W        W18103  17.558  11.719   0.681 -0.1612 -0.0798 -0.1473
 1920W        W18104   9.066   9.216   0.926  0.2299 -0.2719  0.0959
 1921W        W18105  12.047   1.137   5.890  0.0969  0.0982 -0.1249
 1922W        W18106   4.463   8.029   4.455 -0.0567  0.0633 -0.0616
 1923W        W18107   3.234  14.232  14.653  0.0846 -0.0872  0.2617
 1924W        W18108  12.015   9.346   3.159 -0.0965 -0.2375 -0.1520
 1925W        W18109  14.588  14.064   4.513  0.2760 -0.0340  0.0470
 1926W        W18110  15.477   7.498  12.970 -0.3231 -0.0508  0.3876
 1927W        W18111   5.487   7.777  13.551  0.1581  0.3384 -0.0227
 1928W        W18112   9.519   1.631  12.250  0.3334  0.1637  0.0657
 1929W        W18113  11.577   7.408   5.494  0.2082  0.0836 -0.1011
 1930W        W18114   0.855  10.679   5.127  0.1903 -0.1179 -0.2757
 1931W        W18115   0.954   4.266  14.379  0.0128  0.2457  0.1438
 1932W        W18116   6.473  17.795  13.694 -0.0442 -0.0372  0.0784
 1933W        W18117   1.431  14.493  11.942  0.0263 -0.0734  0.3447
 1934W        W18118  17.623   4.531   0.928 -0.1915  0.0140 -0.0713
 1935W        W18119   2.384   7.726  13.329 -0.1351 -0.2348  0.3357
 1936W        W18120  11.734   3.762  12.853  0.1105  0.0182  0.1301
 1937W        W18121  15.033   2.377   5.566 -0.2856 -0.2105  0.1653
 1938W        W18122  17.590   0.732   3.469 -0.1422 -0.2095 -0.0906
 1939W        W18123  14.905  12.367   0.831 -0.2676  0.0062  0.1150
 1940W        W18124   4.560   3.323   5.097  0.1644  0.0766 -0.1325
 1941W        W18125   9.163   4.674   5.494  0.0713  0.2602  0.3060
 1942W        W18126   1.890   4.539  11.510 -0.0163  0.2265 -0.2357
 1943W        W18127  11.345  13.310   0.543 -0.0184 -0.3123 -0.0824
 1944W        W18128   0.830  12.439   1.166 -0.1791  0.3801  0.1442
 1945W        W18129  12.596  10.805   2.339  0.2400 -0.1201 -0.0290
 1946W        W18130   2.093  14.614  14.096  0.2247  0.0918 -0.0026
 1947W        W18131   7.872   3.318   3.525  0.0079 -0.0376  0.0288
 1948W        W18132   4.576  18.600  14.430  0.3727  0.2641  0.3868
 1949W        W18133   4.306  16.007   2.591  0.1744  0.0144 -0.1967
 1950W        W18134   9.024  11.340  15.039 -0.1025 -0.4690 -0.0991
 1951W        W18135   9.899  12.322  13.219 -0.0438  0.0387  0.0834
 1952W        W18136   6.291  12.241   1.697 -0.0487  0.1675  0.2754
 1953W        W18137  16.929   5.538  14.926 -0.2897  0.2286 -0.1612
 1954W        W18138   4.361  17.150   4.820  0.0367 -0.0040  0.0560
 1955W        W18139  17.840   1.717   2.190 -0.1715 -0.2695 -0.0480
 1956W        W18140  18.229  10.518   2.053 -0.1672  0.1390 -0.2624
 1957W        W18141  15.028   6.044   5.046  0.1438  0.1541 -0.0710
 1958W        W18142   6.572  17.106  15.042 -0.0307  0.2804 -0.2802
 1959W        W18143   9.839   1.735  13.939 -0.0507 -0.1724  0.5575
 1960W        W18144   2.690   6.859  12.933 -0.2762  0.0476  0.1179
 1961W        W18145  18.375  18.265   3.873  0.0450 -0.2782  0.0822
 1962W        W18146   8.743  12.764   3.703 -0.2956  0.0321  0.0119
 1963W        W18147  10.179  12.977   4.798  0.2315  0.0944 -0.2273
 1964W        W18148  15.737   9.448  13.502  0.1401  0.1950 -0.0155
 1965W        W18149  16.117  17.186   5.743 -0.1130 -0.0475 -0.2853
 1966W        W18150  13.476  18.243  13.151 -0.0511 -0.4222  0.3872
 1967W        W18151   4.488  18.275  13.286 -0.1561  0.1684 -0.0011
 1968W        W18152   4.229  11.756  14.996  0.0054 -0.0195  0.2136
 1969W        W18153   2.869   3.097  10.482  0.3069 -0.0167 -0.0637
 1970W        W18154  18.764   3.813   1.385  0.2335 -0.1638 -0.0972
 1971W        W18155  16.546  14.544   4.343 -0.1629  0.1768 -0.3173
 1972W        W18156   6.298   2.529   2.931  0.0730 -0.2014 -0.0963
 1973W        W18157  10.844  12.967  11.971  0.4539 -0.0783 -0.1070
 1974W        W18158   9.081  12.999   3.952  0.0892 -0.2824  0.0254
 1975W        W18159   1.255   6.720  13.804 -0.0970 -0.3679 -0.0011
 1976W        W18160   9.187   3.732   1.109 -0.3257 -0.1030  0.0100
 1977W        W18161   7.388   3.698  11.785 -0.1644 -0.3124 -0.2002
 1978W        W18162  15.885   3.540   0.454 -0.2470 -0.0617  0.0713
 1979W        W18163  14.252   8.740  13.665 -0.1072 -0.2128  0.1501
 1980W        W18164   6.320  18.654   2.278 -0.2027  0.2125  0.0596
 1981W        W18165  16.233  12.289   3.179 -0.1320 -0.1011 -0.1174
 1982W        W18166   5.100  10.891   1.096 -0.3226  0.1801 -0.0072
 1983W        W18167   7.890   4.383  11.887  0.0341  0.0177  0.0373
 1984W        W18168  16.822  10.820   9.635 -0.0527 -0.0432  0.2678
 1985W        W18169   4.119   1.670  12.552 -0.0429  0.2950 -0.2522
 1986W        W18170  14.752   1.508   1.529  0.0062  0.0354  0.0090
 1987W        W18171   8.659  12.806   4.379 -0.4087 -0.0629 -0.1613
 1988W        W18172  16.544   3.420  13.090  0.3537  0.1140 -0.2909
 1989W        W18173   9.880  13.565   1.912 -0.0731  0.1750 -0.0006
 1990W        W18174   6.377   5.407   1.758  0.2091 -0.2404  0.0794
 1991W        W18175   2.463   7.478   1.359  0.1232 -0.2642  0.0218
 1992W        W18176  11.165   3.739  12.728  0.1992  0.0987 -0.1179
 1993W        W18177   0.685  10.187  13.177  0.0665  0.1170 -0.0821
 1994W        W18178  14.509   4.627  14.482  0.2736  0.0908 -0.0801
 1995W        W18179   7.357  17.004   2.908  0.2565 -0.0359 -0.0769
 1996W        W18180   1.187  15.310   3.098  0.0461  0.1521  0.3247
 1997W        W18181  10.258  12.396   2.065 -0.0010  0.2517  0.1161
 1998W        W18182  10.086  15.009  14.448 -0.1734  0.7019  0.0157
 1999W        W18183   6.414   9.120   2.032 -0.3089  0.0611 -0.0096
 2000W        W18184   4.370  14.305  15.341  0.0628  0.0932 -0.1421
 2001W        W18185   6.498  16.805   2.310 -0.1442  0.2155  0.0571
 2002W        W18186  18.194   2.712  10.897  0.0411  0.1895  0.1766
 2003W        W18187   6.839   0.206   3.554 -0.2288  0.2215 -0.3503
 2004W        W18188   5.892  12.444   2.720  0.0656  0.0310  0.1489
 2005W        W18189   9.522   5.570   1.381  0.1752 -0.0729  0.2144
 2006W        W18190  16.780  13.110   3.154 -0.0924  0.1227 -0.1378
 2007W        W18191   9.205   3.789  11.410  0.0797 -0.2235  0.0078
 2008W        W18192   5.166   9.895  14.651 -0.3949 -0.2017 -0.0845
 2009W        W18193  18.280  13.969  10.534 -0.3008 -0.1864 -0.1119
 2010W        W18194   6.020  11.941  15.182  0.3411  0.1501  0.0563
 2011W        W18195   5.730   9.746   2.733  0.1939 -0.2949 -0.0499
 2012W        W18196   7.314  18.522   2.471 -0.3636 -0.1040 -0.0212
 2013W        W18197   0.346   6.839   4.810 -0.0596 -0.0759  0.1050
 2014W        W18198   7.474   0.085   4.223  0.0732  0.0546  0.0934
 2015W        W18199   4.838  10.250  13.908  0.4064  0.0747  0.3288
 2016W        W18200  16.249  16.717  14.985 -0.0016  0.0659  0.3181
 2017W        W18201   6.886   3.597   2.569 -0.2263 -0.0141 -0.1218
 2018W        W18202   2.810  16.194   5.048  0.0392 -0.2728  0.0443
 2019W        W18203   1.987   8.446   0.731 -0.3256 -0.2468 -0.2202
 2020W        W18204  10.656   7.151  15.476 -0.3825 -0.0898 -0.1409
 2021W        W18205  10.779  11.809   0.252 -0.1712  0.1039  0.2982
 2022W        W18206   3.241   4.669  12.372  0.1956  0.0575  0.4309
 2023W        W18207  12.757  10.733   4.003  0.1565 -0.1833  0.0046
 2024W        W18208   6.083  18.406   4.377 -0.0182 -0.0246  0.2315
 2025W        W18209  12.858   0.097  11.974  0.0978  0.0635  0.2295
 2026W        W18210   5.209   0.280  13.558  0.0287 -0.0408 -0.0467
 2027W        W18211   5.734   1.167   3.739  0.1749  0.1309  0.0349
 2028W        W18212  12.022   6.439  12.704 -0.0307  0.0082  0.0399
 2029W        W18213  10.665  13.875  13.044  0.2488  0.1737 -0.2518
 2030W        W18214   3.359  18.167   0.740 -0.0133 -0.2024 -0.1271
 2031W        W18215  14.373  14.943   4.623  0.1563  0.0473 -0.2040
 2032W        W18216  17.993  18.744   2.063  0.1215  0.1102  0.2968
 2033W        W18217  16.564   4.251   1.902  0.1428  0.0253 -0.0472
 2034W        W18218   2.117   1.827   1.713  0.0110 -0.0324 -0.0517
 2035W        W18219   0.232  10.611   3.532  0.0211 -0.1433  0.0189
 2036W        W18220  14.167   9.216   4.974  0.4155  0.0286  0.0055
 2037W        W18221  13.879   5.073   2.604  0.1276  0.0830 -0.0776
 2038W        W18222  12.805  15.808  15.293  0.1258 -0.1063 -0.1791
 2039W        W18223  10.806   9.235   4.423  0.1288 -0.0382 -0.1822
 2040W        W18224  10.198  15.448  12.674  0.0525 -0.0079 -0.1036
 2041W        W18225  16.501   0.637  11.124 -0.0819 -0.1054 -0.2414
 2042W        W18226   8.212  13.049   1.637  0.1761 -0.0977  0.1076
 2043W        W18227  13.904   3.998   1.242 -0.0330 -0.0192 -0.1663
 2044W        W18228   7.607   0.174  11.059  0.2033  0.0353 -0.0097
 2045W        W18229   3.471   9.621   0.543  0.0409 -0.0679  0.2196
 2046W        W18230   3.102   3.502  14.451 -0.3007 -0.0111 -0.1877
 2047W        W18231  14.194  15.817  13.970 -0.1640  0.1790  0.0222
 2048W        W18232  11.387   2.700   0.554 -0.1633 -0.1102  0.2842
 2049W        W18233  12.511   7.359  13.394 -0.2519 -0.1809 -0.0275
 2050W        W18234   1.869  15.351   3.849 -0.1164  0.1057 -0.1247
 2051W        W18235  15.933   4.051   4.313 -0.2563 -0.2892  0.1245
 2052W        W18236   6.446   8.869  12.406 -0.1850 -0.0740  0.1240
 2053W        W18237  11.229   6.006  14.326  0.5109 -0.2002  0.2243
 2054W        W18238   5.063   8.423  12.614  0.2644 -0.0337  0.1357
 2055W        W18239  14.795  18.339  11.792  0.5504  0.1824  0.0030
 2056W        W18240   4.522   2.245  12.030 -0.0537  0.2236  0.1469
 2057W        W18241  15.002   6.209   3.428 -0.1859  0.0723 -0.1625
 2058W        W18242   8.827  18.369   4.939  0.0236  0.0080 -0.0238
 2059W        W18243   8.223   4.835  11.725  0.1048 -0.2132 -0.3298
 2060W        W18244  12.268   1.039   0.487 -0.0982  0.2569 -0.1299
 2061W        W18245   8.189  13.111  11.642  0.1568 -0.2173 -0.1262
 2062W        W18246   4.649   3.058  14.043  0.0077  0.0986  0.1772
 2063W        W18247  17.295  11.593  12.403 -0.1543  0.2546 -0.1777
 2064W        W18248   8.561   1.869  10.174  0.0925 -0.1228  0.0443
 2065W        W18249  10.119   5.428   4.682 -0.0151  0.1243  0.0264
 2066W        W18250  17.415  14.568  14.721 -0.2285 -0.0155  0.0683
 2067W        W18251  12.302   9.397  12.164 -0.1297  0.1225  0.0997
 2068W        W18252  16.736   2.694  13.811 -0.1266 -0.0798 -0.0105
 2069W        W18253   4.422   8.789  12.493 -0.0669 -0.1750  0.0057
 2070W        W18254  11.931   1.306   4.124 -0.1362  0.2408 -0.1908
 2071W        W18255   7.903   0.085  13.798 -0.2286 -0.5618 -0.1106
 2072W        W18256  12.229   0.270  10.759  0.0257 -0.1497 -0.0795
 2073W        W18257  16.671   6.799   3.563  0.1190  0.1439  0.0121
 2074W        W18258   5.260  11.038   2.874  0.0498  0.3138 -0.0150
 2075W        W18259   4.789  13.442  13.617 -0.2888 -0.2036  0.1192
 2076W        W18260   8.362   6.562  11.616 -0.0755  0.1805  0.3170
 2077W        W18261  10.502   5.280   2.044 -0.1119 -0.2537 -0.0367
 2078W        W18262   2.321   3.715   2.565 -0.3000 -0.1607  0.2028
 2079W        W18263   1.757   1.574   2.777 -0.0261 -0.0704 -0.4386
 2080W        W18264  16.492   2.038   4.706 -0.0711 -0.3094  0.1466
 2081W        W18265   3.873  13.155  12.453 -0.1553 -0.2277 -0.1246
 2082W        W18266  17.717   0.990   3.883 -0.0529 -0.0406  0.0593
 2083W        W18267   2.307  11.439   2.565  0.0210  0.2291  0.1605
 2084W        W18268   4.961   0.218   2.844 -0.1897  0.3893  0.3306
 2085W        W18269   1.459  14.487   2.981  0.1216 -0.0030  0.1422
 2086W        W18270   6.148  10.893  14.858 -0.0308 -0.1171 -0.4059
 2087W        W18271  13.811   1.526   3.699 -0.0259  0.3464  0.0936
 2088W        W18272   4.610  17.241  14.997  0.3822 -0.2771 -0.0073
 2089W        W18273   4.870  10.102   2.270 -0.0819 -0.0527 -0.2475
 2090W        W18274  16.938  15.053   1.010 -0.3138 -0.0002  0.1736
 2091W        W18275   5.326   8.679   9.762 -0.3985  0.4256 -0.2156
 2092W        W18276  15.096   2.491   2.739  0.0808 -0.2054  0.0122
 2093W        W18277   2.088  15.474  11.052 -0.3754  0.1639 -0.2979
 2094W        W18278   7.732   5.813  10.819  0.1479 -0.2955 -0.2259
 2095W        W18279   7.917   7.713   5.516  0.0113 -0.0705  0.3158
 2096W        W18280   2.569   8.628   5.816  0.1719  0.0419 -0.0557
 2097W        W18281   0.989  16.397   3.143 -0.0740  0.0715 -0.2179
 2098W        W18282   9.098   9.850  10.339 -0.0385  0.1443 -0.2073
 2099W        W18283  13.360   6.454  12.303 -0.1759 -0.0367 -0.0225
 2100W        W18284  11.537   0.015  15.454 -0.1033 -0.2335 -0.3194
 2101W        W18285  15.995  15.593  13.567  0.0926  0.4339 -0.0954
 2102W        W18286   2.148  15.341   1.018 -0.2491 -0.3263  0.4898
 2103W        W18287  11.534  10.248   5.005 -0.0326  0.1597  0.0975
 2104W        W18288   2.943   0.061   4.419 -0.2868  0.1540  0.0247
 2105W        W18289  14.824   3.368  14.777 -0.0055  0.1896  0.0602
 2106W        W18290  15.745  10.006  12.096  0.0555 -0.0908 -0.0023
 2107W        W18291  18.597   9.612   5.231  0.1042  0.3682  0.2223
 2108W        W18292   2.524   8.307   3.593  0.0140 -0.0956  0.0894
 2109W        W18293   6.454   9.586  13.769 -0.2311 -0.0766 -0.0627
 2110W        W18294   7.212   8.986  10.530 -0.0307  0.0448 -0.4313
 2111W        W18295   1.670   7.916  10.588  0.0017 -0.1976  0.0254
 2112W        W18296  12.941  13.302   0.478  0.1320  0.1003 -0.2366
 2113W        W18297   1.951   7.642  15.153  0.1935 -0.5658 -0.0804
 2114W        W18298   5.915  14.193  10.533 -0.1391  0.1034 -0.1530
 2115W        W18299  14.874   9.540   3.753 -0.1003  0.4627 -0.3582
 2116W        W18300   1.468  12.314   3.481  0.1167  0.1622 -0.1235
 2117W        W18301   2.280   6.235   2.052 -0.2462 -0.0501  0.0193
 2118W        W18302  12.249   7.024  13.871  0.1794 -0.0516  0.1120
 2119W        W18303  10.639  13.039   4.914 -0.1815  0.3382  0.1130
 2120W        W18304   1.627   7.190   3.935  0.1491 -0.2883 -0.1336
 2121W        W18305   9.082   0.684   2.727 -0.1149  0.2279 -0.3109
 2122W        W18306   0.089  16.593  13.073 -0.2307  0.1561  0.1292
 2123W        W18307  18.239   2.651  12.672 -0.1194 -0.1675 -0.1683
 2124W        W18308  10.106  10.861  12.929  0.2394  0.3367 -0.3073
 2125W        W18309   9.140  17.631  11.330  0.1199  0.2461 -0.1331
 2126W        W18310   4.430   3.919   5.158 -0.2497 -0.0978 -0.0519
 2127W        W18311  14.814  12.499   5.536  0.0984  0.1955 -0.1025
 2128W        W18312   1.258  18.317   4.175 -0.1078 -0.1617  0.0121
 2129W        W18313  17.312   9.655   4.974  0.0222 -0.0302  0.2468
 2130W        W18314   7.039   6.250  14.568 -0.2458 -0.1958  0.0226
 2131W        W18315   0.919   3.313  15.222  0.4738  0.0284  0.0452
 2132W        W18316   1.903  12.825  11.899  0.2877 -0.0644 -0.3813
 2133W        W18317  17.430  18.406   3.803 -0.2498 -0.0448 -0.1633
 2134W        W18318   0.279  10.493  12.566 -0.0482  0.0673 -0.1647
 2135W        W18319   1.589  13.235   0.807  0.3114  0.0009  0.2596
 2136W        W18320  16.994  10.091   4.460  0.0855 -0.1992 -0.0033
 2137W        W18321   2.039  18.568   3.645  0.3488  0.1360 -0.0220
 2138W        W18322   5.547  15.223  12.200  0.3216 -0.2546  0.2232
 2139W        W18323  13.368   8.211  14.410 -0.2856  0.0949 -0.1705
 2140W        W18324   2.725   2.512   5.216 -0.2322  0.2350  0.2282
 2141W        W18325   7.666   4.057  14.104  0.0055 -0.1425 -0.1725
 2142W        W18326   4.104  15.829   5.208 -0.0205 -0.2701 -0.1554
 2143W        W18327  16.205   9.943   0.088 -0.1501 -0.0326 -0.0158
 2144W        W18328  17.921   2.371  11.887  0.0243 -0.1136  0.2356
 2145W        W18329   8.426   8.643   0.788  0.2031  0.0430  0.0979
 2146W        W18330   6.492  14.999   1.756 -0.2788  0.1349  0.0249
 2147W        W18331   4.560  11.709   5.436 -0.0381 -0.4069  0.0091
 2148W        W18332  18.213  12.627  10.585 -0.0509 -0.0116  0.3264
 2149W        W18333  13.579  13.675  12.654  0.2563 -0.1814  0.0835
 2150W        W18334   3.001   9.600  10.469 -0.1358  0.1674 -0.0109
 2151W        W18335   7.133   1.112   1.358 -0.1953 -0.0414 -0.0720
 2152W        W18336  11.747   9.898   3.117 -0.0209 -0.1063  0.0930
 2153W        W18337  18.132   6.686   1.794 -0.0188 -0.4070  0.0397
 2154W        W18338  11.023  13.932  13.512 -0.1936  0.0393 -0.2394
 2155W        W18339   5.829   8.257   2.229  0.1369 -0.0071 -0.0990
 2156W        W18340   4.874  15.477   4.054  0.2355  0.1579 -0.1725
 2157W        W18341   7.969   6.440  14.310 -0.1150 -0.4842 -0.0923
 2158W        W18342   4.521  10.801  14.518 -0.0516  0.0440  0.1181
 2159W        W18343   1.236   2.507   4.169 -0.1843  0.2863  0.1837
 2160W        W18344   5.629  11.233  14.100  0.1775  0.3579  0.2190
 2161W        W18345   2.670   0.027  10.198  0.0713 -0.3411  0.2740
 2162W        W18346   6.844   7.926  10.530 -0.3646  0.0304  0.4177
 2163W        W18347   4.896  16.878   0.646  0.0996  0.1218  0.0334
 2164W        W18348   1.987  16.322  13.683  0.0857 -0.2271 -0.0301
 2165W        W18349   8.439  16.030   1.066 -0.1864 -0.2729 -0.2923
 2166W        W18350   3.067   9.664  13.085  0.1108 -0.1606 -0.0120
 2167W        W18351  14.234  17.765   1.762 -0.0356 -0.0701  0.3846
 2168W        W18352  17.175   6.822  13.362 -0.0295 -0.0543 -0.2333
 2169W        W18353   3.527  15.578   1.941  0.1508 -0.0876  0.1617
 2170W        W18354  11.246  12.799   2.276 -0.0072  0.3461  0.2225
 2171W        W18355  14.101  16.397  11.246 -0.3551 -0.1119  0.4267
 2172W        W18356   5.486  11.612  14.614 -0.1936 -0.2052  0.0328
 2173W        W18357   0.173   8.406  13.833 -0.2037  0.3842 -0.0966
 2174W        W18358  17.536  11.775  11.456  0.1831 -0.2153  0.1443
 2175W        W18359   3.693  13.204   9.689  0.1619  0.2756  0.0391
 2176W        W18360   2.563   3.514  11.772 -0.0012  0.2561 -0.0442
 2177W        W18361   0.367   5.675   3.081  0.0610  0.0950  0.0351
 2178W        W18362  15.914   6.770   0.389  0.0332  0.1364 -0.1946
 2179W        W18363  10.708  15.163  12.363 -0.2389  0.2280 -0.3192
 2180W        W18364   4.870  13.445   4.637  0.1876  0.0805  0.0918
 2181W        W18365  15.025  16.221  11.733 -0.0943 -0.2935 -0.3282
 2182W        W18366   9.484  13.307  12.356  0.2043  0.1909  0.0919
 2183W        W18367   1.499   8.212   2.786  0.0788  0.2089  0.0306
 2184W        W18368  11.312   0.496  13.787  0.0203 -0.0071 -0.1866
 2185W        W18369   9.349  11.496  13.458 -0.2125  0.2131  0.2137
 2186W        W18370  17.503  18.583   0.620  0.0617 -0.2276 -0.2058
 2187W        W18371   3.612  12.300   4.642  0.2087 -0.2693  0.1467
 2188W        W18372   2.334  12.313   0.671 -0.0141 -0.1263 -0.0903
 2189W        W18373   3.258   8.876  11.867 -0.1231 -0.2165  0.1646
 2190W        W18374  13.243   6.843  13.318 -0.2001  0.3605 -0.1612
 2191W        W18375  12.789   0.452   4.854  0.0345 -0.2365 -0.5053
 2192W        W18376  17.150  10.780  12.849 -0.3386  0.0373 -0.2702
 2193W        W18377   6.405   3.033  14.142 -0.1012 -0.1397  0.1867
 2194W        W18378   6.594   4.248   4.318 -0.3668 -0.3548 -0.1646
 2195W        W18379   6.334   6.907   1.088  0.0162  0.0374 -0.0607
 2196W        W18380  13.141  12.513   3.916  0.2210 -0.4069  0.0988
 2197W        W18381  14.401  14.761   0.858 -0.0565 -0.0318  0.1769
 2198W        W18382  12.164  10.277  15.525 -0.0510 -0.0543  0.2037
 2199W        W18383   0.941   9.046   3.099  0.1513 -0.2912  0.1172
 2200W        W18384   0.789   8.099   4.456  0.1127  0.0578 -0.2380
 2201W        W18385   5.883  17.577  14.716 -0.0704  0.0658 -0.0779
 2202W        W18386   8.249  18.716  13.415  0.0199  0.0811 -0.1848
 2203W        W18387   9.761  13.529  14.788 -0.1074  0.0781  0.0886
 2204W        W18388   4.988   6.139   1.501 -0.0253 -0.0832 -0.0701
 2205W        W18389   7.618   7.846   2.174 -0.2684  0.0527  0.4377
 2206W        W18390   0.468   9.954  14.075  0.0550  0.4580  0.3269
 2207W        W18391  16.181   5.884  12.021  0.0231 -0.1184  0.0287
 2208W        W18392  16.070   7.956   3.669  0.2693  0.0078 -0.2307
 2209W        W18393  17.152   0.061   0.472  0.0517  0.1140 -0.3588
 2210W        W18394  13.898  10.178  14.954 -0.0302 -0.0140 -0.0102
 2211W        W18395   4.110   4.998   4.559  0.0786  0.0924 -0.3012
 2212W        W18396  16.552   1.527   5.256 -0.1433  0.0589 -0.1286
 2213W        W18397  17.134   6.113  11.244 -0.0829 -0.0014 -0.2329
 2214W        W18398   4.470  15.064   0.186 -0.1086  0.2382 -0.0336
 2215W        W18399   0.261   3.979   5.889  0.1851 -0.1202 -0.0826
 2216W        W18400  13.080  16.272  13.318  0.1022  0.1836 -0.0282
 2217W        W18401  14.293  10.929   3.373 -0.0486 -0.0885 -0.0305
 2218W        W18402   1.584  13.331  14.854  0.0531 -0.0496 -0.3575
 2219W        W18403   6.730  11.678  14.657  0.0482  0.0989  0.0495
 2220W        W18404  17.115   4.228  14.893  0.0303 -0.1257  0.0684
 2221W        W18405   6.757  10.332   1.743  0.1859 -0.2953 -0.2900
 2222W        W18406  11.737  10.762   1.645  0.2874 -0.1095  0.1173
 2223W        W18407   2.089  10.508   4.563  0.0158 -0.2468 -0.1664
 2224W        W18408  15.125   6.385   2.997 -0.1840  0.1537  0.1944
 2225W        W18409   2.304  11.458   3.879  0.1146  0.2313 -0.3302
 2226W        W18410  14.693   9.861  13.623 -0.0960 -0.0828  0.0998
 2227W        W18411   2.342   0.114  13.494 -0.1068  0.1508 -0.3936
 2228W        W18412  18.538  18.083   1.828  0.1801 -0.3513  0.1167
 2229W        W18413  17.897   9.409  11.164  0.0380 -0.0534 -0.1337
 2230W        W18414  15.814   2.513  15.503 -0.3272  0.4077 -0.1193
 2231W        W18415  16.179   1.803  13.500  0.1944 -0.1968 -0.2900
 2232W        W18416   2.011  17.233   0.990  0.0235 -0.1596  0.1035
 2233W        W18417  12.565   8.901   3.032 -0.0418  0.2767 -0.1498
 2234W        W18418  13.640  10.987  13.804 -0.1745  0.0166 -0.0104
 2235W        W18419   9.325   8.193  14.502 -0.0764  0.0796 -0.0700
 2236W        W18420   8.972  17.994  13.191 -0.1956 -0.0906  0.0338
 2237W        W18421  12.708   1.961   4.512  0.2909  0.0268  0.1211
 2238W        W18422  10.407  13.107   0.206 -0.0931 -0.1454  0.0845
 2239W        W18423  14.892   9.463  13.844 -0.4091  0.1915  0.0761
 2240W        W18424  10.134   0.274   2.127 -0.1803  0.2164  0.1262
 2241W        W18425   6.132   6.896   1.803 -0.1075 -0.1662  0.2307
 2242W        W18426   3.361   2.238  12.312  0.2260  0.1438  0.1353
 2243W        W18427   9.303   5.949   4.927 -0.2482 -0.0570 -0.2087
 2244W        W18428   1.789  17.136   1.428 -0.0545  0.1777 -0.1092
 2245W        W18429   6.179   3.563   4.690 -0.0536 -0.2910 -0.0953
 2246W        W18430   1.889   0.606   2.036  0.2313 -0.0360 -0.2247
 2247W        W18431   3.474   9.969   1.656 -0.0774  0.0909  0.1695
 2248W        W18432  16.000  12.445   4.826 -0.1400  0.2379 -0.1335
 2249W        W18433  17.193  14.805  15.081 -0.1813 -0.0567  0.1922
 2250W        W18434  10.837   3.320  13.765  0.0436  0.1026  0.0373
 2251W        W18435  14.866   0.465  12.265 -0.1264  0.1238 -0.2167
 2252W        W18436  13.672   3.397  12.577  0.1707  0.1242  0.1855
 2253W        W18437   0.845   8.061  14.040 -0.0047  0.1792  0.0414
 2254W        W18438  16.170  18.357   0.290 -0.0972  0.3465  0.1756
 2255W        W18439   7.352  12.878   3.343  0.0374 -0.0321 -0.2772
 2256W        W18440   5.456   3.695  12.441  0.0489 -0.0010  0.0192
 2257W        W18441  16.970   1.293   4.285 -0.0977  0.0381  0.2113
 2258W        W18442  13.391  18.688  12.928 -0.1552 -0.1251 -0.0486
 2259W        W18443  16.337  18.767  13.956  0.1876 -0.1344  0.2077
 2260W        W18444   0.222   8.517   3.444  0.1412  0.0681 -0.1409
 2261W        W18445  18.313  18.583  12.046  0.0307 -0.2006  0.1794
 2262W        W18446   6.677  11.970  11.454  0.1181 -0.1005  0.1753
 2263W        W18447   7.869  17.211  13.162 -0.0416 -0.0891  0.0602
 2264W        W18448  10.442  13.190   0.739  0.0723 -0.2326  0.0354
 2265W        W18449  11.862  18.785   0.457 -0.1840 -0.3306 -0.1192
 2266W        W18450   8.695  10.136   4.665 -0.0423 -0.1396  0.0107
 2267W        W18451   1.301   2.296  13.018 -0.0811 -0.0244 -0.3297
 2268W        W18452   6.111   4.021   4.484  0.1865  0.2681  0.5623
 2269W        W18453  10.848   8.321  10.739  0.2942 -0.1238  0.1353
 2270W        W18454  11.971   6.048   4.597 -0.1900  0.3208 -0.3164
 2271W        W18455   5.752  15.065   1.089 -0.1542 -0.1287  0.0996
 2272W        W18456  13.122  14.236  14.339  0.0256 -0.2260  0.1011
 2273W        W18457  17.540  11.269   3.781  0.0281 -0.0098 -0.0312
 2274W        W18458  18.409  10.568   0.106 -0.0965 -0.2808  0.0406
 2275W        W18459  14.919  15.132   0.586  0.0787 -0.1713 -0.0230
 2276W        W18460   7.101   5.199  13.872 -0.0466 -0.2224  0.2531
 2277W        W18461   0.057  11.590   4.106  0.0675  0.0775 -0.0807
 2278W        W18462  10.266   2.526  14.285 -0.0741 -0.1899  0.1588
 2279W        W18463   9.551  11.508   3.619  0.1868  0.1585 -0.2767
 2280W        W18464   2.656   7.664  11.512  0.1743 -0.0874 -0.1337
 2281W        W18465  16.487  11.487   5.803 -0.0658  0.2391  0.0161
 2282W        W18466  18.489  17.602  11.494  0.1040 -0.0099  0.2191
 2283W        W18467  18.724   9.651   0.205 -0.2301  0.2557  0.0274
 2284W        W18468  15.840  13.653   4.602 -0.2254 -0.1141 -0.2518
 2285W        W18469   5.579  17.280  12.545  0.0629  0.1614  0.5501
 2286W        W18470   3.934  12.612  13.291  0.0413  0.1487 -0.0278
 2287W        W18471  11.114   5.273  15.010 -0.2267  0.3093  0.0500
 2288W        W18472   2.929  14.647  12.383  0.2652 -0.2190  0.1456
 2289W        W18473  11.733   1.212  11.769  0.0766 -0.1439  0.0027
 2290W        W18474   0.171  15.199   5.388 -0.3078 -0.0545 -0.2446
 2291W        W18475  15.385   5.181  13.843 -0.2251 -0.0036  0.1046
 2292W        W18476   1.571   1.796  12.895  0.2526 -0.1140 -0.4089
 2293W        W18477  17.112   0.290  11.827 -0.2056 -0.1106  0.2517
 2294W        W18478  11.610  11.086   3.252  0.0511  0.0874 -0.2956
 2295W        W18479   1.627   1.962   0.484 -0.1929  0.0276  0.2931
 2296W        W18480  11.194  17.177   4.664 -0.1924 -0.2753  0.0480
 2297W        W18481  18.300  13.487   2.233 -0.0420  0.1779 -0.2822
 2298W        W18482   1.187  11.665   0.247 -0.2862 -0.2990  0.0754
 2299W        W18483  18.507   0.468  11.081 -0.2772 -0.2645 -0.1567
 2300W        W18484  10.001  15.021   2.737  0.0533  0.0123  0.0101
 2301W        W18485  12.533   5.353   5.691  0.2548 -0.0380 -0.1165
 2302W        W18486   7.349  16.582   5.268 -0.0908 -0.0702  0.0748
 2303W        W18487  11.082   7.376   5.687 -0.1312 -0.0537 -0.2139
 2304W        W18488  10.035  18.213  14.865 -0.2161  0.0826  0.1570
 2305W        W18489  14.001   6.927  12.561  0.1075  0.1042  0.2967
 2306W        W18490   6.654  16.423   5.128  0.1266 -0.0496 -0.1449
 2307W        W18491  17.098  18.762   2.584 -0.0426 -0.2129  0.1711
 2308W        W18492  17.189   4.058  15.388  0.1195 -0.2127  0.0282
 2309W        W18493   2.186  11.769   1.377 -0.0610  0.0737 -0.3999
 2310W        W18494   5.879  12.058   0.113 -0.2333  0.2128 -0.1091
 2311W        W18495  12.213  13.381   1.520 -0.2144 -0.3121 -0.2299
 2312W        W18496   2.116   9.513  13.071  0.2305 -0.1328 -0.1962
 2313W        W18497  12.632  15.287  11.702 -0.0783 -0.0596  0.1369
 2314W        W18498   3.522  14.336   1.585 -0.3277 -0.2141  0.0711
 2315W        W18499  16.096   6.813  13.181  0.0404 -0.0964  0.0386
 2316W        W18500  13.542  10.435  11.787  0.1777  0.0270  0.1032
 2317W        W18501  13.057  15.837   2.278 -0.0482 -0.2560  0.0449
 2318W        W18502  11.734  14.101  15.405 -0.4456  0.0888  0.3925
 2319W        W18503   4.210   2.288  11.651 -0.0282 -0.0809  0.2206
 2320W        W18504  14.302  13.262   3.711  0.0196 -0.0083 -0.0269
 2321W        W18505   4.163  16.261   1.346  0.2511  0.1797  0.2892
 2322W        W18506   3.979  14.551  13.564 -0.0960 -0.0942  0.1707
 2323W        W18507   4.678   0.359  13.670 -0.1051 -0.4948  0.1183
 2324W        W18508   6.657   4.058   0.071  0.0510 -0.0074  0.3355
 2325W        W18509   7.840  14.691   3.165 -0.1465 -0.0817 -0.1836
 2326W        W18510  18.625  15.435   2.778 -0.0049  0.3130 -0.0045
 2327W        W18511   1.092   6.942  11.923 -0.1246  0.0238 -0.0487
 2328W        W18512   8.494  14.142  12.189  0.0355  0.1868 -0.1090
 2329W        W18513   5.133   1.843   2.421 -0.2857 -0.1463 -0.0739
 2330W        W18514   7.919  13.138   3.903 -0.0996 -0.0760  0.1832
 2331W        W18515   2.976  18.791   2.984  0.1769  0.0037 -0.3272
 2332W        W18516  14.961   6.259  14.012  0.2238  0.1001 -0.1833
 2333W        W18517  18.050  18.439  11.680  0.3186  0.1309 -0.0088
 2334W        W18518   2.789   7.457  13.501  0.1343  0.1509 -0.0187
 2335W        W18519   4.976   0.415   0.139 -0.0311  0.0800  0.0440
 2336W        W18520   6.698  14.257   0.594 -0.0503  0.0654 -0.0431
 2337W        W18521  18.261   9.156   3.981  0.1183 -0.3023 -0.0412
 2338W        W18522  18.855  15.975   3.722  0.2725 -0.0680 -0.0031
 2339W        W18523   2.405   3.198   0.790 -0.1266 -0.0188 -0.2996
 2340W        W18524   9.019   4.322   2.452  0.0401 -0.2034 -0.1108
 2341W        W18525   4.459  14.044  14.350 -0.2816 -0.2206  0.1386
 2342W        W18526  14.541   9.173   4.584 -0.1186 -0.2345  0.1357
 2343W        W18527   2.698   5.012   3.433  0.2243 -0.1962  0.2281
 2344W        W18528   2.150  18.520  12.305 -0.2118  0.1343  0.1378
 2345W        W18529  18.223  11.974  15.045 -0.0813  0.2625  0.3775
 2346W        W18530  13.834  13.247   5.418 -0.0746 -0.2105 -0.1048
 2347W        W18531   2.094   9.040   2.157 -0.0702 -0.0349  0.2247
 2348W        W18532   4.006   6.107   2.016 -0.1105  0.2160  0.1555
 2349W        W18533   3.152   0.806   2.846 -0.1292  0.0384 -0.1188
 2350W        W18534   1.440  12.342   4.001  0.1763  0.1994  0.1350
 2351W        W18535   9.015  14.173  12.983  0.0971 -0.0864  0.3683
 2352W        W18536  12.869  17.917  12.926 -0.1428 -0.1860  0.2036
 2353W        W18537   3.334  16.696   1.147  0.0528  0.2909 -0.2735
 2354W        W18538   7.906  16.695  13.265 -0.0084  0.1080 -0.2829
 2355W        W18539  13.185  18.677   2.719  0.0443  0.1833  0.2846
 2356W        W18540   0.664  17.760   3.275  0.2646  0.0782  0.0138
 2357W        W18541  18.521  18.017  12.461 -0.1157 -0.2937 -0.1241
 2358W        W18542   9.496   8.686   4.075 -0.1959 -0.1668 -0.2131
 2359W        W18543   3.721  10.331   3.582  0.0274  0.2117 -0.0428
 2360W        W18544   2.992   9.759   3.631 -0.1314  0.2194  0.0778
 2361W        W18545   6.786  15.998  13.677 -0.2424  0.0404  0.2189
 2362W        W18546  15.398  14.220   2.921  0.2369 -0.2874 -0.3532
 2363W        W18547   4.118   9.445   0.842  0.1442  0.2041  0.0345
 2364W        W18548   9.182  18.596  11.534 -0.0556 -0.2236 -0.0552
 2365W        W18549  18.335   0.708   3.181 -0.1672 -0.1850 -0.0134
 2366W        W18550   8.427  14.078   3.829 -0.4273  0.1412 -0.3746
 2367W        W18551  18.412  17.333   5.145 -0.1910  0.1442 -0.0242
 2368W        W18552   0.359  14.032  11.207  0.2408  0.0040  0.1021
 2369W        W18553   9.347  13.379   2.078  0.2639  0.0455 -0.0524
 2370W        W18554  10.723   4.922  15.103  0.1911 -0.0665 -0.3126
 2371W        W18555  18.296   1.386  10.918 -0.0205 -0.0460  0.1557
 2372W        W18556  10.267  10.390  14.238 -0.3343  0.0328  0.0241
 2373W        W18557  11.906   7.103  14.503 -0.1568 -0.0920  0.1787
 2374W        W18558  17.670   9.607  14.040 -0.3419 -0.0263  0.2368
 2375W        W18559   0.699  16.275  14.686  0.0233 -0.1553  0.3233
 2376W        W18560  12.140  17.768   3.745  0.2280 -0.0955 -0.2068
 2377W        W18561  10.693   6.826  10.487  0.2820  0.2394  0.0500
 2378W        W18562   7.801  12.014   4.944  0.2155  0.0221  0.1719
 2379W        W18563  13.127  13.941   0.691  0.0703 -0.0920 -0.3952
 2380W        W18564   1.892   3.489   3.577  0.0375 -0.1547 -0.0245
 2381W        W18565  12.533   0.064   1.950 -0.2890 -0.4774  0.3610
 2382W        W18566   7.720  17.479   3.353 -0.0917  0.2303  0.0499
 2383W        W18567   5.232   7.378  11.542  0.2520  0.2319 -0.1957
 2384W        W18568  11.771   8.033  11.740  0.0820 -0.3304 -0.0080
 2385W        W18569   4.697  16.890  11.004  0.0707  0.1476 -0.1885
 2386W        W18570   7.332   3.552   2.282 -0.0244  0.2226  0.1936
 2387W        W18571   1.656   4.994  12.223 -0.0187 -0.0072  0.2707
 2388W        W18572   4.582  10.102   3.445  0.3285 -0.5459 -0.0265
 2389W        W18573  17.217   9.510  14.042  0.2462 -0.1126  0.0793
 2390W        W18574   7.975  17.998   4.038  0.0422  0.2097 -0.1772
 2391W        W18575  12.183   5.350  13.677 -0.1143 -0.3241  0.0112
 2392W        W18576  17.967   7.521   0.616  0.0147  0.2786 -0.0602
 2393W        W18577   9.539   2.050   4.612  0.2055 -0.1285  0.2663
 2394W        W18578   3.585   0.670   0.122 -0.1037 -0.1381  0.2633
 2395W        W18579  16.790   9.589   3.333 -0.1243 -0.0067  0.0059
 2396W        W18580   9.777  16.139  12.956  0.1653  0.1118  0.0979
 2397W        W18581   2.218   4.921   5.540 -0.0610 -0.2399  0.3757
 2398W        W18582   8.459  15.180   1.363  0.2638  0.3128  0.1224
 2399W        W18583  14.978   4.007  10.998  0.0120 -0.1442  0.2459
 2400W        W18584   5.080   3.569  15.365  0.0958  0.1423  0.0819
 2401W        W18585   1.482  16.252  14.464  0.0466  0.1651 -0.0099
 2402W        W18586   3.016  15.295   0.671 -0.3169 -0.0224 -0.2615
 2403W        W18587  12.619  18.707  11.514 -0.1623 -0.1390  0.0666
 2404W        W18588   0.656  11.412   2.678  0.3997  0.1145  0.0106
 2405W        W18589   4.491  18.135   3.661 -0.0405 -0.2237  0.0498
 2406W        W18590   4.734   5.009  14.263 -0.0824  0.0767  0.2512
 2407W        W18591   2.954   4.710  12.731  0.0448  0.0923 -0.1240
 2408W        W18592   2.305   1.278  15.209  0.1410  0.4026 -0.1698
 2409W        W18593   1.202  16.136  11.358 -0.1056 -0.0778 -0.3699
 2410W        W18594  13.473   8.032   3.386  0.2737 -0.1570 -0.0810
 2411W        W18595   1.254  15.614  11.277  0.0279  0.0895  0.2103
 2412W        W18596   0.601   9.899   0.861 -0.0496 -0.0184  0.1654
 2413W        W18597  17.766  13.363   2.284 -0.2026 -0.0039  0.3397
 2414W        W18598  11.460  13.153   2.681 -0.1195 -0.1700 -0.3755
 2415W        W18599   7.574   2.362   4.573  0.3273  0.0003 -0.0771
 2416W        W18600   9.383   6.085  14.602 -0.2392 -0.0509 -0.0181
 2417W        W18601  13.491  10.870  11.224 -0.2693 -0.1077 -0.2783
 2418W        W18602   3.127   6.463   3.620 -0.1166  0.0315  0.1617
 2419W        W18603  16.547   4.426  11.196 -0.4594 -0.0724  0.4068
 2420W        W18604   0.208   4.652   0.754 -0.2004  0.1550  0.3061
 2421W        W18605   2.130   3.130   1.226  0.1117  0.1533  0.0654
 2422W        W18606   1.010  12.846   1.488 -0.2214  0.3800 -0.0775
 2423W        W18607  14.960   5.378   3.946  0.1933 -0.0179  0.1279
 2424W        W18608  10.277  17.118   5.833 -0.2311  0.0040 -0.0820
 2425W        W18609  18.129   6.721  14.002  0.1447  0.0684  0.0180
 2426W        W18610   1.896   5.484  10.578  0.1142  0.0558  0.2831
 2427W        W18611  11.165   9.512   3.640 -0.2243  0.0994 -0.2407
 2428W        W18612   3.812  11.203   0.957 -0.0633  0.2938  0.1763
 2429W        W18613  16.489   1.087   5.552 -0.0618 -0.0660 -0.0809
 2430W        W18614  11.609   1.828  15.088  0.2731  0.1073  0.1443
 2431W        W18615   7.298  14.000  10.622  0.2283 -0.0229  0.0464
 2432W        W18616  18.181  14.603   3.270  0.2630  0.1976  0.0390
 2433W        W18617   9.828   2.240   5.473 -0.1328 -0.2835  0.2148
 2434W        W18618   8.160  17.099  14.707  0.0727  0.0001 -0.1582
 2435W        W18619   4.263  11.058   2.034 -0.2077  0.3530  0.2307
 2436W        W18620   3.503   4.508   0.915 -0.0235 -0.0419 -0.0313
 2437W        W18621  13.549  10.443  12.266  0.0104 -0.2192  0.0301
 2438W        W18622  16.006  18.152   4.899  0.2053  0.1811  0.2741
 2439W        W18623  11.126  13.672   1.606  0.0932  0.1679  0.2636
 2440W        W18624   0.139  17.696   2.695 -0.1190  0.1636  0.2143
 2441W        W18625   3.086  13.892  13.658  0.0579  0.0671  0.0948
 2442W        W18626   7.498  11.377  13.170 -0.3016 -0.3626  0.1435
 2443W        W18627   7.042  11.681  11.692  0.2204 -0.0472  0.0085
 2444W        W18628  11.665  13.363  11.399  0.3735 -0.2309  0.0138
 2445W        W18629  17.268   0.495   0.076  0.0342  0.2792  0.1486
 2446W        W18630  17.183  10.619   4.479  0.1374  0.0059 -0.1462
 2447W        W18631  16.670   9.090  12.047 -0.3314  0.1269 -0.0264
 2448W        W18632   4.827  14.226   0.122 -0.0966 -0.1789 -0.2794
 2449W        W18633   3.416   4.116   1.976  0.1431  0.0103  0.2446
 2450W        W18634  16.406  11.974   5.593 -0.1335  0.0010  0.0046
 2451W        W18635  17.348   1.464  12.459 -0.1532  0.2077 -0.0868
 2452W        W18636  10.677   7.040   0.806 -0.1263  0.2652  0.2333
 2453W        W18637  10.365   6.915   1.723  0.0049 -0.1484 -0.2084
 2454W        W18638  12.456  11.883  10.874 -0.1595 -0.3383  0.0656
 2455W        W18639  14.916   7.040  15.263 -0.3750 -0.2121  0.3366
 2456W        W18640  13.428  13.588  14.925 -0.0688  0.0856  0.1484
 2457W        W18641   9.560   9.309  14.596  0.1078  0.3715 -0.0742
 2458W        W18642  11.265   5.770  13.286  0.0228  0.4006 -0.2419
 2459W        W18643  18.719  16.893   0.347  0.1494  0.0520 -0.0611
 2460W        W18644   9.680  11.166   2.234 -0.0189 -0.0811 -0.2616
 2461W        W18645  13.386   2.671  14.965 -0.3392  0.2421 -0.0823
 2462W        W18646  11.869   0.255   5.675 -0.3299 -0.1808  0.2985
 2463W        W18647  13.844  11.534   4.401 -0.1758 -0.0646 -0.1283
 2464W        W18648  14.807   1.618  15.233 -0.0777 -0.1190  0.0663
 2465W        W18649   4.955   5.682  13.366 -0.0190 -0.0346  0.0835
 2466W        W18650  14.841   5.511   0.733 -0.1069  0.1645 -0.0657
 2467W        W18651   3.751   8.267  11.953  0.0159 -0.1291 -0.0189
 2468W        W18652  12.504   5.398  14.630 -0.2734  0.4194 -0.1139
 2469W        W18653  11.896   9.945  10.784 -0.2029 -0.0885 -0.0702
 2470W        W18654   6.325  16.374   4.603  0.0352  0.3526 -0.1525
 2471W        W18655  16.253   9.863   3.440 -0.2242 -0.2085 -0.2521
 2472W        W18656  18.219  11.812   3.449 -0.0507 -0.2075  0.0210
 2473W        W18657   4.749   2.806   3.314  0.1108  0.0979  0.1185
 2474W        W18658   6.300   0.381   1.140 -0.4105 -0.0150  0.0059
 2475W        W18659   9.102  12.249  11.685 -0.0484  0.1221 -0.0773
 2476W        W18660  15.336  15.894   3.779 -0.0009  0.0751 -0.0782
 2477W        W18661  12.894  15.464  12.570  0.0600  0.2797 -0.1712
 2478W        W18662   5.024   1.054  12.351  0.1894 -0.1006 -0.1287
 2479W        W18663   5.023  12.324   1.718  0.1606 -0.4728  0.2289
 2480W        W18664   3.790  10.045   4.373  0.2697 -0.1402 -0.0387
 2481W        W18665   7.343   6.618   0.403  0.0707 -0.2534 -0.3306
 2482W        W18666   9.083   4.866  13.062 -0.0088  0.1678 -0.1260
 2483W        W18667  16.554  16.043   1.163 -0.2678  0.0207  0.2650
 2484W        W18668   3.304  14.124  11.940  0.0529  0.1776  0.0366
 2485W        W18669   4.366  13.377   4.823  0.1205  0.2284 -0.1446
 2486W        W18670  11.047   3.817   0.314  0.0677  0.2350  0.0253
 2487W        W18671   6.143   6.024   3.481 -0.4204  0.0482  0.1686
 2488W        W18672   8.664  17.228  11.701  0.0186  0.0548 -0.0015
 2489W        W18673   3.460   5.714  13.535 -0.2016  0.0090 -0.2747
 2490W        W18674   5.206   4.513   5.093 -0.2382  0.0224 -0.0021
 2491W        W18675   9.851  18.353  14.005 -0.1686 -0.0037 -0.3574
 2492W        W18676   1.808  10.689  10.408  0.4609 -0.1277  0.0436
 2493W        W18677   0.619  16.487  12.951  0.2509  0.0848  0.1035
 2494W        W18678  13.985  18.510  15.147 -0.2325 -0.0178  0.0354
 2495W        W18679   2.645   7.717  10.363  0.0871  0.1927  0.3681
 2496W        W18680  14.208   2.032   3.464  0.2431 -0.1044  0.0999
 2497W        W18681   2.551  17.925  11.331  0.1317  0.0310  0.2703
 2498W        W18682  16.308   2.303   3.285  0.2724  0.0879 -0.0393
 2499W        W18683   3.430  15.048  13.631 -0.1706 -0.2474 -0.0171
 2500W        W18684  11.384   1.019  13.079  0.3535 -0.1259 -0.2914
 2501W        W18685  12.142  10.838  12.546 -0.3666  0.1012 -0.1820
 2502W        W18686  12.238  17.479  11.047  0.0566  0.0973  0.2535
 2503W        W18687   1.698  16.569   9.808 -0.1075  0.0774 -0.4606
 2504W        W18688  15.514  15.682  15.155  0.0810  0.1913  0.2304
 2505W        W18689  18.318   5.578  11.951  0.2124 -0.2793 -0.0144
 2506W        W18690   2.279   6.849   4.325  0.2650  0.2679 -0.0406
 2507W        W18691  14.676  11.514   5.621  0.3419 -0.1557  0.0055
 2508W        W18692   7.094  10.449  10.445 -0.2243 -0.1463 -0.0214
 2509W        W18693   3.062  13.346  13.926  0.0218 -0.1292  0.2803
 2510W        W18694   4.354  14.905  14.059  0.1486 -0.0424 -0.0486
 2511W        W18695  16.749   9.803   4.110 -0.0344 -0.2248  0.0106
 2512W        W18696   7.742  12.694   5.915  0.2635 -0.0648 -0.0871
 2513W        W18697  18.112   7.693  15.176  0.1403  0.2629 -0.1021
 2514W        W18698  17.339   3.011  12.617  0.1274  0.1074  0.1829
 2515W        W18699   2.372  18.113  13.674 -0.0504  0.0991 -0.1916
 2516W        W18700   2.500  10.787  14.033  0.1928 -0.2394  0.2016
 2517W        W18701   0.855  13.666  11.570  0.1295  0.2030 -0.0954
 2518W        W18702   2.402   1.305  12.587 -0.0928  0.1426 -0.0093
 2519W        W18703   8.768  14.302  11.826 -0.0138  0.0643  0.1625
 2520W        W18704   2.247  11.366   1.659 -0.1388 -0.4449  0.1259
 2521W        W18705   3.469  13.703  11.753 -0.1359  0.0326 -0.3582
 2522W        W18706   2.173  17.443   4.335 -0.2165  0.1220 -0.1845
 2523W        W18707   4.646  11.114   4.457 -0.0699  0.0807 -0.1647
 2524W        W18708   1.895   5.129  11.471 -0.0034  0.0283  0.2259
 2525W        W18709   0.578  10.874   4.742  0.0249 -0.3421 -0.2262
 2526W        W18710   9.525   9.499   0.000 -0.5794 -0.0002  0.0955
 2527W        W18711  15.711  11.139   3.508 -0.1315  0.2738  0.1713
 2528W        W18712   7.447  17.752   2.426  0.1533 -0.2432 -0.3087
 2529W        W18713   5.775  11.676  11.354 -0.0495 -0.2488  0.1929
 2530W        W18714  16.940   0.115   3.037  0.1079  0.0376  0.0214
 2531W        W18715   3.244  16.071   4.730 -0.3937  0.2858 -0.0721
 2532W        W18716   6.463  13.820  13.251  0.1868  0.0633 -0.0933
 2533W        W18717  14.332  15.331   3.861  0.1097  0.1512  0.1750
 2534W        W18718   1.816  18.712  12.673 -0.0561 -0.1023 -0.1608
 2535W        W18719  13.043   9.222  15.328  0.2019  0.0232 -0.0035
 2536W        W18720   3.581  15.392  13.911  0.2870 -0.2775 -0.5263
 2537W        W18721   7.888  15.705   1.719  0.0595  0.1918  0.0741
 2538W        W18722  14.155   0.761   3.996 -0.3025  0.2977  0.0845
 2539W        W18723  16.878   3.712   4.715 -0.2322  0.1733 -0.1129
 2540W        W18724  10.825  16.017  11.660 -0.1418 -0.1154  0.1218
 2541W        W18725   8.588  13.090  14.154  0.0254 -0.0935 -0.0024
 2542W        W18726   4.221   3.945   5.603 -0.4027 -0.1092 -0.3353
 2543W        W18727   8.068  12.174   1.438 -0.0132  0.0976  0.1879
 2544W        W18728  11.476   7.681   1.314 -0.2492  0.2605 -0.0261
 2545W        W18729   2.929  16.244  11.441  0.2485 -0.1440  0.3324
 2546W        W18730   2.939  18.743   1.177 -0.0476 -0.1533 -0.3328
 2547W        W18731  14.898   1.542   9.868  0.0637 -0.1340  0.1686
 2548W        W18732   6.283  15.701   3.817  0.2679 -0.0437 -0.1217
 2549W        W18733  15.071   2.210  13.767 -0.1369 -0.1121 -0.0766
 2550W        W18734  17.550  15.570  10.330 -0.3529 -0.0336  0.2081
 2551W        W18735   9.868   2.426   2.108 -0.3648 -0.1593  0.0674
 2552W        W18736   6.957  14.686  11.755 -0.2192  0.3990  0.0755
 2553W        W18737   3.367   6.762   2.902  0.2154 -0.0554  0.2061
 2554W        W18738  14.039  13.521   0.616 -0.0587  0.1114  0.0020
 2555W        W18739  12.556   1.317   2.642  0.1241  0.1028 -0.2853
 2556W        W18740  10.825   4.547   1.936  0.2797  0.1062 -0.1625
 2557W        W18741  10.565   5.695  12.146 -0.0691  0.2844  0.0524
 2558W        W18742   0.848   7.765  13.645  0.0079  0.3493 -0.0899
 2559W        W18743  10.539   8.745   2.144 -0.1967  0.0327  0.3076
 2560W        W18744  14.101   7.721   3.853  0.0670  0.0155  0.0643
 2561W        W18745   0.635   1.629  13.897  0.3177  0.2336 -0.1512
 2562W        W18746   6.131  11.689  14.711 -0.0598  0.0410  0.2939
 2563W        W18747   8.734  18.277  12.748  0.2823 -0.0187 -0.3214
 2564W        W18748  17.417   2.748   5.578 -0.3041 -0.0324 -0.3053
 2565W        W18749  17.027   5.659  15.437 -0.2369  0.3138  0.0007
 2566W        W18750  15.845  11.467  10.083 -0.0417 -0.2433 -0.1551
 2567W        W18751  14.865  13.616  14.856 -0.3403 -0.1915 -0.1825
 2568W        W18752   7.642  10.589  11.555  0.3319 -0.2084  0.0177
 2569W        W18753  14.716  10.450   1.055  0.0067  0.3051  0.0621
 2570W        W18754  12.861   8.748   3.449 -0.2171  0.2276 -0.0945
 2571W        W18755   7.670   4.305   5.204  0.0727  0.2932 -0.4049
 2572W        W18756   3.005  13.786  11.675  0.1463  0.0233  0.1860
 2573W        W18757   3.609   6.329   3.475 -0.1672  0.1066 -0.0685
 2574W        W18758  15.823  16.314   1.597  0.0428 -0.0560 -0.0032
 2575W        W18759   2.423   5.034   0.363 -0.3172  0.0001 -0.1088
 2576W        W18760   9.122  12.636   0.420  0.1678  0.0232  0.1948
 2577W        W18761   6.062  11.200   1.809 -0.1964 -0.0377 -0.0034
 2578W        W18762  11.132   4.737  14.949 -0.1483 -0.0336  0.2374
 2579W        W18763   2.947  10.146  10.691  0.1106 -0.0850 -0.0242
 2580W        W18764  15.474   2.734   0.897  0.0662 -0.4331 -0.2392
 2581W        W18765   0.970  10.017  14.166 -0.1798 -0.0122 -0.0086
 2582W        W18766   7.262   3.724   3.015 -0.2242  0.0914 -0.0654
 2583W        W18767   3.847  16.222  13.293  0.0639 -0.2257  0.0404
 2584W        W18768   5.081  12.067   3.658  0.5475 -0.2175 -0.2323
 2585W        W18769  10.500   0.851  14.335 -0.1202  0.1918 -0.0562
 2586W        W18770   5.771   0.270   3.826  0.0662 -0.0069  0.2721
 2587W        W18771   2.043  18.409  10.895 -0.1619 -0.1162 -0.1169
 2588W        W18772   3.402   2.807  13.802 -0.1230  0.0442  0.0838
 2589W        W18773   9.880   7.882   5.762  0.1098  0.2064 -0.1677
 2590W        W18774  12.480  16.291  15.024  0.0270  0.3508 -0.3330
 2591W        W18775  17.077   6.547   3.862 -0.3190  0.0250 -0.0226
 2592W        W18776   5.164  16.123  11.458 -0.0439  0.3015  0.4365
 2593W        W18777   8.913   7.757  15.122 -0.3150  0.0844 -0.1221
 2594W        W18778   2.262  14.613   4.912 -0.1494  0.2418 -0.0216
 2595W        W18779   5.447   9.241   0.221  0.2836  0.0087 -0.1152
 2596W        W18780   6.855  17.559  11.642  0.0697  0.0026 -0.1601
 2597W        W18781   8.726  16.726   1.003 -0.0633  0.2877  0.0784
 2598W        W18782   5.098  14.819  11.033  0.2140 -0.0255 -0.1319
 2599W        W18783   6.974  13.496   5.473  0.1533  0.1654  0.1615
 2600W        W18784  15.246  15.004   2.870  0.0571 -0.2146  0.0210
 2601W        W18785  15.771   1.258  13.164  0.3692  0.2936  0.0841
 2602W        W18786   2.468  17.098   5.286 -0.1987  0.1089  0.1289
 2603W        W18787   3.064   0.529  13.333  0.0691  0.1955 -0.1141
 2604W        W18788   4.064   6.699   3.455 -0.2272  0.0349 -0.0176
 2605W        W18789   9.322  13.173  10.585  0.0814  0.0661 -0.0558
 2606W        W18790   2.042   8.658  15.301  0.0512 -0.1237  0.1009
 2607W        W18791  16.180   0.995  11.857 -0.2197  0.1687 -0.2082
 2608W        W18792  18.497   6.789  15.212  0.0895 -0.3199  0.2124
 2609W        W18793  17.533  13.112  15.195 -0.1944  0.3610 -0.1648
 2610W        W18794  15.202   2.617   3.254  0.0852  0.1489  0.2107
 2611W        W18795   7.300   5.760  10.535 -0.0195 -0.2012 -0.4254
 2612W        W18796  15.420   9.675   2.381  0.1652 -0.0452 -0.2096
 2613W        W18797   5.159  16.621  14.106  0.0481 -0.2288  0.0444
 2614W        W18798   3.630  13.122  13.964 -0.1187  0.1410 -0.0917
 2615W        W18799   3.792  17.295   3.281 -0.0411  0.3603 -0.0661
 2616W        W18800   3.817  11.047  15.417  0.1231  0.2703  0.0194
 2617W        W18801   3.830  10.845   3.431  0.0480 -0.0203  0.5343
 2618W        W18802   3.188   1.959  11.059  0.1684 -0.1463 -0.0346
 2619W        W18803  11.514  15.828   4.037  0.0725 -0.0742 -0.1126
 2620W        W18804  16.053  16.610   3.238  0.2418  0.1911 -0.1963
 2621W        W18805   7.040   8.521   0.443  0.2977 -0.0558 -0.0131
 2622W        W18806  13.610  11.688  15.234  0.0584  0.1399  0.0736
 2623W        W18807  16.209   1.870  13.000 -0.2445  0.3195 -0.1622
 2624W        W18808  15.271  18.229  10.733 -0.2282 -0.3673  0.0873
 2625W        W18809  10.992   6.013   3.579 -0.0030  0.1639  0.1379
 2626W        W18810   4.425   9.892  15.449 -0.2332 -0.2691  0.1910
 2627W        W18811   0.116   3.343  11.973  0.0425 -0.1270  0.0093
 2628W        W18812   8.653  11.302  14.749  0.1057  0.3103 -0.4090
 2629W        W18813   7.944   3.631   0.463  0.1209  0.1431 -0.1132
 2630W        W18814   7.033  12.177  11.156 -0.2561  0.4200 -0.0991
 2631W        W18815  11.473   1.252   0.059 -0.3086 -0.0145  0.0178
 2632W        W18816   1.663   5.227   3.590 -0.1752 -0.2093 -0.3561
 2633W        W18817   4.521  17.709   1.732  0.1708 -0.0381 -0.2476
 2634W        W18818   2.181  11.084  12.730 -0.0539 -0.2304 -0.0728
 2635W        W18819  18.271  15.545  13.709  0.0549 -0.0952  0.2386
 2636W        W18820  14.630   3.526  15.194  0.2168  0.0586 -0.1214
 2637W        W18821   8.213  15.945  11.128 -0.1423  0.0147 -0.0037
 2638W        W18822  14.729   0.721   4.117  0.0463 -0.1001  0.0045
 2639W        W18823   3.726  17.543  11.399  0.1868 -0.0964 -0.0554
 2640W        W18824   6.092  17.515   0.035 -0.1057 -0.2805  0.0670
 2641W        W18825  15.176   6.323  13.473  0.0582 -0.0973 -0.1517
 2642W        W18826   0.935   1.527  14.770 -0.1384  0.1966  0.1212
 2643W        W18827  17.631   0.679   1.031 -0.1125  0.1147 -0.3244
 2644W        W18828   4.880   0.872  15.479 -0.4797  0.0138  0.0896
 2645W        W18829  18.414   8.703  15.143 -0.0079  0.3199 -0.0010
 2646W        W18830  17.292   9.454   3.053 -0.1179  0.0006 -0.3376
 2647W        W18831  13.168  12.819  13.839  0.3901  0.0155 -0.0374
 2648W        W18832   0.452   7.896   4.116 -0.1138  0.3354  0.2233
 2649W        W18833   6.161  16.684  12.987  0.0522 -0.0182 -0.2165
 2650W        W18834  16.467  15.395   1.724  0.1585 -0.2112  0.1408
 2651W        W18835  11.335   5.706   1.806 -0.1146  0.0952  0.0481
 2652W        W18836  15.088   6.759   1.250  0.2491  0.1312 -0.0183
 2653W        W18837  15.243  15.411   2.389  0.1550 -0.1800 -0.3163
 2654W        W18838   1.335   6.821  12.908 -0.1493 -0.1986 -0.1277
 2655W        W18839  16.681  18.188  11.071  0.2828  0.0054  0.2879
 2656W        W18840  12.835  12.146   4.953 -0.4414  0.0502  0.1496
 2657W        W18841  13.170  11.336   1.796 -0.1179  0.2311 -0.1156
 2658W        W18842  17.099   1.134  11.628 -0.3047 -0.0306  0.0838
 2659W        W18843  17.409   0.510   2.036  0.1318 -0.1373  0.0214
 2660W        W18844   0.552  17.462  11.052  0.1864 -0.1960  0.2724
 2661W        W18845   5.795   3.505   1.708  0.2544  0.0178 -0.1358
 2662W        W18846  16.763   8.910   1.046  0.0450 -0.0225 -0.0539
 2663W        W18847  18.782   4.494  11.840 -0.3934  0.1381  0.3914
 2664W        W18848  16.306   3.489  11.425  0.2674  0.1124  0.1813
 2665W        W18849  12.174   3.437   1.543  0.2732  0.0557  0.0144
 2666W        W18850   7.940  15.128   0.494 -0.0909 -0.0436  0.2786
 2667W        W18851  11.263   0.946  14.064  0.3981 -0.0190 -0.0290
 2668W        W18852   1.679  13.201  15.343 -0.0409  0.0895  0.0448
 2669W        W18853   8.534   4.904   4.399 -0.0371  0.1301 -0.1288
 2670W        W18854   4.723  10.936   2.772  0.1173 -0.5234 -0.0772
 2671W        W18855   2.982  18.735   0.353 -0.0085 -0.0086 -0.0224
 2672W        W18856   7.944   2.943   2.079  0.2749 -0.2068  0.2319
 2673W        W18857  13.792   0.610  15.037 -0.0546  0.0594 -0.2096
 2674W        W18858   2.766   2.403   1.343 -0.1596 -0.2976  0.0603
 2675W        W18859   2.323   5.649   9.642  0.0880  0.1886 -0.0561
 2676W        W18860  13.625   3.442   1.592 -0.1450  0.0306  0.1958
 2677W        W18861   1.650  11.236   2.597  0.1392 -0.0080 -0.2450
 2678W        W18862   6.692  14.405   4.194  0.2626  0.1083 -0.0497
 2679W        W18863   5.649  10.391  12.273  0.0071  0.2781 -0.1299
 2680W        W18864  13.887  17.183   3.531 -0.0495  0.1741 -0.0098
 2681W        W18865   7.965  14.780   4.575  0.5202  0.1463  0.0978
 2682W        W18866   7.224  10.933  14.052  0.2375  0.0950  0.1119
 2683W        W18867  14.624   3.978   3.333 -0.1877 -0.0280  0.0813
 2684W        W18868  10.995  12.103  12.141 -0.0667 -0.2131 -0.1467
 2685W        W18869   3.629   1.318   3.089 -0.0045  0.0736  0.0828
 2686W        W18870   9.800   4.320   0.239  0.1258  0.2928 -0.1770
 2687W        W18871   7.684  10.188  13.175 -0.1852 -0.0338  0.1142
 2688W        W18872  11.808  14.288  14.959 -0.1963 -0.1692  0.1582
 2689W        W18873   2.533  10.240  13.926  0.0456 -0.0866 -0.3498
 2690W        W18874   3.306  12.276  14.252  0.1086 -0.0613  0.1323
 2691W        W18875  16.421   9.253   4.876 -0.0799 -0.0027  0.0420
 2692W        W18876   4.173   3.968  15.444  0.0134  0.0112 -0.1339
 2693W        W18877   5.011  13.996  14.412 -0.2096  0.0523  0.0973
 2694W        W18878   0.122  15.110  12.538 -0.2295 -0.0831  0.1075
 2695W        W18879  16.370   4.733  10.157  0.2253 -0.0041  0.2393
 2696W        W18880  10.543   6.196  13.466  0.0616  0.0638 -0.1297
 2697W        W18881   3.598  16.602  14.014  0.0916 -0.0481  0.0826
 2698W        W18882  14.731   6.895  14.622  0.0626  0.4536 -0.3113
 2699W        W18883   7.003   6.767   3.705  0.0168 -0.4363 -0.1705
 2700W        W18884   3.815   2.995  14.481  0.2934 -0.1849 -0.3982
 2701W        W18885   6.138  13.798   3.020  0.0300 -0.1480 -0.1885
 2702W        W18886   1.964  11.814  15.389  0.0244  0.3787 -0.0503
 2703W        W18887   5.763   5.276  14.255 -0.1790  0.2663 -0.2939
 2704W        W18888  17.222   9.575   0.514 -0.0713 -0.2990 -0.0415
 2705W        W18889   0.596   2.112  14.283  0.0183 -0.1965  0.2699
 2706W        W18890   3.145  15.491  13.676  0.0267  0.0720 -0.3474
 2707W        W18891   0.525  11.655   4.174 -0.0144 -0.2873  0.0574
 2708W        W18892  16.675  12.963  14.459 -0.0635 -0.0397 -0.0055
 2709W        W18893   5.548   0.683  11.686  0.2798  0.0900  0.1190
 2710W        W18894  14.166  16.033   1.629 -0.2647  0.0970 -0.1434
 2711W        W18895  13.455  17.619  11.132 -0.2286  0.2389  0.1568
 2712W        W18896   0.274  13.614   0.886  0.0325  0.0508  0.2221
 2713W        W18897   5.383  13.249   2.240 -0.1268  0.3897 -0.2478
 2714W        W18898  10.283  17.351   2.618  0.1300  0.3622 -0.0798
 2715W        W18899  16.251   5.865   2.782  0.2099  0.1092  0.1061
 2716W        W18900   3.628  13.918  12.941  0.0459 -0.1341  0.3386
 2717W        W18901   5.650   3.074  13.793 -0.1664 -0.2178  0.1262
 2718W        W18902  16.830  11.950   3.488 -0.2808 -0.0298 -0.1992
 2719W        W18903  15.307  18.521  14.362 -0.2011 -0.1537 -0.2715
 2720W        W18904  18.849  10.343   4.740 -0.3385  0.1615 -0.1650
 2721W        W18905  16.920   8.840   4.239 -0.3498  0.3713 -0.0539
 2722W        W18906   2.147  11.878  14.485 -0.1846  0.2089 -0.2239
 2723W        W18907  14.559  16.817   4.168  0.2685  0.1490 -0.0749
 2724W        W18908   9.418  12.233   1.303 -0.0140  0.0182  0.1262
 2725W        W18909  12.851   5.517  12.592 -0.1209  0.0209  0.0351
 2726W        W18910   9.034  14.831  14.605 -0.0125 -0.1565 -0.2863
 2727W        W18911   4.999  16.774  12.704 -0.0550  0.0793 -0.0513
 2728W        W18912  16.008  12.883  12.026 -0.2533  0.1877 -0.1697
 2729W        W18913   3.136  10.944   4.086 -0.0222  0.0646 -0.1568
 2730W        W18914  17.985  14.183  13.887  0.0948  0.0369  0.0940
 2731W        W18915  16.138   9.360  11.076 -0.0868  0.3340  0.4359
 2732W        W18916  13.863   4.835  11.612  0.1116 -0.2571 -0.0460
 2733W        W18917   9.516  10.458   4.360 -0.1193  0.0970  0.0895
 2734W        W18918  18.302  11.950   2.125  0.0127 -0.3045 -0.1529
 2735W        W18919  10.554   3.122   0.209 -0.1648 -0.0864 -0.2008
 2736W        W18920   6.303   2.832   5.692 -0.0408  0.2334 -0.1688
 2737W        W18921   3.290  17.380   0.143 -0.0079 -0.0375  0.5186
 2738W        W18922   3.861   1.632   5.860 -0.1495  0.2070 -0.1047
 2739W        W18923   2.787   6.255   1.652  0.4975 -0.0201 -0.0107
 2740W        W18924  10.250  11.805  12.462  0.1585  0.0975  0.0692
 2741W        W18925   6.421  10.023  14.590  0.0880  0.0867  0.0087
 2742W        W18926   4.727  11.551  12.430  0.0666 -0.1557  0.1398
 2743W        W18927  15.060   2.199   5.014  0.0427 -0.0307  0.1018
 2744W        W18928   9.173   2.320   6.173 -0.1661  0.2502 -0.1047
 2745W        W18929  14.828   3.058  11.787  0.1392 -0.0098 -0.1825
 2746W        W18930   1.580   3.595  15.441  0.0565 -0.0017  0.2717
 2747W        W18931  12.330  13.163   1.993  0.0750  0.1153  0.0898
 2748W        W18932  11.515   8.183  15.182  0.1851  0.1866 -0.0373
 2749W        W18933   6.816   1.282   4.332 -0.0914 -0.1361  0.0527
 2750W        W18934  15.252  10.037  13.257 -0.0091  0.2074 -0.1982
 2751W        W18935   4.168   6.850   3.941 -0.1310 -0.7393  0.0334
 2752W        W18936  14.436  15.511  10.881 -0.1846 -0.1022  0.1130
 2753W        W18937  17.277  17.552  14.818  0.0410 -0.1238 -0.1240
 2754W        W18938   5.749  11.299  10.865 -0.4383 -0.0984  0.1152
 2755W        W18939   0.807  17.862  12.680  0.1862 -0.0847 -0.2724
 2756W        W18940  10.958   0.740   1.916  0.1108  0.0968  0.0134
 2757W        W18941   2.078  16.051   4.019  0.0611 -0.1784 -0.1989
 2758W        W18942   4.548   4.796  15.407  0.0284 -0.0759 -0.0369
 2759W        W18943   1.387  12.159   2.434  0.1293  0.0323 -0.4310
 2760W        W18944  12.491   1.654  12.122 -0.0020  0.3997  0.2352
 2761W        W18945   4.911  13.216  14.097  0.0003  0.0713 -0.3135
 2762W        W18946   7.833   3.142   2.930  0.1740 -0.0502 -0.0678
 2763W        W18947  14.503  18.381   0.176 -0.1436 -0.0226 -0.2806
 2764W        W18948  10.240   2.746   3.470 -0.0343  0.1083  0.0914
 2765W        W18949  10.266  12.786   1.783  0.0570 -0.1743  0.2364
 2766W        W18950   0.464   0.842  12.045  0.0211 -0.0135 -0.2266
 2767W        W18951   0.546   1.719  13.353 -0.0328  0.1100  0.0732
 2768W        W18952   2.526   2.548  14.845  0.2661  0.1719  0.1228
 2769W        W18953   3.384   1.765  10.254  0.0497 -0.2847 -0.0955
 2770W        W18954   8.131   7.701   2.869  0.1639  0.0432 -0.0234
 2771W        W18955   4.356  13.483   2.206 -0.2479 -0.1681  0.2766
 2772W        W18956   2.141   7.908   5.071  0.1953 -0.1451  0.0155
 2773W        W18957  14.289  16.987   1.873 -0.1572  0.1265  0.1524
 2774W        W18958  18.410   3.462  13.607  0.0630  0.2472  0.1606
 2775W        W18959   0.267   4.397   1.718 -0.0215 -0.0088  0.0035
 2776W        W18960   9.180  12.348   2.259  0.0352 -0.1750  0.2336
 2777W        W18961   3.163  15.948  13.370  0.2992 -0.2160 -0.0149
 2778W        W18962  12.896   3.845   3.803 -0.3344 -0.0672  0.3177
 2779W        W18963   7.219   3.797  12.711  0.3834  0.1825 -0.0091
 2780W        W18964   6.059   3.942  14.895  0.3600  0.2199  0.0189
 2781W        W18965   8.279   0.070  11.010 -0.0311 -0.1453 -0.2972
 2782W        W18966  10.035  10.553   5.143  0.1971 -0.1212 -0.3370
 2783W        W18967   9.972   4.118  13.570  0.2644  0.3303  0.1513
 2784W        W18968   7.496   0.385   1.200  0.0799 -0.2062  0.1458
 2785W        W18969   5.383   4.598   0.930 -0.2128  0.2581  0.2680
 2786W        W18970   8.890   4.145   4.722 -0.1385  0.1673  0.4108
 2787W        W18971   9.046   6.417   3.565  0.1979  0.1781 -0.0265
 2788W        W18972  13.053   4.341   0.013  0.0674 -0.0252 -0.0233
 2789W        W18973   1.409  14.863   2.495  0.1602  0.1625 -0.3112
 2790W        W18974   9.041  18.540  14.069  0.1775  0.0224 -0.1344
 2791W        W18975   9.967  15.735   5.824  0.1354  0.0208  0.3910
 2792W        W18976   7.811   5.761   0.938  0.0061 -0.0931 -0.0547
 2793W        W18977   2.926  17.214  11.162  0.2663  0.0732  0.1034
 2794W        W18978  13.917   1.454   0.497 -0.0467  0.0496 -0.0376
 2795W        W18979  16.912   9.005   4.750  0.4475 -0.0465 -0.1222
 2796W        W18980   2.985   2.554   3.672  0.3641  0.0900  0.2023
 2797W        W18981   9.591   5.925   3.282 -0.2122 -0.0057 -0.0859
 2798W        W18982  13.181  18.148  15.183 -0.0250  0.1136  0.1432
 2799W        W18983  13.349  14.490   3.481  0.4545 -0.0815  0.0051
 2800W        W18984  18.491  13.457  14.883  0.2416 -0.2291  0.0667
 2801W        W18985  17.687   4.437   9.594  0.1944  0.1791 -0.1172
 2802W        W18986   6.297   0.130   1.556  0.0168  0.1414 -0.1123
 2803W        W18987   5.432  10.770   1.520  0.0846 -0.0859  0.2836
 2804W        W18988   9.309  10.587  11.944 -0.0659  0.1299  0.1940
 2805W        W18989   1.355  11.683  11.125  0.2049  0.1854  0.0801
 2806W        W18990   9.978   4.970   3.264  0.2051  0.0500 -0.2095
 2807W        W18991   8.171   1.623   0.109  0.1497 -0.1081  0.0336
 2808W        W18992  14.436   1.234  11.911  0.1039 -0.1472 -0.0692
 2809W        W18993  18.045   9.603   2.544  0.1042  0.3494  0.1201
 2810W        W18994   2.924  10.708  12.840  0.0746 -0.0542 -0.0303
 2811W        W18995  11.144   9.191  14.547  0.2386 -0.1843 -0.0093
 2812W        W18996   1.958   4.705  14.790 -0.2003 -0.1638  0.2487
 2813W        W18997  15.386   5.728   4.750 -0.0352  0.1381  0.3119
 2814W        W18998   6.692  11.897  11.979 -0.0695 -0.3869  0.0635
 2815W        W18999  13.241  17.666   1.583 -0.1846 -0.0449 -0.0812
 2816W        W19000  10.569   4.782  14.143  0.1078 -0.1962 -0.1231
 2817W        W19001   1.218  13.503   3.695 -0.0794 -0.3447  0.0814
 2818W        W19002   9.813  14.229  13.056  0.2473 -0.0191 -0.3028
 2819W        W19003  14.621  12.707   3.051  0.2326  0.0808 -0.0367
 2820W        W19004   9.893  14.473  13.688 -0.0388  0.1027  0.3152
 2821W        W19005   7.324   9.124  11.641  0.1763  0.2053  0.2474
 2822W        W19006  11.345  18.311   4.477 -0.1727 -0.0367 -0.1140
 2823W        W19007   9.467  13.212  15.114 -0.2418 -0.3643 -0.0086
 2824W        W19008  12.571   6.783  14.986  0.0898 -0.0079 -0.2192
 2825W        W19009  16.833  16.533   1.972  0.0264  0.2545 -0.2768
 2826W        W19010  12.523   8.454   1.435 -0.1907  0.5103  0.0383
 2827W        W19011   4.236   2.682  14.501 -0.0023 -0.2819 -0.1774
 2828W        W19012   6.766  13.852  11.046  0.2075 -0.0271 -0.2085
 2829W        W19013   0.921   8.185   1.419  0.2207  0.4488  0.2638
 2830W        W19014  16.535   1.456   0.705 -0.2782  0.5911  0.2109
 2831W        W19015  13.033  18.566   4.944 -0.0411  0.2934  0.2257
 2832W        W19016   7.352  16.527   2.486 -0.1186  0.1474 -0.1420
 2833W        W19017   2.980  13.540   2.990 -0.0590  0.3102 -0.0524
 2834W        W19018  11.284   3.992  15.139  0.0329 -0.1424 -0.1670
 2835W        W19019   7.813   0.577  11.274 -0.1817  0.1871 -0.4329
 2836W        W19020  16.466  18.676   9.423 -0.5397 -0.0198  0.0770
 2837W        W19021  15.386  18.615   1.869  0.1646  0.0299 -0.1980
 2838W        W19022   4.561  13.991   2.346  0.0911  0.0110  0.1135
 2839W        W19023   7.875  15.306  14.657  0.1253  0.0508  0.2184
 2840W        W19024   8.441   7.662   5.543  0.3604  0.0723  0.3802
 2841W        W19025   6.551   2.116   2.753 -0.1877  0.4218  0.0366
 2842W        W19026   5.523  18.740  12.233  0.0923 -0.1754  0.2272
 2843W        W19027   2.924  16.820   4.900 -0.1412 -0.1971  0.0558
 2844W        W19028  13.111   1.720  11.744  0.1384 -0.0239  0.2897
 2845W        W19029   3.777  11.974  11.432  0.1514 -0.2829 -0.1479
 2846W        W19030   5.962   2.539  11.212  0.0410 -0.0823  0.0041
 2847W        W19031  14.857  14.018  12.145  0.0686 -0.1139  0.1320
 2848W        W19032   1.454  10.317   1.166  0.0303 -0.1554 -0.0295
 2849W        W19033   8.351   1.609   4.417 -0.0626 -0.0267 -0.2293
 2850W        W19034   7.597   1.365  15.441 -0.2211 -0.1463  0.0768
 2851W        W19035  16.859  13.294  14.859 -0.0052  0.1271 -0.1125
 2852W        W19036   5.870   4.777  13.306  0.0128 -0.1651 -0.1895
 2853W        W19037  12.317   9.075   5.542 -0.0965  0.0276  0.0559
 2854W        W19038   0.369  17.113   0.372  0.2146  0.1823  0.2081
 2855W        W19039   6.537  15.163  11.894  0.2232 -0.0611  0.0927
 2856W        W19040  11.064   9.655  11.617  0.1781 -0.2392  0.0915
 2857W        W19041   8.009  14.109   2.208 -0.1399  0.0341  0.0771
 2858W        W19042  17.166   7.912   5.966  0.1409  0.0269  0.0284
 2859W        W19043   7.341   4.951  13.367  0.0975  0.1346 -0.5038
 2860W        W19044   7.807  17.749  10.793  0.0179  0.2281  0.0938
 2861W        W19045   6.917  10.274   3.244 -0.1054  0.1592 -0.1794
 2862W        W19046  14.985   2.880  12.246  0.2787  0.0830 -0.0713
 2863W        W19047  17.137   8.298   2.494 -0.3394  0.0035  0.2479
 2864W        W19048   1.711   8.792   0.538 -0.0021 -0.0057 -0.1442
 2865W        W19049  12.140  18.791   5.405 -0.0863 -0.3800 -0.2376
 2866W        W19050   9.359   2.215  12.145 -0.0637  0.0623  0.1947
 2867W        W19051   3.232   4.132  14.400  0.3040 -0.2946  0.2790
 2868W        W19052   4.861   0.145   1.898 -0.3630  0.0185 -0.0692
 2869W        W19053   5.691   3.930  11.970  0.2945 -0.2351  0.5400
 2870W        W19054   6.091   6.745   4.142 -0.2848  0.0195 -0.0019
 2871W        W19055  11.600  11.216  13.398  0.2391 -0.3725  0.2765
 2872W        W19056   4.623  11.474  13.254 -0.0956  0.4066 -0.0449
 2873W        W19057   9.810   1.614   5.859 -0.1987 -0.1032 -0.1388
 2874W        W19058  11.354  15.440  14.484 -0.1632 -0.0785  0.0410
 2875W        W19059  17.093  17.040   3.221 -0.0770  0.1740  0.4469
 2876W        W19060   2.882   5.887   2.343  0.2537  0.2582  0.3025
 2877W        W19061   9.259   6.136  12.060  0.2148 -0.0316 -0.0460
 2878W        W19062  18.174   5.682  11.425  0.1112 -0.0849 -0.2578
 2879W        W19063   1.485   4.462   1.135  0.1828 -0.1042  0.5295
 2880W        W19064  12.520   3.531   2.987 -0.4117 -0.2328 -0.2531
 2881W        W19065   4.199   9.757  11.716 -0.2738 -0.0747  0.0545
 2882W        W19066   0.736   8.567  12.344  0.1577 -0.3113 -0.1967
 2883W        W19067  16.457  10.641   0.749  0.2246 -0.2376 -0.0413
 2884W        W19068  11.284  13.872  11.409  0.3988 -0.1387  0.0995
 2885W        W19069   2.259  14.137   1.155  0.1137  0.1870  0.1142
 2886W        W19070  11.744   6.662   4.587  0.0167  0.0934  0.1335
 2887W        W19071  12.760  13.021   4.589 -0.0578  0.3014  0.3446
 2888W        W19072  11.230  15.092   0.760 -0.1037  0.4068 -0.2813
 2889W        W19073   5.245  17.672  11.896  0.1309 -0.0943 -0.1830
 2890W        W19074   8.435  17.576   5.176  0.2635  0.1732 -0.2389
 2891W        W19075  11.496   4.216   3.101 -0.0032 -0.0454 -0.0423
 2892W        W19076  13.900  15.041  12.631  0.2562 -0.2920 -0.1516
 2893W        W19077   6.074  10.304  10.874  0.1589 -0.1147 -0.1602
 2894W        W19078  16.421   0.722  13.411  0.0418 -0.0966  0.0050
 2895W        W19079   4.842  14.925  13.860 -0.2775  0.1851 -0.3238
 2896W        W19080  15.761   6.923  10.766  0.3061 -0.0267 -0.2202
 2897W        W19081   0.490  18.026  11.757  0.2670  0.0633 -0.0897
 2898W        W19082   0.773   1.619  11.621  0.0936  0.0322 -0.0888
 2899W        W19083  15.635  16.951  10.782  0.0293 -0.1420 -0.1275
 2900W        W19084   3.052   8.007   1.229 -0.2012 -0.2677 -0.0001
 2901W        W19085   5.910  12.422  15.331  0.3141 -0.2175  0.0027
 2902W        W19086   2.491   3.031  14.902  0.2344  0.1486  0.1491
 2903W        W19087  14.348   8.348  12.118  0.1785 -0.2265  0.1914
 2904W        W19088   5.359  17.110   0.406 -0.0940  0.1835  0.2535
 2905W        W19089   8.237  12.892   5.705 -0.1106  0.0295 -0.0896
 2906W        W19090   7.947  11.081   5.969 -0.2125  0.1212 -0.0406
 2907W        W19091  17.292   3.424  13.916  0.2231 -0.1464  0.0421
 2908W        W19092  13.336   7.958  11.555  0.1449 -0.4922  0.0861
 2909W        W19093  11.086   5.091   0.811  0.0804 -0.0649  0.1756
 2910W        W19094  16.818   7.752  13.233  0.3223 -0.3708 -0.2646
 2911W        W19095   0.113  13.640  14.290  0.1859 -0.1020 -0.2657
 2912W        W19096   8.411  10.631  11.527 -0.0219  0.1191  0.2331
 2913W        W19097  15.434  14.786   9.990 -0.1785  0.4510  0.0368
 2914W        W19098   6.535   9.613  10.943 -0.0924  0.0924  0.1167
 2915W        W19099   4.481   7.231  12.146 -0.0695 -0.2657  0.1419
 2916W        W19100  13.009  13.665   4.047 -0.1918  0.1429  0.0447
 2917W        W19101  10.498  12.425  14.935  0.0177 -0.1250 -0.0122
 2918W        W19102   9.578  11.033   3.858  0.2030 -0.1022  0.1759
 2919W        W19103  14.673  13.139   2.769  0.2475 -0.2882  0.1986
 2920W        W19104   9.015   1.674  13.999 -0.3480 -0.2484 -0.0025
 2921W        W19105  18.374  13.124  11.929  0.2569 -0.0988  0.0395
 2922W        W19106   7.469   6.617  11.043  0.3961 -0.3146  0.0706
 2923W        W19107  17.525   0.473  11.498 -0.2079  0.0150  0.2635
 2924W        W19108  10.111   6.308  11.189 -0.0391  0.0481 -0.0629
 2925W        W19109   7.578  10.323  10.619 -0.1678 -0.0555 -0.2610
 2926W        W19110  10.960   7.539   1.943 -0.1975  0.3406 -0.3110
 2927W        W19111   0.937  12.150   0.375 -0.2494  0.0652  0.1042
 2928W        W19112  12.835   2.384   1.597 -0.3418 -0.3735  0.0397
 2929W        W19113   0.779   9.662  14.520  0.0497 -0.2142 -0.2055
 2930W        W19114  13.818   3.321  15.378  0.0431  0.1244 -0.1221
 2931W        W19115   2.192   3.514   9.529  0.0096  0.1966  0.2134
 2932W        W19116   7.314   2.544   4.048  0.0591 -0.0426 -0.0421
 2933W        W19117   0.058   4.238   4.967  0.0272 -0.1536 -0.1002
 2934W        W19118   3.865   1.173  10.986 -0.0412  0.0256  0.0774
 2935W        W19119  10.486  15.790  11.287  0.0052  0.0868  0.3465
 2936W        W19120  18.242   5.989   4.449  0.0757 -0.3197 -0.1223
 2937W        W19121   6.954   5.446   0.258  0.0802  0.3093 -0.1377
 2938W        W19122   1.252   0.554  12.136 -0.1064  0.3375  0.0557
 2939W        W19123  13.638  11.858   2.754  0.1406 -0.1780  0.4134
 2940W        W19124  11.841   5.320  13.064 -0.3685 -0.3168 -0.1351
 2941W        W19125   4.711  11.948   1.737  0.0171 -0.1852 -0.2187
 2942W        W19126   1.459  14.230  13.024 -0.2742  0.0696 -0.0715
 2943W        W19127   7.392  18.541  13.506  0.0556 -0.4729 -0.0800
 2944W        W19128  12.225  15.955   2.416  0.2522 -0.1464 -0.0214
 2945W        W19129   0.792  14.819  13.223 -0.0760  0.1684 -0.1238
 2946W        W19130   6.923  13.643   4.542 -0.2398 -0.0235  0.1633
 2947W        W19131  18.356  14.350   3.713  0.0255  0.2200 -0.1727
 2948W        W19132   0.124   7.670   1.646  0.0238 -0.0090  0.1877
 2949W        W19133   3.717   0.240  15.532  0.1194  0.0898 -0.1457
 2950W        W19134   1.105  15.951  10.902 -0.0605 -0.1707 -0.0089
 2951W        W19135   6.291   7.530  14.030  0.3424  0.1956 -0.0038
 2952W        W19136   4.923  14.582  12.917  0.0175  0.1456  0.1571
 2953W        W19137   2.911   8.710   1.892 -0.1279 -0.2379  0.1566
 2954W        W19138   2.877  14.742   2.677 -0.0635  0.0999  0.2328
 2955W        W19139   1.417  17.912   3.866 -0.0001  0.2079  0.5019
 2956W        W19140  15.381   5.446   1.695  0.1761 -0.1964  0.3285
 2957W        W19141  17.045   3.406  12.702  0.1917 -0.0918  0.0464
 2958W        W19142   3.756  16.990   2.486  0.1731  0.1908  0.1023
 2959W        W19143   8.860   7.042   0.589  0.0725 -0.2620  0.0335
 2960W        W19144  14.043  15.385   0.766 -0.1316  0.2135  0.1842
 2961W        W19145  11.388   4.289   5.342 -0.0506 -0.0080 -0.3391
 2962W        W19146  10.924   6.264   4.719  0.0574 -0.1441  0.1011
 2963W        W19147   1.322   0.739   5.976  0.2246 -0.0401 -0.1126
 2964W        W19148  10.425  18.241   3.482 -0.0362  0.1967 -0.2697
 2965W        W19149   2.865  13.534   0.359  0.1788  0.1988  0.2980
 2966W        W19150   7.206   2.796  12.594 -0.3134  0.2918 -0.0725
 2967W        W19151   1.394  13.697  11.869  0.1446  0.2445 -0.1341
 2968W        W19152   3.187  17.825  14.437 -0.2173  0.1269  0.0717
 2969W        W19153  18.340   5.514  10.779 -0.2106 -0.0005 -0.5288
 2970W        W19154   0.806  15.096   3.331 -0.0354 -0.2134 -0.0716
 2971W        W19155  13.056  11.655  15.101 -0.1248  0.0113  0.0558
 2972W        W19156   5.450  14.319  13.128  0.2570  0.0425 -0.0372
 2973W        W19157   9.636  14.533  11.883  0.0186 -0.2054  0.0836
 2974W        W19158  15.373   0.095  15.514 -0.1712 -0.3067 -0.0367
 2975W        W19159   1.840   3.180  13.007 -0.0256 -0.2587 -0.0190
 2976W        W19160   2.128  18.596  11.785  0.0388  0.3582 -0.0672
 2977W        W19161   9.357   0.517  14.801 -0.1599 -0.0698 -0.5559
 2978W        W19162  16.119   4.877  14.783  0.0214  0.0077  0.1544
 2979W        W19163   8.210  16.070   0.664 -0.1514  0.0447  0.1636
 2980W        W19164   3.200  11.704   2.865  0.1108 -0.0256  0.1693
 2981W        W19165  11.101   7.165  14.974  0.0732  0.3260 -0.4501
 2982W        W19166   0.705   8.163   4.955 -0.4219 -0.0491  0.1651
 2983W        W19167  15.242  15.594  13.746 -0.0901  0.0927  0.2446
 2984W        W19168   0.214  11.219  13.970  0.0644  0.1248  0.0802
 2985W        W19169  11.528  10.104  11.057 -0.0436 -0.0867  0.4308
 2986W        W19170   3.861   2.856  13.521 -0.1456 -0.2035  0.1823
 2987W        W19171   9.478   3.841   4.189 -0.0213 -0.1972  0.3801
 2988W        W19172   7.794  16.721  10.983  0.2321  0.0586 -0.1572
 2989W        W19173   9.666  15.205  13.254 -0.1311  0.0322 -0.2172
 2990W        W19174  16.782   7.403  12.746 -0.3050  0.1289  0.0141
 2991W        W19175   3.289   6.157  10.472 -0.0484 -0.0559  0.0355
 2992W        W19176  14.093  18.525   3.011 -0.1774  0.0360 -0.0154
 2993W        W19177   7.087  11.025   3.311 -0.3853  0.1937 -0.1297
 2994W        W19178  17.178   7.613  13.656 -0.0833 -0.0274 -0.1088
 2995W        W19179   7.369   5.540   3.987 -0.1649 -0.2411  0.2082
 2996W        W19180   3.706  17.622  14.091  0.0563  0.1556  0.0015
 2997W        W19181  17.965   7.707   4.205 -0.1307  0.0568  0.0906
 2998W        W19182   9.484   6.950  12.650  0.2123  0.1310 -0.0477
 2999W        W19183   0.770  12.885  12.901 -0.1143 -0.2293  0.4209
 3000W        W19184  12.230  14.790   2.677 -0.1535  0.0777 -0.1006
 3001W        W19185  11.787  12.400  10.866  0.2086 -0.1581 -0.2507
 3002W        W19186   2.890   7.262  10.388 -0.3189 -0.0169  0.0081
 3003W        W19187  10.433  10.114   3.119  0.0727 -0.0401  0.1399
 3004W        W19188   3.740   6.542  13.738 -0.0186 -0.0909 -0.1284
 3005W        W19189   6.639  14.292  15.465  0.1169 -0.1011  0.0413
 3006W        W19190  11.788  18.611  11.662 -0.0992  0.1098  0.2379
 3007W        W19191  17.751  18.266   1.447 -0.0356 -0.1627  0.1982
 3008W        W19192   8.065   4.687  10.918  0.2082 -0.0965 -0.0236
 3009W        W19193   7.769  18.623   5.662 -0.2082 -0.0290 -0.2419
 3010W        W19194   4.954  11.278  13.901 -0.2345 -0.1285 -0.1037
 3011W        W19195   9.035  13.417  15.440 -0.0869 -0.1524  0.0823
 3012W        W19196   6.806   8.814  10.837 -0.0749 -0.1248 -0.3850
 3013W        W19197   1.659   0.738  11.961  0.2040 -0.0885  0.0330
 3014W        W19198  11.112  13.071  13.063 -0.1523  0.0194  0.0335
 3015W        W19199   5.997   7.365  14.429 -0.0277 -0.1975  0.0623
 3016W        W19200   2.209   5.956  13.884 -0.3043  0.1378  0.1110
 3017W        W19201   2.958   2.854   1.491 -0.2643 -0.3106 -0.1513
 3018W        W19202  18.535   0.571   2.422 -0.2644 -0.0806 -0.3126
 3019W        W19203  13.709   7.284  11.118  0.0671 -0.1377  0.0742
 3020W        W19204   3.762   8.358   4.682  0.0010  0.2741  0.2879
 3021W        W19205  12.316  13.414   4.629  0.0743  0.2912  0.1037
 3022W        W19206  13.855   8.859   1.792 -0.5426  0.3592  0.2128
 3023W        W19207  11.624   0.377   4.830  0.2085  0.1822  0.0909
 3024W        W19208  15.522   6.362   9.841 -0.1274  0.0165 -0.1924
 3025W        W19209   0.234  10.438  14.179 -0.0476 -0.0048  0.0534
 3026W        W19210   2.378   8.867   0.081  0.0867  0.0294 -0.0188
 3027W        W19211  10.856  10.661   2.365 -0.0395  0.0649  0.1531
 3028W        W19212  11.028  13.617   3.651  0.1191  0.1812  0.1369
 3029W        W19213   9.691   5.879   2.094  0.1624 -0.0876  0.2708
 3030W        W19214   8.849  17.676   4.842 -0.0849  0.2759  0.2324
 3031W        W19215   5.911   9.667   4.049 -0.0756  0.0565 -0.1602
 3032W        W19216  12.435   7.733   1.577  0.2198 -0.0610 -0.3083
 3033W        W19217  14.254   2.106   2.971 -0.0431  0.0715  0.0264
 3034W        W19218  15.267  11.721  13.333 -0.0942  0.0715 -0.0213
 3035W        W19219  11.717   8.995  13.640 -0.1121 -0.1323  0.2178
 3036W        W19220  12.782  10.516   2.695  0.0607 -0.1459  0.0784
 3037W        W19221   6.683   4.850  13.438 -0.0219 -0.0742 -0.1449
 3038W        W19222   2.269   1.141  14.317 -0.1383  0.2800  0.0157
 3039W        W19223   0.174  15.072  13.372 -0.0267  0.3368  0.0086
 3040W        W19224  15.097  14.014   3.215 -0.1987  0.0936  0.2162
 3041W        W19225   6.321  14.961   2.279  0.0088  0.1729  0.2553
 3042W        W19226  14.903   1.774  13.047  0.0150  0.0019  0.0842
 3043W        W19227  17.981  11.772  14.131  0.2422  0.0660  0.0115
 3044W        W19228  17.883   1.354  11.322 -0.0662  0.2458  0.1332
 3045W        W19229  11.027   0.481   1.422  0.0465 -0.0679  0.1733
 3046W        W19230  15.830   0.639   1.983 -0.1096  0.1321  0.3839
 3047W        W19231  14.120  13.597   5.151  0.0158  0.0093 -0.1276
 3048W        W19232   5.887   7.522  10.565 -0.2346 -0.1228 -0.1807
 3049W        W19233  10.190   2.368  11.858  0.0438  0.2587 -0.0672
 3050W        W19234   9.258   7.908   1.432 -0.1301  0.0638  0.0653
 3051W        W19235  14.484   0.663   0.850  0.0618  0.0081  0.0706
 3052W        W19236  14.929  15.645   4.561  0.1227 -0.2180  0.0560
 3053W        W19237   6.272   2.844   2.563 -0.1775  0.0125 -0.3571
 3054W        W19238  11.439   4.783  12.625 -0.1455 -0.1955 -0.3492
 3055W        W19239   1.025  17.632  11.126  0.1437  0.1400 -0.0213
 3056W        W19240   7.748   7.792   0.975  0.0334 -0.3632  0.1800
 3057W        W19241   6.829   1.259  15.063  0.0100 -0.0354  0.1170
 3058W        W19242  13.289   5.186  12.509  0.0499  0.0970  0.0476
 3059W        W19243  13.863  17.821  14.313  0.1475 -0.3395 -0.0473
 3060W        W19244  12.342   5.956   1.049  0.1946 -0.2701 -0.0237
 3061W        W19245   9.853  10.669   1.799 -0.1867 -0.2697  0.1024
 3062W        W19246   9.476  16.212  10.398 -0.0047 -0.0860  0.0299
 3063W        W19247   9.212   9.096  14.977 -0.1963  0.5040 -0.0029
 3064W        W19248   6.854  14.582   4.700  0.0736  0.1084 -0.0132
 3065W        W19249   9.927  11.057   3.437 -0.3746  0.1146  0.0797
 3066W        W19250  17.411  10.665  11.490 -0.2816  0.0217 -0.0617
 3067W        W19251   6.989  14.726  13.659 -0.0961 -0.1834  0.1286
 3068W        W19252   4.438  11.302   2.489 -0.1555 -0.3302  0.0017
 3069W        W19253  15.880   5.942   0.096 -0.2326 -0.0278  0.0860
 3070W        W19254   8.531  13.126  10.887 -0.1813  0.0595  0.3430
 3071W        W19255  12.808  17.203  13.983  0.2355 -0.2972  0.0745
 3072W        W19256   6.002  12.278   5.090 -0.0889 -0.1885  0.1265
 3073W        W19257   9.835   8.633   3.716  0.0750  0.0061  0.5168
 3074W        W19258   5.357   1.142  13.452 -0.0070  0.2631  0.0808
 3075W        W19259   6.895  15.416  12.858  0.3939  0.0835 -0.1955
 3076W        W19260  16.454  18.530   4.901  0.0606  0.0798  0.0916
 3077W        W19261  17.331   7.587   3.048  0.0402 -0.0627  0.1152
 3078W        W19262  10.303   9.160  14.796 -0.1460  0.0950 -0.0496
 3079W        W19263   4.283   2.092   0.589 -0.0331 -0.2088 -0.2272
 3080W        W19264  10.172   1.839   3.946  0.3367 -0.1465 -0.2963
 3081W        W19265   2.761   8.028  15.501  0.0780 -0.1576 -0.0260
 3082W        W19266  13.271   8.992   1.338  0.0747  0.0244 -0.1594
 3083W        W19267  13.867  18.291   1.803  0.3043 -0.1055 -0.1305
 3084W        W19268  11.205  17.669  15.085 -0.1558  0.0760  0.1575
 3085W        W19269  18.695  14.593   3.387 -0.0815 -0.0337  0.1268
 3086W        W19270   1.161   1.907   0.250  0.0533  0.5079 -0.0603
 3087W        W19271   0.483   1.862   1.463 -0.3056  0.1700 -0.1726
 3088W        W19272   8.558   6.491  13.411 -0.1457 -0.1322  0.2217
 3089W        W19273  12.585  13.980   5.908  0.0185 -0.0941  0.0062
 3090W        W19274   6.699  16.361  14.374 -0.0805 -0.3487  0.0093
 3091W        W19275   6.436  11.391   5.456 -0.1441 -0.2554 -0.0387
 3092W        W19276   1.125  10.153  12.827  0.1447  0.1217 -0.1440
 3093W        W19277   1.276   8.205   3.207  0.2631  0.1633  0.0214
 3094W        W19278   7.762  12.811  13.360  0.2278  0.1623 -0.2172
 3095W        W19279   7.193   7.078  13.366 -0.0702 -0.2185 -0.3744
 3096W        W19280   5.609  18.189  10.063  0.0503  0.1274 -0.1008
 3097W        W19281  15.771   1.843   1.617 -0.0548 -0.2524  0.1811
 3098W        W19282   0.206  17.100   2.759 -0.1592  0.2461 -0.0722
 3099W        W19283  17.558   1.725   3.401 -0.0610  0.2597  0.1768
 3100W        W19284  17.205   7.829   1.213 -0.3458  0.2829 -0.0515
 3101W        W19285  14.492   3.575   4.582  0.1924 -0.0378  0.0308
 3102W        W19286   7.861  15.189  13.188  0.2509  0.0611  0.0059
 3103W        W19287   2.658  16.685  12.565 -0.1026 -0.0015  0.1743
 3104W        W19288  11.036  17.927  12.630 -0.0712  0.0702  0.2391
 3105W        W19289  15.526   1.574  14.198 -0.1749  0.3141 -0.4477
 3106W        W19290  10.041  14.206   2.903 -0.3372 -0.1908 -0.0693
 3107W        W19291   7.718   6.837  12.043  0.0629 -0.0874 -0.0358
 3108W        W19292   1.931   0.055   0.288 -0.1377 -0.1185 -0.2852
 3109W        W19293  17.142   3.757   5.144  0.1944  0.0008  0.0990
 3110W        W19294   9.383   8.407  11.042  0.4556  0.0195 -0.1585
 3111W        W19295  12.718   5.201  10.593  0.2559  0.1642  0.2377
 3112W        W19296   9.990   3.446   3.610  0.2173  0.0317  0.2955
 3113W        W19297   4.159  12.985   2.027  0.3409 -0.1195 -0.3142
 3114W        W19298   9.555   4.252   5.120 -0.1213 -0.0458  0.2281
 3115W        W19299   9.338  13.592   2.583 -0.1229 -0.1579 -0.0184
 3116W        W19300   3.888   4.363   0.107  0.0922  0.1684 -0.0478
 3117W        W19301   2.774   3.526   5.292  0.2129  0.4756  0.0414
 3118W        W19302   0.524   7.948   0.408  0.2849  0.1099  0.1810
 3119W        W19303  10.992   7.303   3.204  0.2537  0.1847  0.1950
 3120W        W19304   8.345  11.515   0.935  0.1778  0.0479 -0.3234
 3121W        W19305   8.277  13.893  13.653  0.1622 -0.0370  0.0235
 3122W        W19306   9.154   3.777   0.028 -0.0338  0.0700  0.1557
 3123W        W19307  10.416  18.012   3.951 -0.1095  0.2660  0.2464
 3124W        W19308   1.569   2.798  14.843 -0.0624 -0.0325  0.2801
 3125W        W19309   3.045  18.180   1.993 -0.1849 -0.1948  0.2175
 3126W        W19310  15.122   0.627   4.401  0.0071  0.1435  0.1278
 3127W        W19311  11.097  18.306  14.525 -0.1420 -0.1789 -0.0177
 3128W        W19312   7.946   8.315  15.064  0.0203 -0.3474 -0.3101
 3129W        W19313   7.241   1.056   3.261  0.3441 -0.0997  0.1848
 3130W        W19314  16.769  11.368   2.231  0.1455 -0.1609  0.0272
 3131W        W19315   2.387   5.232  15.409 -0.0944 -0.1474 -0.0026
 3132W        W19316   6.966  16.046   1.021  0.2568 -0.0626  0.2468
 3133W        W19317   9.548   7.193   4.806 -0.1710 -0.0515  0.1957
 3134W        W19318  17.614  11.811  12.171 -0.1555  0.3436 -0.0565
 3135W        W19319  14.163  11.827  14.407 -0.1060 -0.1789  0.3256
 3136W        W19320  13.676   8.388  13.947 -0.1939 -0.1617 -0.4934
 3137W        W19321  16.568   0.947  11.568  0.0320 -0.0333  0.0524
 3138W        W19322   2.572   0.140   4.092 -0.0074 -0.0134 -0.1141
 3139W        W19323  18.469  15.546  12.745  0.2598 -0.0479 -0.0560
 3140W        W19324  10.986  10.639   2.838 -0.1220  0.0052  0.3756
 3141W        W19325   6.517  17.289   1.506  0.1038  0.1576  0.3298
 3142W        W19326   6.305   1.056   3.067  0.0928 -0.0804 -0.2662
 3143W        W19327  18.477   8.166  13.181 -0.0814  0.1415 -0.0295
 3144W        W19328   0.105  13.069   0.087 -0.1378 -0.1566  0.1297
 3145W        W19329   4.464   4.559  14.957 -0.0425  0.1248 -0.0036
 3146W        W19330  18.568  10.128   4.120 -0.1672 -0.2336 -0.2605
 3147W        W19331   7.458  14.885   4.493 -0.0150  0.0358 -0.1127
 3148W        W19332  13.910  16.844   0.083  0.0554 -0.2948 -0.0637
 3149W        W19333  18.682  17.377   3.176 -0.0110 -0.3538  0.0111
 3150W        W19334   5.819  17.168   4.288  0.0583 -0.1447  0.0483
 3151W        W19335   0.029   8.287  15.022 -0.0811 -0.1524 -0.0907
 3152W        W19336  16.885  10.082  15.149  0.1677 -0.2433  0.0151
 3153W        W19337  12.127  12.381   0.952 -0.1514 -0.0455  0.4007
 3154W        W19338  10.024   0.928   5.670  0.1970 -0.0597  0.0729
 3155W        W19339  12.521   5.238   5.090 -0.1682  0.0264  0.2159
 3156W        W19340  18.266  13.481  11.598 -0.1562 -0.0648 -0.1496
 3157W        W19341  17.455  15.010  12.021  0.2711  0.2711 -0.0477
 3158W        W19342  17.003  12.606   4.914  0.0260 -0.1103 -0.0448
 3159W        W19343  18.601  13.414   4.855 -0.0279 -0.0476  0.3347
 3160W        W19344   4.922  15.771   1.266  0.1360 -0.3915 -0.1086
 3161W        W19345   7.632   4.092  12.583  0.1777 -0.0695 -0.2037
 3162W        W19346   2.476   6.448  12.096  0.0553 -0.0724 -0.0622
 3163W        W19347  13.366  18.294   5.100  0.1175 -0.0289 -0.2561
 3164W        W19348   1.077   6.374   3.054  0.1058 -0.0222 -0.2444
 3165W        W19349   9.575   6.672   3.090 -0.0750 -0.0543  0.0017
 3166W        W19350  11.189  18.161  14.091 -0.0585  0.2954 -0.2595
 3167W        W19351   6.923  15.176   0.282  0.0441  0.2246  0.0769
 3168W        W19352  17.194   0.557  11.026 -0.2690  0.1722 -0.1151
 3169W        W19353   3.002  14.155  11.358 -0.2142  0.3590  0.2572
 3170W        W19354  11.601   7.639  11.201 -0.0032  0.1916  0.0585
 3171W        W19355  12.073   4.608  11.731 -0.2982 -0.0808 -0.0567
 3172W        W19356   8.924  17.619  14.726 -0.0575  0.5307 -0.4877
 3173W        W19357  13.330  11.797  13.494  0.0584 -0.1074 -0.1703
 3174W        W19358   6.132   7.768   3.717  0.0544  0.3683 -0.0954
 3175W        W19359   8.025  12.257   3.655  0.0355 -0.0409 -0.0655
 3176W        W19360   2.378  15.566  12.755 -0.2079  0.2173  0.2845
 3177W        W19361  10.373   7.231  14.279  0.0370 -0.0870 -0.1703
 3178W        W19362   3.780   2.523  14.472 -0.0551  0.1063  0.3603
 3179W        W19363   7.749   5.514  15.381 -0.0083  0.0541 -0.1182
 3180W        W19364   0.998   9.529  12.224 -0.0648 -0.3982  0.1948
 3181W        W19365  15.684   0.902   4.269  0.1783 -0.0181  0.0060
 3182W        W19366   2.434  17.485   1.097 -0.0983 -0.0547 -0.2429
 3183W        W19367  17.840  17.244  10.865  0.2210  0.1737 -0.0076
 3184W        W19368  14.495   0.803   3.670 -0.1285  0.2716 -0.0085
 3185W        W19369  18.357  12.634   1.548  0.1756 -0.1766 -0.0204
 3186W        W19370  18.713   0.715   0.339 -0.0418  0.3587  0.4247
 3187W        W19371  14.864   4.866  11.213 -0.3004  0.1051  0.1031
 3188W        W19372   5.727   8.241  13.442 -0.1581 -0.3036 -0.2254
 3189W        W19373   6.486   2.721   0.567  0.1657  0.1162 -0.2391
 3190W        W19374  14.145  14.485  15.031 -0.1904 -0.0869  0.4006
 3191W        W19375  11.556  14.588  14.683  0.1076  0.1899  0.1054
 3192W        W19376   0.070   8.815   1.880  0.2315 -0.1722 -0.0561
 3193W        W19377   3.765   5.491  11.140 -0.0988 -0.2080  0.2041
 3194W        W19378   7.703  12.283   3.287 -0.1802  0.1706 -0.0751
 3195W        W19379   3.149  16.242   0.990  0.3828  0.2506  0.2968
 3196W        W19380  15.111  15.996   0.701 -0.2116 -0.0844  0.0487
 3197W        W19381  15.300  18.709  10.759  0.3313 -0.1366  0.4984
 3198W        W19382   6.982   5.263  13.228  0.0052  0.0838  0.0404
 3199W        W19383  11.510  14.195   5.936  0.0058  0.1079  0.0359
 3200W        W19384  16.505   8.103   1.132  0.5446  0.4156  0.4884
 3201W        W19385   2.264  14.766  10.272 -0.1294 -0.2430  0.0486
 3202W        W19386   8.130   4.057   2.405 -0.3886  0.1080  0.0786
 3203W        W19387   3.788  10.510  12.471  0.2232  0.0516  0.1600
 3204W        W19388  16.220   1.284  13.279 -0.2488 -0.2166 -0.1987
 3205W        W19389   3.789  12.686   3.690  0.1953 -0.2067  0.2895
 3206W        W19390   4.839  13.286  12.575 -0.1354  0.0463 -0.1170
 3207W        W19391  18.778  12.196   0.561  0.5854 -0.2466 -0.2048
 3208W        W19392  18.130  16.325  12.533 -0.1472  0.0456  0.1173
 3209W        W19393  12.235   0.880   2.377  0.1279  0.1408  0.1663
 3210W        W19394   6.141   0.691   1.547  0.0627  0.0298 -0.0579
 3211W        W19395   8.961  14.779   5.612  0.1238  0.3166 -0.2366
 3212W        W19396  13.968  16.358  14.676  0.0326 -0.1765 -0.0147
 3213W        W19397   8.266  11.415  10.504  0.0657 -0.3731 -0.2172
 3214W        W19398   9.819  15.810   0.299 -0.3127  0.0167  0.0548
 3215W        W19399  15.206   8.449  11.478  0.0457  0.3477 -0.1013
 3216W        W19400  12.973  15.500  10.887  0.0972 -0.0772 -0.1628
 3217W        W19401  16.425   5.340   5.127 -0.5106  0.3085  0.1784
 3218W        W19402  17.740   1.440  14.182 -0.1437  0.1170  0.2399
 3219W        W19403  16.528   4.873   4.964 -0.0361  0.0864 -0.1163
 3220W        W19404   7.401  12.297  13.331 -0.3268  0.1207  0.0342
 3221W        W19405   5.363   5.716   3.535  0.1360 -0.3534  0.0778
 3222W        W19406   5.198  15.757  12.740  0.1645 -0.2554  0.1845
 3223W        W19407   5.644  14.774  14.076  0.1664  0.1410  0.0445
 3224W        W19408   6.170   0.144   5.222 -0.0732  0.0862 -0.0965
 3225W        W19409   9.291  12.544   3.032 -0.0124  0.1261 -0.1204
 3226W        W19410   6.779   4.231   2.502  0.4051 -0.0819 -0.3486
 3227W        W19411   5.190  14.996   3.289  0.0655 -0.0289  0.2623
 3228W        W19412   3.581   2.071  11.295  0.2328  0.3709  0.2912
 3229W        W19413   8.507   6.149   0.192 -0.1473  0.0462 -0.1627
 3230W        W19414   8.520   3.931   4.463 -0.0879  0.0164  0.0304
 3231W        W19415  13.342   7.990   2.578 -0.1072  0.0174 -0.0380
 3232W        W19416   1.459   0.544   5.316  0.1915 -0.2030 -0.1817
 3233W        W19417   5.607  16.234  10.089  0.2065  0.0758  0.1182
 3234W        W19418   4.864   2.979   0.361  0.0899 -0.3011  0.3201
 3235W        W19419  16.610  15.518   1.063 -0.0928 -0.0020  0.2321
 3236W        W19420  15.074  10.246   4.921 -0.0602  0.0400 -0.2091
 3237W        W19421  15.771   9.245   3.302  0.1518  0.2044 -0.0262
 3238W        W19422   0.940  17.006  14.583  0.0147 -0.0807  0.0187
 3239W        W19423   2.343   3.872  12.489  0.1519  0.1220 -0.2893
 3240W        W19424  16.697   7.098   3.090  0.1495  0.2491 -0.0539
 3241W        W19425  18.128  14.842   5.257 -0.1700 -0.0770  0.3148
 3242W        W19426  10.003   0.708  15.016 -0.0779 -0.1116  0.1184
 3243W        W19427  11.887   1.893  13.120  0.1032  0.0420 -0.0610
 3244W        W19428   9.900  18.605  12.706  0.0560  0.1449 -0.3469
 3245W        W19429   6.221  17.236  13.120 -0.2687 -0.0233  0.3843
 3246W        W19430  16.535   5.197  14.806  0.1252 -0.0633 -0.0796
 3247W        W19431   3.791   0.683  14.253 -0.0303  0.2031  0.0961
 3248W        W19432  13.513  11.748   3.267 -0.0363 -0.1672 -0.1104
 3249W        W19433   1.295  13.617  12.399 -0.0006 -0.0222  0.2552
 3250W        W19434   8.282  14.721  13.749  0.1464 -0.0882  0.1137
 3251W        W19435   2.360   6.069   4.263  0.1347  0.2879 -0.0027
 3252W        W19436   4.523  15.934  15.234  0.4232 -0.0599 -0.0034
 3253W        W19437  15.393  17.848  14.792  0.0578  0.0757  0.3292
 3254W        W19438  10.321  18.605  15.033  0.1831 -0.0731  0.2058
 3255W        W19439  17.383  13.404   1.187 -0.1633  0.3309 -0.1702
 3256W        W19440   8.767  17.178   0.268  0.0317  0.0780 -0.2426
 3257W        W19441   0.760  10.412   0.768 -0.1941  0.0142  0.0420
 3258W        W19442   3.483  18.531   2.175 -0.0551  0.2722 -0.0206
 3259W        W19443   8.548   7.435  11.148  0.1143  0.2466  0.0575
 3260W        W19444   4.714  11.159   0.765 -0.3191  0.0905  0.1702
 3261W        W19445   3.993   1.592   3.776  0.2399  0.0339  0.1354
 3262W        W19446   1.875  14.301  12.745  0.2221  0.5769  0.0243
 3263W        W19447  11.380  17.632  12.266 -0.1315 -0.0262 -0.0250
 3264W        W19448  16.064   5.375  12.132  0.0518  0.1164 -0.0509
 3265W        W19449  17.104   2.809   2.639 -0.0023 -0.1028  0.0249
 3266W        W19450   1.387   2.379  10.806 -0.0952 -0.0127  0.0017
 3267W        W19451  14.972   9.632   2.785  0.0498 -0.1926 -0.1036
 3268W        W19452  16.108  14.119   1.719  0.1336  0.1207 -0.1266
 3269W        W19453  16.721   6.741  11.809  0.0347  0.2795 -0.3928
 3270W        W19454  14.514   6.965  12.758  0.0203 -0.1706  0.0208
 3271W        W19455  12.037   8.833   3.185  0.1133 -0.0000 -0.0823
 3272W        W19456   1.698   8.038  11.619  0.0601 -0.1690 -0.1743
 3273W        W19457   3.115   8.213  13.952 -0.0667 -0.0902 -0.0446
 3274W        W19458   4.537   2.364   1.406 -0.3062  0.1479 -0.0378
 3275W        W19459  18.260   3.529  10.373 -0.0493  0.0714  0.2740
 3276W        W19460   3.986   8.507  12.779 -0.1797  0.0791  0.1148
 3277W        W19461  14.943  15.033   1.116 -0.1151 -0.1538  0.1439
 3278W        W19462  10.193  16.597   2.088  0.1606 -0.0827  0.1131
 3279W        W19463   1.213  10.059  11.617  0.5391  0.2672 -0.1274
 3280W        W19464  14.845  14.488   5.281  0.3448  0.1991  0.1509
 3281W        W19465  11.458  16.211   3.693  0.1201 -0.0886  0.2604
 3282W        W19466  17.901  13.111  10.958 -0.0079  0.0449  0.2754
 3283W        W19467  18.063  16.993  13.095  0.0658  0.0924  0.1703
 3284W        W19468  16.490  12.797  11.751 -0.0388  0.1826 -0.0885
 3285W        W19469   7.995  10.815  11.347 -0.3296 -0.0683  0.1496
 3286W        W19470   5.672   9.064  14.792 -0.2015  0.1753 -0.1023
 3287W        W19471   0.599   0.002  10.939  0.0784  0.2840 -0.1734
 3288W        W19472   6.768   5.584   1.535 -0.0332 -0.0347 -0.0897
 3289W        W19473   9.869  11.970   1.244 -0.1494  0.1044  0.0893
 3290W        W19474   6.848  13.217   3.115  0.1207 -0.1740  0.0510
 3291W        W19475   7.117   0.909  12.872  0.2156 -0.1405 -0.0710
 3292W        W19476   4.046   9.121  12.340  0.0722  0.1674 -0.1997
 3293W        W19477  18.072   9.743   3.314 -0.2779  0.0974 -0.2304
 3294W        W19478  13.243   6.733   0.741  0.1168  0.1637 -0.0407
 3295W        W19479  11.188   3.212   0.986  0.0929 -0.0034  0.1359
 3296W        W19480   3.138  16.983  10.368 -0.0932 -0.1798 -0.0116
 3297W        W19481   3.111   6.190   1.182  0.0318 -0.4009  0.1130
 3298W        W19482  14.800   1.158   3.850 -0.0403  0.0189  0.0003
 3299W        W19483   3.484   7.628   0.343  0.2981 -0.0314 -0.2544
 3300W        W19484   6.507   5.863  15.015 -0.0913  0.3810  0.1654
 3301W        W19485  12.171   2.633  14.059  0.0624 -0.3619  0.0311
 3302W        W19486   2.300  15.060   0.180  0.0602 -0.0639 -0.3093
 3303W        W19487   1.689   4.871  13.405 -0.2082 -0.0517  0.2388
 3304W        W19488   2.693  18.712  13.747 -0.1577 -0.0665  0.0062
 3305W        W19489   7.541  13.459  14.198 -0.2834  0.1146  0.1928
 3306W        W19490  12.644   0.550   3.766 -0.0405 -0.4680 -0.0648
 3307W        W19491  15.750   2.491  14.355 -0.1696 -0.0661 -0.2110
 3308W        W19492  14.869   0.411  14.104 -0.1824 -0.0114  0.0407
 3309W        W19493  14.463   5.097   0.601  0.2792 -0.3142 -0.1249
 3310W        W19494  10.653  17.189   2.961  0.1802 -0.2673  0.1390
 3311W        W19495  15.554   9.219  14.598  0.1413 -0.4668  0.0708
 3312W        W19496   5.693  17.250  13.889  0.0763  0.0288  0.1842
 3313W        W19497   8.046  18.257  15.420 -0.0270  0.1350  0.2160
 3314W        W19498   5.050  18.418  13.933  0.1384 -0.1743 -0.0455
 3315W        W19499   1.298   9.096  15.034  0.0543  0.1166 -0.0241
 3316W        W19500   8.307  10.722   5.838 -0.1090  0.0028 -0.0803
 3317W        W19501  11.284   1.913   1.054 -0.0394  0.1569  0.0523
 3318W        W19502   7.920   9.983   3.993  0.1409 -0.1395 -0.3688
 3319W        W19503   3.321   3.636   2.038  0.0699  0.2493 -0.2544
 3320W        W19504  15.122  16.657   3.135 -0.1026 -0.1116 -0.0086
 3321W        W19505   9.664  18.671   4.999 -0.2300  0.0405  0.0740
 3322W        W19506  11.548   6.834  14.998 -0.2887  0.1127 -0.0778
 3323W        W19507   7.624   3.482  13.776  0.0574  0.0013  0.2600
 3324W        W19508  12.726   7.261  11.285 -0.0524 -0.0391  0.3927
 3325W        W19509  16.202   3.924  13.675  0.0456 -0.1419 -0.1048
 3326W        W19510  11.920  18.653  13.803  0.1362  0.0117  0.2810
 3327W        W19511   1.709  17.526   5.764  0.3108 -0.1622  0.0174
 3328W        W19512   8.957  10.945   1.187 -0.0467 -0.0646  0.2846
 3329W        W19513   0.220   1.093   4.474 -0.4197  0.1589 -0.1089
 3330W        W19514  12.917  14.841  13.187  0.2353 -0.3756  0.0833
 3331W        W19515   8.602  18.345  14.437 -0.0352 -0.2261  0.0530
 3332W        W19516  18.346   5.986   4.970 -0.0614  0.0603 -0.2073
 3333W        W19517   5.131   8.352  11.907  0.0067 -0.1940  0.4090
 3334W        W19518  14.980  11.470   1.430  0.2008  0.1215  0.0808
 3335W        W19519  15.222   5.713  11.220  0.1707  0.1266  0.1504
 3336W        W19520  10.822  15.178   5.053 -0.1684 -0.2317 -0.0090
 3337W        W19521  14.124   3.753   4.979  0.3115 -0.3660 -0.3644
 3338W        W19522  12.369  12.176  14.371  0.1779  0.0930  0.0229
 3339W        W19523  12.983  18.198   1.495 -0.2081  0.1044 -0.1482
 3340W        W19524   0.219   1.579   0.063 -0.3211 -0.1503  0.2872
 3341W        W19525   5.756   9.162  15.289 -0.0897  0.3844 -0.0051
 3342W        W19526   8.630  12.979  11.349 -0.3280 -0.3360 -0.0202
 3343W        W19527  10.786   8.924   2.510 -0.0646 -0.2129 -0.3553
 3344W        W19528  13.043  10.945   3.597  0.2765 -0.2605  0.0278
 3345W        W19529   4.968  12.749   4.333  0.1234 -0.0961  0.0728
 3346W        W19530   2.784  11.840  15.128 -0.0254 -0.1733 -0.1502
 3347W        W19531  15.860   3.410  14.434 -0.2473 -0.2190 -0.0299
 3348W        W19532   1.708  10.681   0.231 -0.1280 -0.0480 -0.2833
 3349W        W19533   2.140  13.147   4.067 -0.0950  0.1680 -0.2102
 3350W        W19534   1.077   4.527  12.054 -0.4015 -0.1321  0.3752
 3351W        W19535  17.493  11.371   2.734 -0.0093 -0.0198 -0.0596
 3352W        W19536  16.214   2.709  11.386  0.0035 -0.0005 -0.1110
 3353W        W19537  15.104   4.779   0.004  0.0933  0.4365 -0.2776
 3354W        W19538   4.170  16.745   3.309 -0.0867 -0.1246 -0.3199
 3355W        W19539  15.856  12.468   2.749 -0.0593 -0.0767 -0.3354
 3356W        W19540  10.678   0.267   0.193 -0.0458  0.1105  0.1686
 3357W        W19541   9.680   4.328  13.218  0.1416 -0.1939  0.1582
 3358W        W19542  10.049  12.269   2.634  0.2494  0.2029 -0.3313
 3359W        W19543  17.192   0.683   4.344  0.1583 -0.3287 -0.1066
 3360W        W19544   2.791   0.437   3.564  0.1463  0.1384 -0.0071
 3361W        W19545   3.235  10.250   3.765  0.1887  0.0345  0.0878
 3362W        W19546   7.649   4.512   0.834  0.0436  0.1041  0.2232
 3363W        W19547  18.730  14.153   1.608 -0.2756  0.1055  0.1945
 3364W        W19548  16.939   5.891   3.157 -0.1708 -0.0507 -0.1326
 3365W        W19549  16.707   0.235   0.229 -0.0408 -0.0184 -0.2055
 3366W        W19550   3.406  18.593   2.870  0.0271  0.0345 -0.1195
 3367W        W19551  10.806  12.299   3.736  0.0497  0.2944 -0.0804
 3368W        W19552   9.278  10.555  12.871  0.1304 -0.0469 -0.0193
 3369W        W19553  10.162  15.482  15.378 -0.2541 -0.3253 -0.0167
 3370W        W19554  14.863  11.477  11.403  0.3624 -0.0843 -0.3626
 3371W        W19555   0.815   4.220   1.670  0.0130  0.1402  0.0068
 3372W        W19556   2.158  10.184   1.509  0.0387 -0.1660  0.2289
 3373W        W19557   3.403  15.063  11.212 -0.1350  0.2375 -0.0771
 3374W        W19558  18.176  10.341   5.901 -0.2402  0.4321 -0.1604
 3375W        W19559  18.081  10.673   2.458  0.2056 -0.0259 -0.2054
 3376W        W19560  13.589   9.238   2.977 -0.1418 -0.4435  0.0439
 3377W        W19561  12.601  16.140   2.192 -0.6137 -0.1966  0.1934
 3378W        W19562   6.519  15.904   0.730 -0.0721  0.0618  0.1095
 3379W        W19563   8.689  11.286   1.681 -0.1415 -0.1567 -0.1517
 3380W        W19564   1.640   0.341  11.229 -0.0987  0.1270 -0.1859
 3381W        W19565  13.401  16.052   0.438  0.2875  0.2261 -0.3015
 3382W        W19566   1.669  13.392   3.879 -0.1270 -0.0510  0.2772
 3383W        W19567   7.056  14.786  15.483  0.0104 -0.0970 -0.2652
 3384W        W19568  12.815   8.855   5.166  0.1260  0.0076 -0.0527
 3385W        W19569   4.126  13.174  15.268  0.0083 -0.0753  0.0403
 3386W        W19570   1.304   9.596   0.545 -0.1064 -0.2565  0.2393
 3387W        W19571   8.042  15.578   4.886 -0.1631  0.0612 -0.4382
 3388W        W19572  13.168   2.751   0.996  0.0666 -0.2243  0.0109
 3389W        W19573   2.519  13.034  12.269 -0.3361  0.2584 -0.0679
 3390W        W19574   6.097   0.462  12.432  0.2783 -0.1564 -0.2420
 3391W        W19575   9.585  18.143  11.433  0.0674 -0.1452  0.1477
 3392W        W19576   9.505   7.344  13.610  0.1046 -0.3168 -0.1512
 3393W        W19577  10.945  12.356  14.614  0.1219  0.1407  0.1907
 3394W        W19578   0.977   0.476   5.226  0.0880  0.0983  0.0263
 3395W        W19579   7.085  12.637   1.169  0.1070  0.0014  0.1549
 3396W        W19580   0.062   6.328   3.622  0.1404 -0.1526 -0.0943
 3397W        W19581   0.349   0.467   1.229  0.4304 -0.2076  0.0871
 3398W        W19582  14.299   2.620  11.753  0.3300  0.1923 -0.1273
 3399W        W19583   1.871  17.996  10.307  0.1276 -0.3212  0.0321
 3400W        W19584   6.201   1.992   3.155 -0.0856 -0.4837 -0.1734
 3401W        W19585  13.289   9.336  10.743 -0.0097  0.1252  0.2096
 3402W        W19586   4.366  14.300  10.624  0.4239  0.1957 -0.1246
 3403W        W19587  16.201  16.939  15.409  0.0305 -0.2105 -0.0912
 3404W        W19588   9.058  12.600  12.867 -0.3111  0.0548 -0.1664
 3405W        W19589   7.439   2.584  13.429 -0.3865 -0.2259 -0.2753
 3406W        W19590  14.556   6.822  11.396 -0.0222  0.3839  0.0794
 3407W        W19591   0.132   1.305   2.548 -0.0452  0.0603 -0.1193
 3408W        W19592  13.467   6.240  10.125  0.1472 -0.1633 -0.1648
 3409W        W19593  10.165  13.877  12.036  0.2180  0.2385 -0.0837
 3410W        W19594  16.351   6.433   0.479 -0.2193 -0.1108 -0.1139
 3411W        W19595  12.854   3.048  13.128  0.2178 -0.0301  0.0436
 3412W        W19596  16.775   5.418   3.521 -0.0787 -0.1340  0.2371
 3413W        W19597   9.750  10.819  12.163  0.0085  0.2588  0.1751
 3414W        W19598  12.206   1.494   5.521 -0.4654  0.1396 -0.0865
 3415W        W19599   3.927   4.385   0.644  0.2726 -0.1106  0.3872
 3416W        W19600  16.820   3.186   1.336  0.4958 -0.2064  0.1397
 3417W        W19601  13.882   1.965   2.132 -0.1938  0.1692  0.2374
 3418W        W19602   3.467  18.836  13.367 -0.1437 -0.1001 -0.0066
 3419W        W19603  11.514   6.341  13.037  0.2922  0.0156  0.0720
 3420W        W19604   2.129   2.343  15.416 -0.0491  0.0066  0.0562
 3421W        W19605   5.281   9.723   0.333  0.1722  0.1072  0.1117
 3422W        W19606  15.139  12.979   0.312 -0.1494 -0.0937 -0.1069
 3423W        W19607  15.769   4.067  11.586 -0.1623 -0.0159 -0.0979
 3424W        W19608   2.885  18.602  12.808  0.0426 -0.2150  0.0865
 3425W        W19609   0.006   0.441   2.065 -0.1124  0.0162 -0.0620
 3426W        W19610   0.198   3.609  10.797  0.0884  0.0582  0.1111
 3427W        W19611   4.904   2.324   3.629  0.5846  0.2069 -0.5730
 3428W        W19612  17.337   8.516  13.603  0.0377  0.1650 -0.0686
 3429W        W19613   4.161   3.198  13.304 -0.1240 -0.0315  0.0724
 3430W        W19614  13.177  18.675   1.336 -0.5353 -0.2411 -0.0597
 3431W        W19615   8.827  13.028   5.159  0.1285 -0.1861  0.0932
 3432W        W19616   6.635   5.354   4.588 -0.2813  0.1563 -0.4107
 3433W        W19617  10.176  17.010   3.044 -0.1877  0.1330  0.0100
 3434W        W19618   6.413  11.230  14.491  0.1776 -0.2224 -0.1660
 3435W        W19619  12.511   4.778  15.290  0.1934 -0.1000  0.0110
 3436W        W19620   0.534   2.869   2.253 -0.0103 -0.0705 -0.1545
 3437W        W19621   5.859   3.273  11.125 -0.1510  0.1925  0.0421
 3438W        W19622  16.270   9.325   2.521 -0.0556 -0.2769 -0.3850
 3439W        W19623   3.553   8.659  15.083  0.2643  0.0677  0.0741
 3440W        W19624   0.959  11.076  11.299  0.2338 -0.0460 -0.3250
 3441W        W19625  16.751  13.746   5.498  0.0307 -0.0663 -0.0048
 3442W        W19626   8.011  17.087  15.250  0.0844 -0.2555 -0.0327
 3443W        W19627   0.055  12.239   1.053 -0.3262  0.1546  0.0836
 3444W        W19628   1.171  15.860  13.735 -0.1586 -0.0765  0.1454
 3445W        W19629  15.092   1.357   2.112 -0.1537  0.2585  0.2063
 3446W        W19630  13.827   2.481   1.921 -0.0527  0.0088  0.5290
 3447W        W19631   5.350  17.175   4.126 -0.2432 -0.2885 -0.1128
 3448W        W19632  13.005   0.413  13.057  0.3470 -0.0585  0.1350
 3449W        W19633  13.219   5.660   3.538  0.2839  0.0484 -0.1360
 3450W        W19634   7.970  15.229   1.416 -0.0350 -0.1986 -0.0287
 3451W        W19635   4.634   4.675  12.457 -0.0445 -0.0332  0.5328
 3452W        W19636  10.683  16.748   3.218 -0.0873  0.1890  0.3979
 3453W        W19637  11.790   3.418   2.284 -0.2274 -0.0655  0.0796
 3454W        W19638   0.189   9.758   0.544 -0.0291  0.0136 -0.2319
 3455W        W19639  13.705  11.005   4.161  0.0447  0.1083  0.2942
 3456W        W19640  15.275   2.761  11.833  0.0682  0.1710 -0.1437
 3457W        W19641   5.063  11.109  14.356 -0.0368 -0.2141 -0.0768
 3458W        W19642   1.426   1.702  15.267  0.0301 -0.2130 -0.1157
 3459W        W19643   7.341  18.795  11.973 -0.0035  0.0939 -0.2538
 3460W        W19644  18.832  10.477  12.158  0.2270  0.1311 -0.0963
 3461W        W19645   6.318  18.480  15.038 -0.1659  0.2154 -0.0952
 3462W        W19646  10.601  13.857   0.861  0.0177  0.2579  0.2029
 3463W        W19647   9.778   8.236  12.525 -0.2117 -0.1451 -0.4742
 3464W        W19648   6.577  10.753  12.729  0.0011 -0.2698 -0.0531
 3465W        W19649  12.095   3.953   1.643 -0.0526  0.4538  0.0247
 3466W        W19650   9.837  15.104  12.773 -0.1379  0.0419  0.1411
 3467W        W19651   6.865   3.350  14.043 -0.2571 -0.0862  0.1588
 3468W        W19652   2.174   4.328  12.826  0.0799  0.1573  0.1930
 3469W        W19653  15.437  13.730  14.586 -0.0352  0.0308  0.0562
 3470W        W19654  11.966   6.563  14.517  0.1264 -0.1081  0.0958
 3471W        W19655   9.540  12.406   2.655  0.0676 -0.2341 -0.1761
 3472W        W19656   4.142   4.339   2.539  0.2607 -0.0812 -0.0876
 3473W        W19657   5.088  12.206  15.081  0.1211 -0.0096 -0.4291
 3474W        W19658   1.356  13.495   5.124  0.3524  0.1187  0.0906
 3475W        W19659   8.071  15.869  11.847  0.0238  0.1011  0.2030
 3476W        W19660  12.403  10.904  15.109  0.2343  0.5502 -0.2048
 3477W        W19661   1.498   7.331  10.699  0.0482 -0.0896  0.0914
 3478W        W19662   3.989  15.820   4.178 -0.4206  0.2427 -0.1576
 3479W        W19663   7.228  12.803  13.462  0.1457  0.4153  0.1635
 3480W        W19664   7.733   3.718   3.227  0.1643 -0.1183  0.3818
 3481W        W19665   9.674  10.645   0.401  0.0147  0.1281 -0.1458
 3482W        W19666   6.784   7.523  14.089 -0.4955  0.3584  0.1208
 3483W        W19667  10.638  18.203   2.996 -0.2122 -0.1100 -0.0896
 3484W        W19668   7.463   6.339  14.822  0.1126  0.2458 -0.2641
 3485W        W19669  13.473  16.317   2.215 -0.2488 -0.3022  0.1244
 3486W        W19670   9.616   7.006   0.724 -0.0592 -0.0567  0.0379
 3487W        W19671   7.281   7.594   2.481 -0.0538 -0.0097 -0.1928
 3488W        W19672   4.692  12.931  12.238 -0.0839 -0.1438 -0.0335
 3489W        W19673  14.734  13.056  12.130 -0.0114  0.0965  0.1163
 3490W        W19674   4.819  13.375   5.168 -0.2446  0.2805  0.0575
 3491W        W19675   3.152   4.230   5.755 -0.2085 -0.2349 -0.1145
 3492W        W19676   3.760   6.295  15.064 -0.1500 -0.1544 -0.1229
 3493W        W19677  11.089   0.907   0.031 -0.0759 -0.2775 -0.1380
 3494W        W19678  12.462  14.736   0.861  0.0697  0.2727  0.0591
 3495W        W19679  14.377  10.008   2.144  0.0400 -0.1349  0.5056
 3496W        W19680   1.314  16.697  14.328 -0.0063 -0.1168  0.1699
 3497W        W19681  10.931  12.555  14.063  0.1107 -0.1523  0.0347
 3498W        W19682   9.083   5.001   4.795 -0.0669  0.4380  0.1521
 3499W        W19683   9.853   8.065   0.438 -0.0419 -0.1101  0.0270
 3500W        W19684   8.199   6.844   3.084  0.0920  0.0074 -0.1017
 3501W        W19685  15.324   7.375  11.604  0.0207  0.0033  0.1501
 3502W        W19686   0.755  11.164   1.420  0.2292 -0.0787 -0.3098
 3503W        W19687   0.043  12.577  13.951  0.1598 -0.2911  0.4116
 3504W        W19688  12.973   9.361  13.972 -0.0808 -0.1600 -0.2196
 3505W        W19689   2.868   5.925  10.996 -0.5164  0.0220  0.0053
 3506W        W19690   0.108   3.076   3.761  0.2996  0.1651  0.0184
 3507W        W19691   0.472   1.697  14.504 -0.0903  0.0252 -0.2522
 3508W        W19692   3.169  13.689  12.772  0.1115  0.0991 -0.2930
 3509W        W19693   8.731  18.426   5.428 -0.0469  0.0925  0.1074
 3510W        W19694   0.664  14.989  12.354 -0.0951 -0.1248 -0.0569
 3511W        W19695   8.457   3.487  11.765  0.1682 -0.4343  0.4303
 3512W        W19696   4.749  11.654   4.627  0.0630  0.2443  0.2951
 3513W        W19697   1.462  12.156   4.568 -0.1536 -0.1455  0.4344
 3514W        W19698   5.189   9.289   1.187 -0.1759  0.1177  0.0636
 3515W        W19699  13.636  10.354  10.766  0.0205  0.0767 -0.0811
 3516W        W19700   3.609   6.137   4.250 -0.0262 -0.3430 -0.0113
 3517W        W19701   2.506   5.307  11.282 -0.0022  0.0133  0.3698
 3518W        W19702   8.715  10.462  11.000  0.2161 -0.0004 -0.0678
 3519W        W19703  18.300   3.140   0.592 -0.3224 -0.0112 -0.1559
 3520W        W19704  17.969   4.504  15.266  0.0986  0.0667 -0.0033
 3521W        W19705   8.797   9.681  10.742 -0.0417 -0.0195 -0.0673
 3522W        W19706  12.719   6.990   3.682  0.0061  0.0012  0.1626
 3523W        W19707   7.742   5.977   2.077 -0.0450 -0.0828  0.1384
 3524W        W19708  10.742   2.581   4.527 -0.1776 -0.0602  0.1786
 3525W        W19709  16.473  17.671  13.332  0.2056 -0.0798 -0.3339
 3526W        W19710  17.821  18.139   3.569  0.1337 -0.1339  0.1844
 3527W        W19711  14.441  14.602  14.286 -0.0242 -0.0314  0.0868
 3528W        W19712  15.397  10.022  10.634  0.1289 -0.3006 -0.1774
 3529W        W19713   1.666  15.933  11.318  0.1750 -0.0065 -0.1618
 3530W        W19714   9.334   3.940   4.687 -0.2453  0.2383 -0.1974
 3531W        W19715  13.854  18.730   5.932 -0.0045  0.1550  0.0535
 3532W        W19716  18.544  18.707  12.888  0.1693  0.0081 -0.2953
 3533W        W19717   8.516  12.329   3.642 -0.2106  0.2151 -0.0560
 3534W        W19718   8.807  11.262   0.825 -0.0860  0.2592 -0.1040
 3535W        W19719  15.351  10.998  10.772 -0.1050 -0.1642  0.0078
 3536W        W19720  18.002  15.911   3.287  0.1969  0.1691  0.0608
 3537W        W19721  17.635  11.792   1.813 -0.0412  0.3399  0.2793
 3538W        W19722  14.126   1.110   0.902  0.1819 -0.0948  0.2613
 3539W        W19723  11.401  10.644  14.994  0.2899  0.0476  0.2694
 3540W        W19724  15.207  15.604   1.913 -0.1561 -0.0680  0.0218
 3541W        W19725   8.681  13.652   3.720 -0.3690 -0.1099 -0.2265
 3542W        W19726  12.919  10.456  15.068  0.0597 -0.2288  0.0002
 3543W        W19727   3.461  11.138  10.371  0.2347 -0.0224 -0.1954
 3544W        W19728   3.233  17.916   5.527 -0.2490  0.1336  0.1877
 3545W        W19729  17.585   6.984   2.180 -0.0870 -0.1640 -0.1203
 3546W        W19730  11.366   4.287  14.686  0.2656  0.0193 -0.3195
 3547W        W19731  15.368   6.414  11.925 -0.0261 -0.0960 -0.0009
 3548W        W19732   8.812   4.598   1.540  0.1111 -0.0050 -0.1766
 3549W        W19733  17.173   4.402   0.648  0.2978  0.1941  0.2027
 3550W        W19734   5.369   5.994  13.543  0.0803  0.0258  0.1032
 3551W        W19735  14.231  14.018   2.882  0.0870  0.1325  0.0537
 3552W        W19736   5.581   7.956  14.941 -0.0957 -0.0059  0.0978
 3553W        W19737  13.216  13.633   2.906 -0.2208  0.1316 -0.1333
 3554W        W19738  18.839   2.335   2.811 -0.1753 -0.4227 -0.0703
 3555W        W19739  15.853  17.849   9.749  0.1182  0.2438  0.3293
 3556W        W19740   2.228   7.644  11.165 -0.2416 -0.0858 -0.1443
 3557W        W19741   6.102  10.879  11.022  0.1977 -0.1950  0.0561
 3558W        W19742  16.571  13.266  11.036 -0.1144 -0.0062 -0.1698
 3559W        W19743  11.603  10.598   0.714  0.0792  0.1015 -0.2358
 3560W        W19744  16.214   4.505   4.221  0.2066  0.1549  0.0674
 3561W        W19745  14.655   9.123   5.107 -0.2184 -0.1002  0.1183
 3562W        W19746   9.230   0.014  13.517 -0.3613 -0.0782  0.2964
 3563W        W19747  13.237   1.837   5.085 -0.0611 -0.0987  0.1168
 3564W        W19748  16.227  12.201  10.125  0.0707  0.1467  0.1099
 3565W        W19749  11.967  12.386   5.777  0.1246 -0.0976 -0.2093
 3566W        W19750  13.894  16.793  11.466  0.0480 -0.1428  0.1826
 3567W        W19751  12.285   6.151  12.045 -0.3684 -0.1291 -0.0061
 3568W        W19752   3.113  16.501   4.474 -0.0948  0.1976 -0.1111
 3569W        W19753  15.427   9.292   1.240  0.1431  0.0991  0.1102
 3570W        W19754   6.924  12.104  15.105  0.0270 -0.4644 -0.1556
 3571W        W19755   9.212   5.545   4.618  0.0795  0.3391 -0.0011
 3572W        W19756   3.374  15.908   2.324 -0.2384  0.0086 -0.0262
 3573W        W19757  12.057   8.467  11.117 -0.1215 -0.1551  0.0098
 3574W        W19758   8.195   8.190   0.937 -0.2723  0.1553  0.1653
 3575W        W19759   1.184   7.369  13.687  0.3466  0.2684  0.0003
 3576W        W19760   4.481  12.297   2.968 -0.0285 -0.1462  0.0470
 3577W        W19761   4.294   4.808   2.960 -0.1423 -0.0211  0.1303
 3578W        W19762   2.450  11.462   4.866  0.0981  0.0534  0.1836
 3579W        W19763  18.176   8.606  13.114  0.1965 -0.1565 -0.1788
 3580W        W19764   3.759   6.731  15.499 -0.2304 -0.1723  0.0808
 3581W        W19765  13.934  12.484  13.031 -0.1616  0.1226  0.0750
 3582W        W19766   5.766   7.476  11.740  0.0101  0.1661 -0.0866
 3583W        W19767  12.660  17.016   4.142 -0.0050  0.3516 -0.1184
 3584W        W19768  11.882   2.558   1.193 -0.1339  0.0984  0.2150
 3585W        W19769   8.188   1.558   1.452  0.1222 -0.0049 -0.0766
 3586W        W19770   0.792  18.571   2.535  0.3156  0.0792  0.1866
 3587W        W19771   1.437   3.138  13.335 -0.1713  0.1134 -0.1411
 3588W        W19772   6.615   5.296   2.216 -0.2082  0.1233  0.1150
 3589W        W19773  14.109   7.116  11.387  0.4730 -0.3898 -0.0564
 3590W        W19774   8.091  14.302  13.975  0.1024  0.2429  0.0141
 3591W        W19775  14.391  12.839   1.582 -0.1811 -0.1972  0.1931
 3592W        W19776   7.107   6.689   1.763  0.1011 -0.5186 -0.0717
 3593W        W19777   9.454  14.932   0.442  0.0492 -0.2493  0.1783
 3594W        W19778  11.904  18.404   2.662  0.0174 -0.3054 -0.1238
 3595W        W19779  11.767   3.776   1.272 -0.0748 -0.3084 -0.0959
 3596W        W19780   1.185  18.412   2.870  0.4271 -0.2241 -0.0592
 3597W        W19781  10.514  17.604  11.249 -0.2077 -0.1605  0.3502
 3598W        W19782   4.802   4.810   5.097  0.1337 -0.0442  0.1974
 3599W        W19783   5.028  10.171   0.409  0.0802 -0.0598  0.0610
 3600W        W19784  17.913   9.457  13.672 -0.3054  0.0951 -0.1163
 3601W        W19785  18.807   6.297  11.219 -0.1179  0.0631 -0.0396
 3602W        W19786   3.488   7.472  12.043 -0.1648  0.2929  0.3748
 3603W        W19787   2.416   2.532   4.812 -0.1154 -0.0199 -0.0544
 3604W        W19788   4.680  10.036   2.733  0.2480 -0.1154  0.2219
 3605W        W19789  15.599   4.111   2.158 -0.3253  0.1734 -0.2957
 3606W        W19790   8.825  15.573  12.229  0.0633 -0.2530  0.1974
 3607W        W19791  14.435  12.310  10.940 -0.0336  0.2959 -0.4155
 3608W        W19792   8.190   5.536   0.650  0.1464  0.0161 -0.1489
 3609W        W19793   7.066  18.251   1.192  0.2251  0.3279  0.0770
 3610W        W19794   4.688  16.635  13.101 -0.1449  0.1288 -0.3189
 3611W        W19795  15.259   2.953  14.828  0.2093 -0.0737 -0.2262
 3612W        W19796   8.113   6.067  15.441  0.2401  0.2631  0.0898
 3613W        W19797   5.555   7.208  14.775 -0.0294  0.1086  0.0300
 3614W        W19798  18.188   5.205   0.725  0.0048 -0.1781  0.4822
 3615W        W19799  18.577  16.968  13.093 -0.1667 -0.0859 -0.1077
 3616W        W19800   0.904  16.674   5.451 -0.0325  0.2392 -0.0643
 3617W        W19801   5.151   3.945   1.760 -0.2496  0.2617 -0.0984
 3618W        W19802  15.196  13.696   2.503  0.1592  0.0696  0.2176
 3619W        W19803   1.436  14.417  14.088 -0.0816 -0.0479  0.0360
 3620W        W19804  14.412  11.087   0.399  0.0128  0.2287 -0.2215
 3621W        W19805   9.226   7.690   3.674 -0.2684 -0.0382 -0.0060
 3622W        W19806  12.717   8.837  14.961  0.1854  0.0905 -0.3585
 3623W        W19807  11.198   6.517  12.664  0.0191 -0.2751  0.0314
 3624W        W19808  10.374  13.086  10.899 -0.0765 -0.3120 -0.0598
 3625W        W19809   3.972   5.340   1.917 -0.0542 -0.1001 -0.0174
 3626W        W19810   5.908   8.700  14.518 -0.0211  0.1888  0.0173
 3627W        W19811   4.206  15.416  10.707 -0.1966 -0.2047 -0.1349
 3628W        W19812  14.097   3.840  14.247  0.1254  0.1313 -0.0452
 3629W        W19813  17.540  17.790  11.662  0.0774  0.1911  0.0679
 3630W        W19814   3.901   2.836  13.006 -0.1010  0.1067 -0.2403
 3631W        W19815   2.308   2.072   0.711  0.3977  0.0155  0.0894
 3632W        W19816  15.795  12.284  13.375 -0.1990  0.2132  0.1343
 3633W        W19817  11.759   6.123  13.440 -0.0579  0.0391 -0.1337
 3634W        W19818  14.032  18.137  14.818  0.1454 -0.1396 -0.1511
 3635W        W19819  10.905   2.207   5.388 -0.1330 -0.1933  0.1681
 3636W        W19820  16.807  18.771   4.604 -0.1454 -0.2822  0.0332
 3637W        W19821   5.268   6.058   4.826  0.2652 -0.2641 -0.0821
 3638W        W19822   4.909  17.982   2.089  0.4654 -0.2839 -0.0479
 3639W        W19823  17.093   3.548  10.824  0.1118  0.3288 -0.0071
 3640W        W19824   0.442   1.056   0.815  0.1726  0.1796 -0.2636
 3641W        W19825  10.968  17.563  13.611  0.1511 -0.2458  0.1661
 3642W        W19826  10.063   9.661   4.289 -0.2255 -0.0335  0.1765
 3643W        W19827  17.810  16.439   5.916 -0.0551 -0.1610 -0.2736
 3644W        W19828   8.510   3.454   4.389 -0.1149 -0.1020 -0.1766
 3645W        W19829  10.268   2.176  13.479 -0.0984  0.1140  0.1598
 3646W        W19830   4.560  16.729   1.481  0.0621  0.3430 -0.1406
 3647W        W19831  17.951   0.961  10.734 -0.0941  0.2758  0.3109
 3648W        W19832  15.714   9.732   3.182 -0.0430  0.0375 -0.0614
 3649W        W19833   2.278  11.987   4.082  0.0052 -0.0754  0.0860
 3650W        W19834   1.694   9.347  14.102 -0.0506  0.1473  0.0021
 3651W        W19835   8.379   6.055   1.579 -0.3280  0.5942  0.2868
 3652W        W19836   1.007   4.539   4.770 -0.1987 -0.0021  0.2375
 3653W        W19837   5.544   2.879  11.111  0.1622  0.2849 -0.0741
 3654W        W19838  16.110   2.941   1.749 -0.1186  0.1023 -0.0525
 3655W        W19839  16.501   7.843  14.132 -0.1171  0.0707 -0.0956
 3656W        W19840  11.836  14.693   0.313 -0.0697  0.1337 -0.1918
 3657W        W19841  18.457   6.341   2.039  0.0872  0.1197 -0.0808
 3658W        W19842  15.681   5.679   3.302 -0.0294 -0.1415  0.2354
 3659W        W19843  13.911   1.318   1.891  0.2870 -0.0279 -0.0859
 3660W        W19844   6.900   9.412  13.900  0.1039 -0.1506  0.0182
 3661W        W19845   5.772  12.381  14.437 -0.2738 -0.3185 -0.2218
 3662W        W19846  13.084   6.916   4.715 -0.0376 -0.1319  0.3107
 3663W        W19847  16.135  12.823   3.059 -0.2253  0.1272 -0.1375
 3664W        W19848   4.848   1.138   4.459  0.0416 -0.0359  0.0406
 3665W        W19849  14.775  11.016   9.765  0.2737  0.1488  0.1336
 3666W        W19850  10.241   0.105  12.532  0.1538 -0.0606  0.1208
 3667W        W19851   2.560  13.274  14.134  0.2040 -0.0778  0.0204
 3668W        W19852  11.206   0.764   2.772  0.0141  0.2187  0.0389
 3669W        W19853  17.651   3.881  13.839 -0.1451 -0.0405 -0.1096
 3670W        W19854   7.846   4.297   1.305  0.1886 -0.2180  0.0203
 3671W        W19855   1.753  13.740  13.251 -0.0069  0.0019 -0.2513
 3672W        W19856  17.567   9.820  11.105 -0.3323  0.0839 -0.1026
 3673W        W19857  10.209  12.548  12.832  0.0207  0.2893 -0.0549
 3674W        W19858  15.819   8.945  11.596  0.1591  0.0361 -0.3157
 3675W        W19859  13.206   9.551   0.601 -0.0531 -0.1152 -0.2478
 3676W        W19860   4.620  13.812   1.892 -0.0505  0.1724  0.0708
 3677W        W19861   3.170   0.859   5.164  0.1486  0.1942 -0.0321
 3678W        W19862  10.361   5.631  11.697 -0.1922 -0.1515 -0.1492
 3679W        W19863  10.161  12.477   0.936  0.2365 -0.1166  0.4432
 3680W        W19864   5.369   6.543  13.550 -0.0840  0.4535  0.1190
 3681W        W19865   0.825  17.572  13.118 -0.0619 -0.0699  0.2164
 3682W        W19866  13.361   1.403   1.255 -0.1056  0.0351  0.0363
 3683W        W19867   4.228  14.977   1.848 -0.4005  0.4477 -0.2530
 3684W        W19868   9.672   2.447  11.800 -0.2154  0.2465 -0.1846
 3685W        W19869  17.052   6.390   0.231  0.2624  0.2548  0.1580
 3686W        W19870  10.209   2.044   3.080  0.0643 -0.2113 -0.2914
 3687W        W19871  16.703   3.408   5.160 -0.1448  0.3717 -0.0557
 3688W        W19872  12.948  15.069  14.609  0.1470 -0.0012  0.0481
 3689W        W19873   5.099  16.462   1.653  0.0597  0.1253 -0.1849
 3690W        W19874  11.032  13.978   0.274  0.0385 -0.1786 -0.0723
 3691W        W19875  14.147  13.453  10.681 -0.1930  0.3068  0.0973
 3692W        W19876  17.158   4.603  14.558 -0.2186 -0.2293  0.2400
 3693W        W19877  15.670   5.543  10.850  0.2332  0.1897  0.2507
 3694W        W19878  15.505  15.276  15.447 -0.3756 -0.4119  0.0949
 3695W        W19879   5.961  12.549   2.136 -0.2785  0.0870  0.0426
 3696W        W19880   2.744   5.092   5.747  0.0676  0.1837  0.0959
 3697W        W19881  18.464  13.893   2.637  0.2139  0.0966  0.2278
 3698W        W19882   1.901  14.269   3.430  0.2973 -0.2520  0.1065
 3699W        W19883   6.832   4.549   2.914 -0.0988  0.3435  0.2261
 3700W        W19884  18.363   5.537  13.509  0.1964  0.1796  0.2238
 3701W        W19885   1.920  13.966  14.262 -0.1233  0.2412 -0.0566
 3702W        W19886   6.626   2.472   0.958 -0.0718  0.0903 -0.1373
 3703W        W19887  17.285   8.079   3.816 -0.0243 -0.0256 -0.0811
 3704W        W19888   0.450  13.820  15.276 -0.1480 -0.1300  0.1723
 3705W        W19889   0.765   8.883   3.543  0.1961  0.0466  0.1124
 3706W        W19890   3.167  11.373   0.451 -0.1413 -0.2363  0.2336
 3707W        W19891   7.591  11.526  11.484  0.2052 -0.1420  0.3861
 3708W        W19892   8.670  14.702   1.192 -0.2140  0.2121 -0.1622
 3709W        W19893  11.389  12.355   6.094  0.1243 -0.0197  0.1270
 3710W        W19894  18.698   2.924  12.841 -0.2899 -0.0079  0.1706
 3711W        W19895  15.472   3.159   3.977  0.1620 -0.0705 -0.2582
 3712W        W19896  15.073   8.542   3.075  0.1342 -0.2114 -0.1635
 3713W        W19897  10.454   2.898  15.193 -0.1376  0.0898 -0.0659
 3714W        W19898   3.696   5.933   5.157 -0.1594  0.1841 -0.0759
 3715W        W19899   0.475  17.804   0.872 -0.0817 -0.4871  0.0695
 3716W        W19900   3.455  13.035   5.303 -0.0893 -0.3310  0.1146
 3717W        W19901  11.927   0.469  14.705  0.2363  0.0888  0.1228
 3718W        W19902   2.068   4.850   1.789  0.2526 -0.0305 -0.0006
 3719W        W19903   1.624   6.178  10.349 -0.3866 -0.1445 -0.2213
 3720W        W19904   4.672   8.201  10.307  0.2815  0.1093 -0.2142
 3721W        W19905   6.338   8.445  14.446  0.2847  0.1152  0.0630
 3722W        W19906   8.385   5.299  14.764 -0.4675 -0.3938  0.2696
 3723W        W19907  18.223  16.289   5.053  0.0977  0.3230  0.4229
 3724W        W19908   2.549  14.975  12.716 -0.1747 -0.1874  0.0470
 3725W        W19909   3.902   5.476  12.102 -0.0424  0.0343 -0.4625
 3726W        W19910  10.048   1.674   0.591  0.2002 -0.0340 -0.1548
 3727W        W19911  11.594  10.489  14.110 -0.3767 -0.0984 -0.0196
 3728W        W19912   2.756   0.972  12.706 -0.0193  0.0968  0.2131
 3729W        W19913  10.654   1.526  15.072 -0.0222  0.2926  0.1865
 3730W        W19914  10.031  17.747   4.167 -0.1992 -0.0341 -0.1560
 3731W        W19915   5.830   3.639   2.404  0.1239  0.2757 -0.0759
 3732W        W19916  12.513   6.697   3.078  0.2331  0.2245  0.3152
 3733W        W19917   2.908   2.585  11.636 -0.1999  0.0145 -0.0635
 3734W        W19918   3.066  14.010   2.102  0.5104  0.3415 -0.0149
 3735W        W19919   1.385  15.628  12.238 -0.1306 -0.2170  0.0483
 3736W        W19920   7.610  17.986   4.548 -0.0281  0.1063 -0.0137
 3737W        W19921   6.489  11.491  13.738 -0.1257 -0.3058  0.2626
 3738W        W19922  13.554   8.056   0.680 -0.1090 -0.0539 -0.1278
 3739W        W19923   7.329  14.907  11.987 -0.0610  0.0267 -0.0938
 3740W        W19924   2.034   2.537  11.169  0.2439  0.1655 -0.0564
 3741W        W19925   1.755  18.621  15.110  0.0237  0.0446 -0.2070
 3742W        W19926  14.405   8.061   3.617 -0.3093  0.1482 -0.2467
 3743W        W19927  10.484   2.652   0.770 -0.1851  0.1015 -0.0241
 3744W        W19928   7.767   9.201  11.968 -0.0502 -0.0071  0.1196
 3745W        W19929  16.624  12.196   0.640 -0.0453 -0.1327 -0.0367
 3746W        W19930   7.590   3.311   4.601 -0.1277 -0.1908 -0.2243
 3747W        W19931  12.353  12.238   5.140  0.0395 -0.2738  0.1973
 3748W        W19932   5.061   7.780  13.279  0.2179 -0.1298 -0.2620
 3749W        W19933  12.529  10.761   0.964 -0.0626 -0.0608 -0.3082
 3750W        W19934  14.508   9.347   4.134 -0.1649  0.0634 -0.2523
 3751W        W19935   7.615   5.893  13.731  0.0743 -0.0967  0.0258
 3752W        W19936  18.625  16.474   4.856  0.0772  0.0777  0.1619
 3753W        W19937   6.998   3.358   1.834  0.2057  0.1724 -0.0015
 3754W        W19938   9.037   3.176  14.019  0.0736 -0.0969  0.1386
 3755W        W19939  13.035  12.193   0.582  0.2487  0.1042  0.1199
 3756W        W19940   8.042   8.948   2.330 -0.1233 -0.0642 -0.2884
 3757W        W19941  16.440   6.344   2.969  0.4188 -0.0011  0.1562
 3758W        W19942   8.393   0.269   2.033  0.0485 -0.1212  0.2212
 3759W        W19943   8.428  11.654  15.432  0.0808  0.0935  0.2178
 3760W        W19944  11.367  13.220   1.863 -0.2566  0.3438 -0.0535
 3761W        W19945  16.268  15.368  12.257  0.2871  0.1279  0.1891
 3762W        W19946  17.529   7.855   5.011  0.0058 -0.1579  0.0436
 3763W        W19947   1.234  14.745   3.770 -0.3860  0.1427  0.2086
 3764W        W19948  13.833  13.026  11.145  0.1169  0.1148  0.2295
 3765W        W19949  12.295  17.244   1.075 -0.1591  0.0955 -0.1935
 3766W        W19950   7.187   5.712  12.968 -0.4090 -0.0190  0.0050
 3767W        W19951   3.291  17.983   3.696 -0.2509  0.4317 -0.2144
 3768W        W19952   1.428   8.701   4.976  0.2312 -0.0503  0.4536
 3769W        W19953  15.668   3.742   1.803 -0.0250 -0.3485  0.1371
 3770W        W19954   4.553   6.052  14.239  0.0210 -0.2233 -0.2351
 3771W        W19955   7.738  17.301  14.831 -0.0691 -0.0868 -0.0850
 3772W        W19956   1.652   6.300  11.587 -0.0391  0.0258 -0.2307
 3773W        W19957  14.660   9.950  15.006 -0.0469 -0.3391  0.0207
 3774W        W19958  16.394  16.397  11.151  0.0259  0.0568 -0.0979
 3775W        W19959   7.087   6.430   1.328  0.1081 -0.1618  0.1083
 3776W        W19960  16.546   3.877   5.050  0.0785 -0.1226  0.2322
 3777W        W19961  11.108  10.131   3.358 -0.1928  0.0151 -0.0457
 3778W        W19962  15.678  18.219  15.022 -0.1173 -0.2337 -0.3649
 3779W        W19963   9.577   3.419  14.822  0.1980  0.2323  0.0037
 3780W        W19964   6.279  17.346  12.618 -0.2404 -0.0733 -0.0109
 3781W        W19965  15.670   5.018   3.212  0.1600 -0.3246  0.3253
 3782W        W19966   9.270   5.518  14.664 -0.2372 -0.2776  0.0928
 3783W        W19967  12.089  14.368   1.756  0.0693 -0.0515  0.0064
 3784W        W19968  18.480  16.740   4.477  0.0568  0.2305  0.0283
 3785W        W19969  16.241   7.503   0.139  0.1502 -0.0618  0.2234
 3786W        W19970  18.034   1.544  14.988  0.0368 -0.1952  0.0948
 3787W        W19971  15.454  10.267   3.326 -0.2939  0.0892 -0.0494
 3788W        W19972   2.255   0.021  14.408  0.1223 -0.0669 -0.0234
 3789W        W19973   9.047  18.817   3.282 -0.3439 -0.1693 -0.0237
 3790W        W19974  10.029   0.291  14.254 -0.0912  0.0445 -0.1462
 3791W        W19975  11.177  11.885   4.789  0.2059 -0.1086 -0.0598
 3792W        W19976   0.092   5.163  14.162 -0.1363  0.2429  0.1447
 3793W        W19977  15.775   5.755   3.899 -0.2375 -0.0457 -0.0706
 3794W        W19978   9.188  10.598   3.973 -0.3019  0.2697 -0.0854
 3795W        W19979  10.402  15.771  14.222 -0.1603 -0.0118  0.2940
 3796W        W19980  14.766  16.956   0.201 -0.0126 -0.1729 -0.0906
 3797W        W19981  13.469  14.786   5.043  0.0568 -0.1150 -0.0416
 3798W        W19982  15.486   0.007  11.287  0.0037  0.1514 -0.0469
 3799W        W19983   0.760   5.816   1.978 -0.3152  0.0636 -0.0869
 3800W        W19984   5.768   8.942  11.715  0.0001  0.0882 -0.1058
 3801W        W19985  17.498   1.589   4.594 -0.0981 -0.3174 -0.1151
 3802W        W19986   7.538   2.340   0.900 -0.0517  0.0347 -0.2505
 3803W        W19987  15.650  14.885   1.729  0.1851  0.0030  0.2340
 3804W        W19988  12.953  10.218  13.525  0.0376  0.0853 -0.0318
 3805W        W19989   2.993   6.356   2.661 -0.0335  0.0599  0.0710
 3806W        W19990   3.832   8.615   0.320  0.2646  0.0684  0.0922
 3807W        W19991  13.811   5.689  12.553  0.3614  0.0557  0.2684
 3808W        W19992  14.166   0.781  12.122 -0.2024  0.0256 -0.1244
 3809W        W19993   5.597   6.333   1.284 -0.1503 -0.2502  0.4032
 3810W        W19994   3.415   1.624  12.499 -0.1002  0.4500 -0.2519
 3811W        W19995   0.318  14.544  14.804 -0.0517 -0.1135  0.1639
 3812W        W19996  13.075  14.533  12.320  0.0226 -0.1372 -0.1168
 3813W        W19997  12.453   2.914   5.882 -0.0521  0.0370 -0.1426
 3814W        W19998   9.092  13.038   0.971 -0.1361 -0.1642 -0.1382
 3815W        W19999  18.341  16.681  13.426  0.2502  0.0905  0.1933
 3816W        W20000   7.916   1.018  13.046 -0.4404  0.1248 -0.0885
 3817W        W20001  18.136   0.017   0.326 -0.0759 -0.0089  0.1012
 3818W        W20002  11.354   5.170   1.625  0.0509 -0.1138 -0.0507
 3819W        W20003   2.498  12.827   0.767  0.2525  0.0599 -0.2472
 3820W        W20004   1.383  14.374   1.668  0.1172  0.1679  0.1618
 3821W        W20005  14.408   5.740   0.551  0.1230 -0.1589 -0.1230
 3822W        W20006  11.131  10.747  14.041  0.0400 -0.3327  0.1070
 3823W        W20007   8.465  14.619  14.204  0.0188 -0.2397 -0.0858
 3824W        W20008  11.560  14.941  15.023 -0.0326 -0.3522 -0.1057
 3825W        W20009  13.282  14.860   0.801  0.0849  0.0700  0.5712
 3826W        W20010  11.188  10.222  13.958  0.1217  0.0116 -0.3367
 3827W        W20011   9.330   6.734   4.369  0.3092 -0.2302 -0.0695
 3828W        W20012  10.421   2.886   1.297 -0.0097 -0.1528  0.0981
 3829W        W20013   8.835  11.282  11.087 -0.0424  0.0829 -0.0208
 3830W        W20014  16.366  12.094   1.080  0.1514 -0.0807  0.1888
 3831W        W20015  12.117   1.727   1.101 -0.2449 -0.0102 -0.1696
 3832W        W20016  11.501  15.064   3.272  0.0277 -0.2109 -0.1716
 3833W        W20017   4.811  13.417   3.673 -0.3325 -0.1431 -0.1223
 3834W        W20018  17.800   6.768   2.662  0.2268 -0.1124  0.1413
 3835W        W20019  14.489  11.517  13.718 -0.0183 -0.0141  0.1959
 3836W        W20020  10.345  16.145  11.659 -0.0738  0.0751  0.0744
 3837W        W20021   1.620   9.847  10.517 -0.0464 -0.0660  0.1804
 3838W        W20022   1.652  16.714   0.595 -0.0709 -0.0435 -0.4038
 3839W        W20023  13.109  15.174   0.388  0.2210 -0.0455  0.0654
 3840W        W20024  17.786  13.985   4.823 -0.0994 -0.0877 -0.0336
 3841W        W20025   7.484  10.783  12.204 -0.1571  0.0754 -0.0143
 3842W        W20026   6.822   9.387   1.345 -0.2923  0.3739 -0.3254
 3843W        W20027   4.136  11.782   3.545 -0.0515 -0.1046  0.1879
 3844W        W20028   4.695  17.421  11.489  0.2101  0.0075  0.2648
 3845W        W20029   1.974   3.133  14.254 -0.1026  0.2305 -0.0028
 3846W        W20030  10.038   7.913   1.786  0.3545 -0.1055  0.1325
 3847W        W20031  16.133  16.797   4.269 -0.1980  0.4047  0.0724
 3848W        W20032  10.687   6.103   4.290  0.0886 -0.1203 -0.2190
 3849W        W20033  14.165   3.515  11.212 -0.1148 -0.0775 -0.0539
 3850W        W20034  15.627  18.027  13.100  0.4050 -0.1141  0.0746
 3851W        W20035  12.913  15.697  13.986  0.1455  0.3175  0.2077
 3852W        W20036  10.559  16.190   3.656 -0.0639  0.0926  0.0626
 3853W        W20037   8.540  17.751  13.071 -0.2002  0.1894  0.2118
 3854W        W20038   9.111  10.152   1.802 -0.0817  0.4686  0.3748
 3855W        W20039  12.659   3.616   0.775 -0.3352  0.1503  0.1339
 3856W        W20040  11.326   9.228   2.683  0.0233 -0.0419  0.1218
 3857W        W20041  11.036   4.507  11.257 -0.1240  0.0409  0.0646
 3858W        W20042   1.214  13.161   0.022  0.0593 -0.5367 -0.0723
 3859W        W20043  10.225  18.461   3.846 -0.0938  0.1597 -0.1117
 3860W        W20044  17.269  15.244  12.525 -0.0026 -0.1800 -0.2495
 3861W        W20045   2.454   2.410  11.922  0.4155 -0.1061  0.2130
 3862W        W20046   2.181   5.180  10.827 -0.0490 -0.2841 -0.3118
 3863W        W20047  11.324   1.528  14.278 -0.1728 -0.1373 -0.1102
 3864W        W20048  10.461  14.636   2.974 -0.0586  0.0492 -0.0123
 3865W        W20049   3.103  18.717   2.498  0.1230 -0.1363  0.3428
 3866W        W20050  17.807  17.393   3.731 -0.0077  0.0181 -0.0396
 3867W        W20051   0.962  10.805  13.813 -0.1080 -0.2168  0.1246
 3868W        W20052   8.244  16.538  14.522 -0.1539 -0.3969 -0.1448
 3869W        W20053  17.076   5.743   4.590  0.3875  0.1653  0.0968
 3870W        W20054   0.095   2.176   0.871 -0.2939 -0.2922  0.1826
 3871W        W20055   4.852   9.301  14.319  0.1304  0.3282  0.1625
 3872W        W20056   1.564   9.300  12.098  0.2886 -0.0540  0.2038
 3873W        W20057   6.212  17.837  11.287  0.1892  0.2842  0.0530
 3874W        W20058   8.253  17.199  11.383 -0.0912 -0.0122  0.1234
 3875W        W20059  13.000   0.419   1.265  0.0631  0.3215  0.3596
 3876W        W20060  10.554  15.815   0.882  0.1501 -0.4383  0.0243
 3877W        W20061  17.280   8.485   2.054  0.1722  0.0619 -0.2230
 3878W        W20062   0.677  15.277   0.895 -0.2362  0.2832 -0.0730
 3879W        W20063   9.693  16.754   1.037 -0.1706  0.0833  0.1189
 3880W        W20064  12.937   7.198  11.787 -0.2598  0.2478  0.1118
 3881W        W20065  14.189   9.861   1.203 -0.1802  0.2946 -0.2035
 3882W        W20066   9.117   8.787  12.298  0.1196 -0.0274 -0.2290
 3883W        W20067   5.068  11.316   4.349 -0.2154 -0.2855 -0.0399
 3884W        W20068  13.629  14.937  12.221  0.0626  0.0655 -0.0416
 3885W        W20069   4.926  14.240  13.655  0.2549 -0.3814 -0.0576
 3886W        W20070  14.872  15.311   4.000 -0.2445  0.0168 -0.3780
 3887W        W20071   5.748   3.356  13.261  0.1012 -0.3248 -0.0321
 3888W        W20072  10.744   2.603   2.497  0.2885  0.0640 -0.0582
 3889W        W20073   1.129  13.458   1.455 -0.0662 -0.0934 -0.1156
 3890W        W20074   1.547   9.153   2.996 -0.0469 -0.2450 -0.0349
 3891W        W20075   5.922  15.813  12.859 -0.1431  0.2155 -0.0161
 3892W        W20076   2.969   4.939   1.945 -0.2966 -0.0875  0.0344
 3893W        W20077   8.430  14.125  14.339 -0.2680  0.0321 -0.2059
 3894W        W20078   4.869  14.318   2.507 -0.1481  0.0659 -0.0643
 3895W        W20079   4.147  13.936   1.665 -0.1947 -0.6584 -0.1644
 3896W        W20080   6.036   4.967  11.151  0.0939 -0.2948  0.0340
 3897W        W20081   1.486  13.736   0.009  0.1403 -0.0478  0.0257
 3898W        W20082  17.219  12.608   4.351  0.2826  0.1678  0.0917
 3899W        W20083   4.082  14.795  11.500 -0.1776 -0.1454  0.3445
 3900W        W20084   4.755   5.658   2.494 -0.0850 -0.2452 -0.1252
 3901W        W20085  13.672  10.603  12.813 -0.2335 -0.2182 -0.1166
 3902W        W20086  13.022   0.654   2.968  0.0651 -0.2128  0.1868
 3903W        W20087   6.457  10.270   4.779  0.3716 -0.1002 -0.1612
 3904W        W20088   0.025  16.878   2.304 -0.1774 -0.0780  0.2474
 3905W        W20089   4.995  12.052   4.709 -0.0817  0.1020 -0.1779
 3906W        W20090  18.608   7.297   1.263 -0.0215  0.3247  0.0089
 3907W        W20091   2.004   2.338   0.377  0.3751 -0.0653 -0.2281
 3908W        W20092  15.078  18.663  13.498 -0.1004 -0.0724 -0.1665
 3909W        W20093   6.278  14.489   2.413  0.1138  0.0204 -0.0632
 3910W        W20094   5.034  15.793   4.743  0.2374 -0.1422  0.1128
 3911W        W20095  14.674  15.802  11.964 -0.1657 -0.1356  0.2273
 3912W        W20096  11.132  14.056  10.161  0.0777  0.0354 -0.3467
 3913W        W20097  13.277   1.506   2.002  0.0046  0.1510 -0.0714
 3914W        W20098   3.645   1.921   4.146  0.1600  0.2981  0.2904
 3915W        W20099   3.850   3.814  14.996 -0.0325 -0.2599  0.0654
 3916W        W20100   4.825   8.210   4.711  0.1202  0.0030  0.1146
 3917W        W20101   4.093  17.043   0.574  0.1091 -0.0582  0.2353
 3918W        W20102  15.363  16.387   1.270 -0.1765 -0.0319  0.1775
 3919W        W20103   6.990   7.611   3.374 -0.0624  0.2092  0.1039
 3920W        W20104  15.242  10.368  13.698 -0.2200  0.0649  0.0865
 3921W        W20105  11.004   7.851  14.089  0.0456 -0.0182 -0.2052
 3922W        W20106   6.737   1.905   3.205  0.2964  0.0945 -0.0638
 3923W        W20107   9.397   9.471   2.829  0.1668  0.1444  0.0885
 3924W        W20108   7.353  13.261   0.186 -0.2202 -0.2092 -0.0039
 3925W        W20109   1.038   6.763   4.496 -0.2068  0.0185 -0.1042
 3926W        W20110   3.036   4.610  15.305  0.1042 -0.3362 -0.0315
 3927W        W20111   4.023   1.725  13.340  0.0403 -0.1474 -0.0952
 3928W        W20112   1.169   4.899  14.378  0.1860  0.0745  0.2342
 3929W        W20113   0.099   2.828  14.158 -0.2412 -0.4887 -0.2542
 3930W        W20114   0.054   8.575  14.314 -0.0987  0.3231  0.1403
 3931W        W20115   0.972  17.319   3.907 -0.3318 -0.2255  0.1444
 3932W        W20116  16.128  12.403   2.353 -0.1437 -0.1018 -0.1858
 3933W        W20117  17.072  15.707   2.868  0.0720 -0.1469  0.0556
 3934W        W20118   1.379   3.785   2.711  0.1124 -0.4365 -0.2049
 3935W        W20119  17.613   9.874   0.233 -0.2119 -0.3989  0.1725
 3936W        W20120   2.933   5.034   0.183  0.1526 -0.2537 -0.0018
 3937W        W20121   0.229   2.410   4.392  0.3334 -0.2310  0.1498
 3938W        W20122   9.743  17.246   2.914  0.1983 -0.0313 -0.2519
 3939W        W20123  15.372  18.150  12.090  0.3048 -0.1396  0.1468
 3940W        W20124   4.900  16.102   3.265 -0.1285  0.3056 -0.2251
 3941W        W20125   9.601  11.698  14.444 -0.2101  0.2083  0.3024
 3942W        W20126  17.904   3.066   4.133  0.0229  0.1156 -0.0587
 3943W        W20127   7.764  13.695   2.056 -0.2123  0.0135  0.1089
 3944W        W20128  15.892   5.764   4.919  0.2785  0.2644  0.1305
 3945W        W20129   8.057  16.155  13.257 -0.2622  0.2948 -0.2475
 3946W        W20130  12.484  18.854   3.243  0.1048  0.0039 -0.0979
 3947W        W20131  17.764   7.534   1.981 -0.2055 -0.0427 -0.2916
 3948W        W20132   4.765  15.798   3.717 -0.1296  0.1560 -0.3131
 3949W        W20133  14.589  11.405   2.289 -0.1754  0.2288 -0.1287
 3950W        W20134  18.174  18.493   3.471 -0.3879 -0.0921 -0.1123
 3951W        W20135   3.628   2.205   3.740  0.1215 -0.1108  0.0242
 3952W        W20136   5.009   6.956   3.689  0.0634  0.0253 -0.3186
 3953W        W20137   0.925   4.341  13.145 -0.2453  0.3710 -0.1180
 3954W        W20138   1.888  17.493   4.799 -0.3218  0.2612 -0.2926
 3955W        W20139   3.512  13.973  10.857  0.1123 -0.2239 -0.2771
 3956W        W20140  17.787  12.985   0.681 -0.1488  0.0842 -0.2666
 3957W        W20141   9.069  16.726   2.571  0.1180 -0.3784 -0.2221
 3958W        W20142   6.581   0.434  15.360 -0.1849 -0.5550  0.3491
 3959W        W20143  14.502   7.427   4.996 -0.1553 -0.0714  0.0271
 3960W        W20144   2.453   3.635  13.459  0.0677 -0.0056  0.1706
 3961W        W20145  13.452   1.917   5.620  0.0031  0.2645  0.2467
 3962W        W20146  12.049   4.534   4.467 -0.1043  0.2403 -0.2608
 3963W        W20147  13.758  17.840   4.017 -0.1714  0.2590  0.2968
 3964W        W20148  14.660  13.337   1.531 -0.1079  0.0205  0.2294
 3965W        W20149  13.658   0.795   1.464 -0.2749 -0.1857  0.2304
 3966W        W20150  10.524  12.751   0.525 -0.0836  0.0789 -0.2494
 3967W        W20151  16.032  17.484  12.130  0.4156 -0.2134 -0.1067
 3968W        W20152  13.585  14.894   4.179 -0.1140 -0.1463 -0.1127
 3969W        W20153   2.852  11.054  13.712  0.2043 -0.1812  0.0928
 3970W        W20154   8.550  16.319  14.874  0.1737 -0.3461  0.1451
 3971W        W20155  11.892  13.059   2.317  0.1095  0.3481  0.0870
 3972W        W20156  15.766  10.761  12.440  0.4397 -0.0906  0.1288
 3973W        W20157   2.190   0.461  11.177 -0.0636  0.2786  0.2145
 3974W        W20158  17.392  12.776   3.636 -0.0362 -0.0453  0.2311
 3975W        W20159   9.913  15.867  14.933  0.1314  0.1070 -0.1944
 3976W        W20160  16.281  15.705   2.126 -0.0368  0.1805  0.3301
 3977W        W20161   6.480  11.456  15.537 -0.2069 -0.1975  0.1815
 3978W        W20162  14.930   7.718  15.252 -0.0423 -0.0584  0.0233
 3979W        W20163   6.253  11.509   2.996  0.1327 -0.1835  0.0859
 3980W        W20164   0.583  12.626  12.503  0.0856 -0.0861  0.3125
 3981W        W20165  17.714  13.480   4.476 -0.0060  0.3041 -0.1546
 3982W        W20166   2.023   7.383  13.548  0.0775 -0.0137 -0.2144
 3983W        W20167  10.187  12.033  15.045  0.2806  0.0902 -0.0409
 3984W        W20168  14.791   6.713   4.289  0.0178 -0.2268 -0.0126
 3985W        W20169  15.897  17.863   3.128  0.1006 -0.0931  0.1157
 3986W        W20170   0.080  18.150  12.041  0.0080 -0.3346  0.0388
 3987W        W20171   1.587  15.046  14.052 -0.1261 -0.1827  0.0018
 3988W        W20172   0.542   8.826  13.458  0.1016 -0.0840 -0.0178
 3989W        W20173   4.040   9.519   3.070  0.0308 -0.2634  0.2015
 3990W        W20174  16.521   6.042   3.435 -0.1474  0.0371 -0.1162
 3991W        W20175  17.818   7.952  12.476  0.4265 -0.3503  0.0844
 3992W        W20176   2.559  17.182  15.112 -0.1496  0.1329  0.0168
 3993W        W20177   0.544   5.211   0.062 -0.2561  0.0659 -0.1303
 3994W        W20178   8.937   2.573  12.935 -0.1970 -0.0150  0.1891
 3995W        W20179   8.326  12.095  13.317 -0.0035 -0.0153 -0.2929
 3996W        W20180   3.549   3.759   3.424  0.0535  0.2638  0.0360
 3997W        W20181  12.807   3.946  12.778 -0.1757 -0.1216  0.0926
 3998W        W20182   0.718   8.924   2.667  0.0249 -0.0173 -0.1138
 3999W        W20183   6.557   3.247   4.746  0.2323 -0.1111  0.3805
 4000W        W20184   8.425   7.088   3.417 -0.0267 -0.1282 -0.1013
 4001W        W20185  12.861   7.092  14.195  0.1724  0.2517  0.0337
 4002W        W20186   2.094   2.763  12.266  0.3129 -0.1231  0.0054
 4003W        W20187   6.340   9.660   4.848 -0.3401 -0.0314 -0.0991
 4004W        W20188   4.671   2.531  11.580 -0.0003  0.2022  0.0933
 4005W        W20189   8.155   1.635   0.663 -0.1917 -0.0623  0.0470
 4006W        W20190   1.268   6.819   0.030 -0.1255  0.0936 -0.0530
 4007W        W20191   8.795  14.964  13.076 -0.1485  0.0409 -0.2244
 4008W        W20192   8.266  15.454  11.128  0.3034 -0.3384  0.1425
 4009W        W20193   0.963   1.214   4.579 -0.2125  0.0267  0.1548
 4010W        W20194   1.615  17.881   4.924 -0.2756  0.3682 -0.0657
 4011W        W20195   7.289   7.122  10.326  0.3019 -0.2861 -0.3078
 4012W        W20196   5.968   1.769  15.366  0.0135 -0.1118  0.2157
 4013W        W20197   4.868  11.625  10.699 -0.2002  0.1867 -0.0762
 4014W        W20198  11.383  12.111   5.149 -0.1494  0.1067 -0.0975
 4015W        W20199   5.005  15.207  13.015  0.1206  0.1030 -0.0990
 4016W        W20200  17.031   1.179   2.917  0.3854 -0.1021 -0.1917
 4017W        W20201   0.482   0.087   2.438  0.3278  0.0329  0.0479
 4018W        W20202   6.269   7.529  13.573  0.2059 -0.0595 -0.0525
 4019W        W20203  14.650  11.856   4.834 -0.1152 -0.4046  0.1664
 4020W        W20204   6.834  17.078   1.164  0.2301  0.2833  0.3028
 4021W        W20205   8.750  18.693  13.339  0.1043  0.6112  0.0540
 4022W        W20206  16.182  11.448   2.261 -0.1528  0.1099  0.0612
 4023W        W20207   7.310   9.350  12.069  0.1004 -0.0393 -0.1786
 4024W        W20208  14.881  11.108  14.456  0.1228 -0.1900 -0.1219
 4025W        W20209  12.100  11.197  14.046  0.0568  0.0219  0.4648
 4026W        W20210  16.042   1.885   4.078 -0.2616  0.0633  0.2660
 4027W        W20211   8.350  10.439  13.743 -0.1906  0.1591  0.2094
 4028W        W20212  17.662  17.231   3.070 -0.0114 -0.0920 -0.1405
 4029W        W20213   8.986   3.624   2.156  0.0744  0.2031 -0.2361
 4030W        W20214   4.783  12.606  11.835  0.0979  0.0910  0.2311
 4031W        W20215  13.591  15.600   4.670 -0.0115 -0.2174  0.1205
 4032W        W20216   7.292  13.208  14.742 -0.2373 -0.0772  0.1640
 4033W        W20217  17.129  15.394   4.654 -0.0882 -0.4056  0.0292
 4034W        W20218   9.990   1.860   4.471 -0.1285 -0.1178 -0.0421
 4035W        W20219  16.062   7.926   2.317 -0.1057  0.0877  0.0054
 4036W        W20220  14.014   0.532  12.503  0.1091  0.2087  0.1381
 4037W        W20221   6.210   9.647   1.433 -0.2251 -0.0882 -0.0782
 4038W        W20222  16.289  17.985  13.729 -0.3779 -0.1770 -0.0827
 4039W        W20223   2.915   8.123  11.443  0.1643 -0.2255 -0.1112
 4040W        W20224  13.389   7.812  12.379 -0.1761  0.0407 -0.2912
 4041W        W20225   3.226  17.721   0.450  0.4481 -0.3666 -0.2135
 4042W        W20226   7.817   7.443   0.601  0.1356 -0.2180 -0.0473
 4043W        W20227  16.669   8.500   2.573  0.4400 -0.1048 -0.1617
 4044W        W20228   8.994  11.894  14.077  0.2156  0.0098 -0.1360
 4045W        W20229  18.320   4.143  13.154 -0.1216  0.0833 -0.1730
 4046W        W20230  13.320  14.061  12.172 -0.1304  0.1567  0.1838
 4047W        W20231   1.235   1.166  13.178 -0.6378 -0.1322  0.1605
 4048W        W20232   0.392   2.409   0.034  0.2767 -0.1802 -0.1699
 4049W        W20233   6.619  12.192  14.046 -0.0482 -0.0661  0.3016
 4050W        W20234  10.767   9.235   3.737 -0.2368 -0.1251  0.0670
 4051W        W20235  16.937  16.470   0.168  0.0040 -0.1034  0.2424
 4052W        W20236  11.287  12.949   1.003  0.1272  0.0065 -0.0504
 4053W        W20237  17.479  18.538   4.653 -0.3317  0.3386  0.0333
 4054W        W20238   5.923  16.184  11.971 -0.4089  0.0452  0.1998
 4055W        W20239  12.749  14.250  13.399  0.0035 -0.0097 -0.0508
 4056W        W20240  10.776  15.566  10.332 -0.2188  0.0418  0.2945
 4057W        W20241  18.009  12.712   4.561  0.0194 -0.0537  0.1145
 4058W        W20242   0.708   9.829  13.667  0.0114 -0.0765 -0.0399
 4059W        W20243  13.607   5.485   0.579  0.0736 -0.0130 -0.1709
 4060W        W20244  14.601  14.570   4.417 -0.0190  0.2278 -0.1509
 4061W        W20245   4.180  10.714  11.411  0.2627 -0.1448  0.0929
 4062W        W20246  17.191   0.657   4.977  0.3870  0.0988 -0.0159
 4063W        W20247  16.701   2.481  12.822 -0.1528 -0.1502 -0.1125
 4064W        W20248  13.696   3.587   9.833 -0.1047  0.0273 -0.1821
 4065W        W20249  14.490   6.770   1.103 -0.1533  0.1179 -0.0462
 4066W        W20250   7.802  18.673   1.519 -0.0023 -0.0174  0.0568
 4067W        W20251  14.643  14.423   5.793  0.0153  0.0038  0.0348
 4068W        W20252   0.721   7.292  14.515  0.0515 -0.2461  0.0744
 4069W        W20253  14.203   1.384   2.338  0.2084  0.1612  0.1254
 4070W        W20254   2.825   3.578  11.375  0.2346  0.0004  0.0673
 4071W        W20255  16.069  11.719  11.002  0.4291  0.6671 -0.0479
 4072W        W20256  15.821  15.046  14.470 -0.0268 -0.1538 -0.2426
 4073W        W20257   5.911   5.073   4.309  0.2645  0.1192  0.2257
 4074W        W20258  18.363  10.489   3.103 -0.0864  0.1762  0.0464
 4075W        W20259  15.684   0.212   3.000 -0.0238  0.0511 -0.3047
 4076W        W20260   7.181   4.785  14.811  0.1036 -0.1434 -0.2318
 4077W        W20261  15.188  12.418   3.089 -0.1878 -0.1120  0.0110
 4078W        W20262   4.271  13.972   3.212  0.0733 -0.0961  0.1534
 4079W        W20263  14.665   0.374  15.278 -0.1241  0.1978  0.0746
 4080W        W20264  17.313  10.440   0.976  0.3903 -0.2014 -0.0188
 4081W        W20265   8.831   1.046  12.877  0.2927  0.2229  0.1810
 4082W        W20266   7.517   8.220   4.590 -0.0605  0.1370  0.4457
 4083W        W20267   0.085   6.288  10.309 -0.4030  0.0120 -0.1366
 4084W        W20268   5.511  16.405  10.590  0.2067 -0.0447 -0.1192
 4085W        W20269  10.149  12.740  11.189 -0.0063  0.0099 -0.0830
 4086W        W20270   0.625  11.804   0.217  0.2661  0.0791 -0.2107
 4087W        W20271  17.415  17.189   1.784  0.0106  0.2252  0.2868
 4088W        W20272  15.537   0.918  13.580 -0.1525 -0.2195 -0.0316
 4089W        W20273  14.716  12.264   2.853 -0.1643 -0.2154  0.5245
 4090W        W20274   0.878   3.404  12.118 -0.1228  0.1218 -0.1761
 4091W        W20275   4.024   4.492  10.009  0.1824  0.0558  0.2494
 4092W        W20276   9.718   4.165   6.007  0.2187  0.0261 -0.3566
 4093W        W20277  14.849  17.071   1.897  0.2658  0.4197  0.1999
 4094W        W20278  15.714   5.122  11.854  0.1595  0.0593  0.2835
 4095W        W20279   4.908  12.341  10.247 -0.0889  0.0624  0.0273
 4096W        W20280  14.614  13.785  15.464  0.3032 -0.0573 -0.1867
 4097W        W20281   2.242   9.366   2.463 -0.0751 -0.0446 -0.1526
 4098W        W20282   5.446   0.540   3.550 -0.2024  0.0232  0.2932
 4099W        W20283   4.079   9.158  14.816  0.1346 -0.0277  0.2966
 4100W        W20284  17.297  17.629  13.617 -0.1823 -0.0385  0.2339
 4101W        W20285  15.540   4.035   3.396 -0.0874 -0.0725  0.0089
 4102W        W20286  18.244   4.591   1.649 -0.1500 -0.0131 -0.0448
 4103W        W20287   1.128  12.674  11.097  0.3880 -0.0144 -0.4169
 4104W        W20288   5.751  10.444   4.449  0.0318  0.0688  0.1465
 4105W        W20289  16.333  15.374  15.279 -0.0260  0.2252  0.1115
 4106W        W20290  10.369   0.943   4.659  0.1749 -0.3683 -0.1197
 4107W        W20291   5.533  10.040  15.024 -0.1423  0.4510  0.3359
 4108W        W20292  15.058  17.667   0.901  0.0576 -0.0965 -0.1039
 4109W        W20293  14.568  13.341  15.184 -0.1385  0.1494  0.5350
 4110W        W20294   2.750   4.577  12.279 -0.0685  0.0122  0.2928
 4111W        W20295  18.014  10.549   6.331 -0.2001  0.0557 -0.0568
 4112W        W20296   0.008  13.243   4.325 -0.0933  0.1929  0.3497
 4113W        W20297  12.995  17.009   3.162 -0.0160  0.3043 -0.0382
 4114W        W20298   7.689  18.230  14.510 -0.4046 -0.1789 -0.0293
 4115W        W20299  17.748  17.865  14.905  0.2292 -0.2519 -0.1614
 4116W        W20300   7.763   0.281   3.784 -0.0293 -0.1173 -0.0092
 4117W        W20301   5.097   4.172   4.752 -0.0766  0.1083 -0.0529
 4118W        W20302  11.568   2.467  14.884 -0.0347 -0.2242  0.2765
 4119W        W20303  17.640  10.766  12.587  0.0882 -0.0504 -0.3450
 4120W        W20304   1.119   3.978   3.810 -0.0511  0.1010  0.1839
 4121W        W20305   0.990  15.223   3.815 -0.2726 -0.3480  0.1243
 4122W        W20306   1.695   2.347  12.681 -0.0533 -0.2810 -0.1935
 4123W        W20307  12.089  14.910   1.252  0.0426 -0.0764  0.4561
 4124W        W20308   0.990  17.157  12.316  0.1963  0.0136 -0.1963
 4125W        W20309  16.881  18.525   0.773  0.1113  0.0066 -0.0771
 4126W        W20310   5.502  15.881   0.931 -0.0305  0.0316 -0.1761
 4127W        W20311   2.963   8.055   4.606  0.1893 -0.0802 -0.1389
 4128W        W20312   8.712   4.907  12.473  0.1833 -0.0194 -0.1794
 4129W        W20313   3.283   7.513   1.306 -0.1613 -0.3053  0.2888
 4130W        W20314  13.176  14.876   1.405  0.4945  0.3969 -0.0144
 4131W        W20315  15.116   4.300  12.190 -0.3405 -0.0255 -0.1476
 4132W        W20316  10.872  11.862   3.903 -0.1035 -0.1462 -0.2252
 4133W        W20317  14.993  14.788   4.954  0.3161 -0.2530  0.1011
 4134W        W20318  16.261  14.780  10.513  0.0356  0.0822  0.0093
 4135W        W20319   7.329   2.037  14.005 -0.0184 -0.4325  0.0216
 4136W        W20320  12.953  11.548   4.794 -0.2477  0.0325 -0.0569
 4137W        W20321   9.313   7.733  14.313  0.0848 -0.1716  0.1236
 4138W        W20322   8.876   6.225   1.138 -0.0329 -0.2055  0.1712
 4139W        W20323   0.301   2.209   3.229 -0.3198 -0.1181  0.1727
 4140W        W20324   7.410   6.687  12.459 -0.0684 -0.0402 -0.1227
 4141W        W20325   8.177  13.312  15.417 -0.0330 -0.1532  0.4046
 4142W        W20326  18.453  15.611  13.216  0.0130  0.1965 -0.0398
 4143W        W20327  18.797  16.513   3.607  0.5291 -0.1740 -0.2958
 4144W        W20328   4.941   2.320   2.199  0.0483 -0.2400  0.1773
 4145W        W20329   1.279   6.506  10.514  0.0614  0.2305  0.1712
 4146W        W20330  18.048   1.278  12.914  0.0079  0.1112  0.0744
 4147W        W20331  10.327  15.408   4.171  0.3603  0.3469 -0.1472
 4148W        W20332   0.857  18.687  12.231 -0.0780 -0.2186  0.1486
 4149W        W20333  11.932  17.415   2.190  0.2262 -0.0087  0.0363
 4150W        W20334   2.878   6.090   4.835  0.3731 -0.0483  0.0382
 4151W        W20335   8.724   6.073   3.345  0.2120 -0.4245  0.2468
 4152W        W20336   6.409   1.093   4.652 -0.0654  0.0022  0.5478
 4153W        W20337   4.928   1.254  13.681  0.1424  0.3675 -0.1546
 4154W        W20338   4.178  12.766  13.849 -0.0410  0.1155 -0.1039
 4155W        W20339   4.681   9.491   4.461 -0.3276 -0.0881  0.0385
 4156W        W20340  15.388   7.560  15.176 -0.2976 -0.2737  0.0083
 4157W        W20341   3.115  15.882  12.790  0.1173  0.1924 -0.1479
 4158W        W20342   9.513  10.404   2.129 -0.1352 -0.0118  0.1890
 4159W        W20343   3.996  17.166  12.578 -0.3729  0.1435  0.3086
 4160W        W20344   0.891   2.755  13.651  0.0312 -0.0356 -0.3189
 4161W        W20345  10.168   7.270   4.399 -0.2228 -0.0218 -0.1608
 4162W        W20346   9.241  18.655   2.489 -0.2353 -0.0860 -0.2845
 4163W        W20347   9.292   5.337  11.591 -0.0051 -0.4134 -0.2776
 4164W        W20348   6.708   1.305   1.519  0.0508 -0.1657  0.0933
 4165W        W20349  18.644  17.085  10.634 -0.0377 -0.0601 -0.0478
 4166W        W20350   0.787  13.560   5.303  0.0795  0.2096 -0.3105
 4167W        W20351   6.904  10.009  13.283  0.3421 -0.2897  0.2425
 4168W        W20352  15.663   3.495  12.063 -0.3475 -0.1599 -0.0145
 4169W        W20353  10.220   7.514   6.004  0.1060  0.1620  0.0442
 4170W        W20354   5.214  14.323  14.797 -0.4021 -0.0249 -0.0908
 4171W        W20355   8.691   1.036   3.566 -0.3350  0.0965  0.1996
 4172W        W20356  16.678   0.136  12.164 -0.0809  0.0758  0.0473
 4173W        W20357  13.053   1.170  13.477  0.1463  0.5634  0.1140
 4174W        W20358  12.583   2.261   2.382  0.1392  0.0060 -0.1166
 4175W        W20359  15.381   4.582   1.879  0.3545 -0.1396  0.2871
 4176W        W20360  18.827  15.509   3.786  0.0865 -0.1181 -0.0707
 4177W        W20361   6.812   6.018   1.222  0.1643  0.1047  0.1184
 4178W        W20362  10.364  13.324  14.432 -0.3532  0.0996 -0.3105
 4179W        W20363  16.598   9.896   1.857  0.0232 -0.0317 -0.0531
 4180W        W20364   3.497   0.052   4.133  0.2844 -0.0636  0.1856
 4181W        W20365   4.892   9.809  12.214 -0.3448 -0.2202 -0.1389
 4182W        W20366  13.155   5.668   0.428 -0.0485 -0.0708 -0.2744
 4183W        W20367  15.442  18.610   0.738 -0.0967  0.3235  0.0589
 4184W        W20368  18.273  11.677  11.736 -0.1195  0.0925  0.2059
 4185W        W20369   1.608  17.956  11.503  0.1877  0.0254  0.0615
 4186W        W20370  10.145  17.061  13.373  0.0244  0.0162  0.3305
 4187W        W20371   9.127   0.735  13.221 -0.2108 -0.0213 -0.1974
 4188W        W20372   5.064   0.187  14.017 -0.0799  0.1179 -0.1863
 4189W        W20373  18.295   3.248  14.911  0.0449 -0.0124 -0.1093
 4190W        W20374   8.195   4.703  15.097  0.0911 -0.1428 -0.0006
 4191W        W20375  12.783   9.806   2.964  0.0674  0.1258 -0.1903
 4192W        W20376  13.969   7.324  12.905  0.3767  0.1429  0.1011
 4193W        W20377  14.159   4.680  12.693  0.0343 -0.0971  0.0028
 4194W        W20378  16.886  18.021   2.242  0.1188 -0.3632  0.0108
 4195W        W20379  12.829  16.382  12.806 -0.3801  0.1303 -0.2336
 4196W        W20380   2.929   7.152  13.901  0.1733 -0.0656 -0.2618
 4197W        W20381   2.334  14.830   1.698 -0.1038 -0.0322 -0.0299
 4198W        W20382   6.755  14.069   3.573  0.2208  0.0855 -0.2298
 4199W        W20383  18.134  11.804   1.642  0.0290 -0.0507 -0.1024
 4200W        W20384  18.136  10.193   1.532 -0.0067 -0.1600 -0.2304
 4201W        W20385   6.460   0.899  12.179  0.0354  0.0828  0.2465
 4202W        W20386  16.823  16.910   0.131  0.0404 -0.2442  0.1207
 4203W        W20387   4.112  14.865  12.682  0.0167  0.3626 -0.2137
 4204W        W20388  10.309   1.891  13.881 -0.0731 -0.1694  0.0182
 4205W        W20389   1.538  11.774   4.150 -0.0343  0.0276  0.0848
 4206W        W20390   2.389  13.455  11.021 -0.0486  0.2118 -0.0575
 4207W        W20391   7.255  14.204   1.565 -0.0031  0.4062 -0.2215
 4208W        W20392  13.148  10.641   2.407  0.0465 -0.0076  0.0086
 4209W        W20393  17.958  13.213  12.168  0.0075 -0.0184  0.1186
 4210W        W20394   5.421  15.353   1.958  0.1335  0.2299  0.2670
 4211W        W20395  15.024  10.943   2.312  0.1898 -0.2651 -0.0221
 4212W        W20396   1.877   2.029   5.908  0.4502  0.0923  0.0854
 4213W        W20397   9.495  18.425   2.082  0.1205 -0.2195  0.0206
 4214W        W20398  13.797  12.337   0.500  0.0877 -0.1599  0.0630
 4215W        W20399  14.965   5.252  14.139  0.1690  0.0927  0.0993
 4216W        W20400  12.014   3.902   2.142  0.4224 -0.0561 -0.3451
 4217W        W20401   0.234   2.514  14.543 -0.1138  0.0143 -0.0189
 4218W        W20402  16.910   1.957  14.498 -0.0440 -0.0575  0.0022
 4219W        W20403   1.342   2.956   0.497  0.5255  0.1033  0.3770
 4220W        W20404   5.474   6.175  11.186 -0.2305 -0.2679 -0.1473
 4221W        W20405  16.180  13.175   5.057  0.2900 -0.1545 -0.0116
 4222W        W20406  16.634   1.940   0.465 -0.1814  0.1526  0.1903
 4223W        W20407   4.319   5.029  13.853  0.0622 -0.1661 -0.0636
 4224W        W20408   6.110  13.001  12.432  0.2363  0.1816  0.2619
 4225W        W20409  10.165  15.080  15.016 -0.2347 -0.1266 -0.2521
 4226W        W20410   0.829  14.531   3.441 -0.1414 -0.3962  0.2246
 4227W        W20411   7.970   1.839   1.126  0.1060 -0.0412 -0.2403
 4228W        W20412  18.724   4.139   5.441  0.0914  0.1900  0.2594
 4229W        W20413  14.078   7.002  15.285 -0.1987 -0.2448 -0.0928
 4230W        W20414  18.107   2.914   2.806  0.1188  0.0330 -0.1063
 4231W        W20415  14.280   3.731  13.162 -0.3930  0.0949 -0.1976
 4232W        W20416   0.886  12.812  14.656 -0.1253  0.2548  0.0446
 4233W        W20417  16.743  12.741  14.909  0.2970  0.0428 -0.2056
 4234W        W20418  13.893  11.631   1.190 -0.0808  0.0777  0.0694
 4235W        W20419   0.931   1.616  11.061  0.1936  0.2183 -0.2689
 4236W        W20420  18.045  13.546   0.496  0.0643 -0.0979  0.1779
 4237W        W20421  10.937   3.033   4.628  0.1471 -0.1038  0.1855
 4238W        W20422  12.173   7.517  13.724  0.2297 -0.3398  0.0727
 4239W        W20423  17.820  17.375   5.423 -0.1842  0.0091 -0.0775
 4240W        W20424  17.757   0.699  12.083 -0.3347 -0.1330  0.0400
 4241W        W20425  13.309   2.280   3.150 -0.1081 -0.1121 -0.0943
 4242W        W20426   7.038  16.936   3.616 -0.2387 -0.2989  0.1459
 4243W        W20427  14.590  11.265  10.578  0.2200  0.2565  0.0980
 4244W        W20428   7.325  17.393  11.310 -0.3115 -0.0532  0.1068
 4245W        W20429   8.519   2.719   4.557 -0.4072 -0.3393  0.1880
 4246W        W20430   4.457   6.495  13.915 -0.0340  0.2984  0.2184
 4247W        W20431  13.705  10.484   4.229 -0.0687  0.1645  0.1872
 4248W        W20432  15.208   3.229  13.515 -0.1799 -0.0601 -0.2910
 4249W        W20433   3.953   5.908  11.755 -0.0243  0.1586 -0.2281
 4250W        W20434  14.886   8.304   2.673 -0.2382  0.0367 -0.0352
 4251W        W20435   6.621  13.320  11.359 -0.2561  0.0496  0.1293
 4252W        W20436  15.263   3.207   5.924 -0.7056  0.0753  0.0987
 4253W        W20437   5.249  15.738  11.129 -0.3149 -0.1560  0.1422
 4254W        W20438   5.933  14.951   0.547 -0.0630 -0.1497 -0.2866
 4255W        W20439   9.381  15.534   3.852 -0.1153 -0.0095  0.1418
 4256W        W20440   1.571   5.906  10.782 -0.1446  0.2675  0.1094
 4257W        W20441   8.427   8.464   5.014 -0.0925 -0.1142  0.0284
 4258W        W20442  16.324  10.994   2.077 -0.2786 -0.2005  0.0319
 4259W        W20443  13.772  17.111  10.909  0.2666  0.0656 -0.2549
 4260W        W20444  17.107  11.968  14.374 -0.2024  0.1344 -0.2695
 4261W        W20445   2.357   0.814  11.467  0.2898 -0.1569  0.1402
 4262W        W20446  15.165   0.949  11.556 -0.0481 -0.1340 -0.1502
 4263W        W20447  10.993   9.534   5.305 -0.0161  0.1816 -0.1347
 4264W        W20448   8.261   9.711   0.084  0.1587  0.1149  0.1036
 4265W        W20449   1.778   1.620   0.111 -0.0423 -0.1145 -0.4494
 4266W        W20450  11.681   2.982   0.883 -0.1452  0.2585 -0.3185
 4267W        W20451  14.070   2.601  10.571 -0.0461  0.0054  0.3275
 4268W        W20452  10.831   7.115  13.342  0.2351  0.0537  0.5014
 4269W        W20453   6.427   8.392   0.313 -0.3787  0.1075 -0.1460
 4270W        W20454  14.047   7.049   1.371  0.0319 -0.0352  0.1304
 4271W        W20455  16.572  12.949  13.387  0.1248 -0.1070  0.0402
 4272W        W20456  15.929   1.689  10.800 -0.1810  0.0170  0.3632
 4273W        W20457   1.111   1.723   3.590 -0.2143 -0.2354 -0.2353
 4274W        W20458   5.747   1.690  14.496  0.0587  0.2355 -0.0617
 4275W        W20459  10.697   2.247   0.983 -0.0093  0.0648  0.2303
 4276W        W20460   5.188   9.260  13.481 -0.1204 -0.0935  0.1877
 4277W        W20461   1.393   3.906  11.308 -0.0426 -0.0848 -0.3294
 4278W        W20462  12.467   4.257   1.499 -0.0549 -0.4361  0.0827
 4279W        W20463   1.487  12.757   1.619 -0.1271 -0.0870  0.0703
 4280W        W20464  10.424  17.688   3.538 -0.3284 -0.0157  0.0491
 4281W        W20465   8.635  11.680  14.489  0.0874 -0.0183 -0.0398
 4282W        W20466  17.907   5.328   1.111  0.2969  0.1473 -0.3056
 4283W        W20467  15.168  14.590  15.296 -0.3018  0.0364  0.4772
 4284W        W20468  11.569  10.485   2.002  0.1829  0.1949 -0.2068
 4285W        W20469   1.761  16.348   2.071 -0.0879 -0.0365  0.2037
 4286W        W20470   3.444  13.117   4.798  0.0861  0.1120  0.0055
 4287W        W20471  14.337   7.226   1.855  0.3008 -0.2635  0.1194
 4288W        W20472   7.129   8.457  11.065 -0.2649 -0.2234  0.1240
 4289W        W20473  15.701   5.347   5.123 -0.1159  0.2162 -0.1432
 4290W        W20474  16.448  10.341  13.093 -0.0684 -0.0486 -0.0722
 4291W        W20475  18.295  18.847   3.080  0.0660 -0.2481  0.2515
 4292W        W20476  10.144   2.301   0.671 -0.2480 -0.1627  0.2062
 4293W        W20477   9.768   1.895  12.999 -0.0236 -0.2657 -0.1806
 4294W        W20478   6.714  17.827   2.156  0.0636 -0.2038  0.2519
 4295W        W20479   5.766  14.836   4.054 -0.2338  0.0208  0.1402
 4296W        W20480   1.901   3.211  12.237  0.1033 -0.3559 -0.0831
 4297W        W20481  15.121  15.496   2.855 -0.4550 -0.1791 -0.1723
 4298W        W20482  15.666  14.849  11.326 -0.1412 -0.1375 -0.2093
 4299W        W20483  18.827  15.357  13.765  0.0002  0.3192 -0.0683
 4300W        W20484   8.413   1.257   1.809 -0.0557  0.2040  0.0799
 4301W        W20485   2.868  10.367  12.431 -0.1937  0.1223 -0.3354
 4302W        W20486   7.980   5.414  10.976  0.1753 -0.1951  0.2616
 4303W        W20487   2.181   6.089  13.126 -0.1188 -0.1402 -0.1083
 4304W        W20488   2.626  18.012   2.590  0.1350  0.1320  0.3333
 4305W        W20489   2.623  14.835  11.020 -0.1413 -0.0227  0.1051
 4306W        W20490   3.204  10.202   2.749 -0.0677  0.1288 -0.3490
 4307W        W20491   0.514  15.817  14.658 -0.1882 -0.2952  0.0736
 4308W        W20492  18.483  11.252  11.521 -0.1695 -0.0295  0.0191
 4309W        W20493  12.065  14.798  14.890  0.1740 -0.2046  0.2877
 4310W        W20494  17.417  18.618  13.156 -0.0722 -0.0289  0.0089
 4311W        W20495  16.714  18.159  12.123 -0.1354  0.0990  0.0329
 4312W        W20496   0.257  14.808   1.493 -0.0315  0.1002  0.0071
 4313W        W20497  12.148  16.131   3.261  0.2146  0.0538  0.0390
 4314W        W20498   6.332   7.077   3.316 -0.2467 -0.2236 -0.0829
 4315W        W20499   4.695  16.882   3.092  0.1609 -0.0369 -0.0875
 4316W        W20500  17.411   2.494   2.924  0.2436  0.1133 -0.1224
 4317W        W20501   8.445  13.331   2.002  0.2949 -0.1752 -0.1213
 4318W        W20502  11.305   0.880   1.505  0.0906 -0.1092  0.0449
 4319W        W20503   2.970   7.365  11.201  0.2267 -0.1201 -0.0853
 4320W        W20504  16.095  12.769  13.307 -0.0066 -0.0101  0.2546
 4321W        W20505  13.086  10.121   4.164 -0.0610 -0.0442 -0.3242
 4322W        W20506  14.232   2.692   2.173 -0.0527 -0.1212 -0.1052
 4323W        W20507  11.610   7.550  13.712  0.0942 -0.2315 -0.1379
 4324W        W20508   6.393   0.476  14.789 -0.0218 -0.1404  0.2978
 4325W        W20509   2.445   7.259  10.584  0.6123 -0.0669  0.1700
 4326W        W20510   2.833  16.341   3.432 -0.1341  0.1395 -0.1632
 4327W        W20511   9.847   2.201  14.069 -0.0132 -0.1319 -0.0963
 4328W        W20512   1.364   0.595   0.971 -0.0065 -0.1542  0.1352
 4329W        W20513   8.033   6.554  12.553 -0.1323 -0.4517 -0.3769
 4330W        W20514   7.684   7.843   2.820 -0.0144  0.1668  0.1797
 4331W        W20515   3.972  12.000   0.263 -0.1119 -0.0859 -0.0560
 4332W        W20516   5.506  15.350  11.192 -0.0301 -0.2208 -0.2722
 4333W        W20517  15.279  12.214  13.616 -0.1075  0.1146 -0.0616
 4334W        W20518  17.880  14.508   3.750 -0.2756 -0.0011 -0.0790
 4335W        W20519   3.530   6.927  14.336  0.3356  0.3297  0.1288
 4336W        W20520  11.892  17.065   1.251  0.0006 -0.0731  0.1606
 4337W        W20521   0.490  12.923   0.466 -0.1662 -0.0026  0.1001
 4338W        W20522  16.802  16.744   4.303 -0.0223  0.2193 -0.2698
 4339W        W20523  11.402  13.534   1.100  0.0622 -0.1714  0.3730
 4340W        W20524  17.956  17.866   5.659  0.3662 -0.0719 -0.1707
 4341W        W20525  16.932  17.438  12.781 -0.0539  0.0117  0.0106
 4342W        W20526  15.708  12.698   2.172  0.1294  0.1012 -0.1427
 4343W        W20527   2.135  17.983   4.999 -0.1134 -0.2857 -0.0683
 4344W        W20528   1.227   4.711  13.532  0.0599  0.0854 -0.0351
 4345W        W20529   8.328   9.222  13.803 -0.5110  0.0754 -0.0483
 4346W        W20530  17.248  14.429  14.305 -0.1199 -0.0314  0.0630
 4347W        W20531   6.097  10.996   5.527  0.1514  0.0208 -0.2627
 4348W        W20532  10.778   7.903  13.466  0.2211 -0.2572 -0.2742
 4349W        W20533  14.148  14.151  12.728  0.0037 -0.4038  0.0141
 4350W        W20534  17.442  11.206  12.705  0.2051 -0.2374 -0.0462
 4351W        W20535  13.198  11.841   0.061 -0.1436 -0.0506 -0.0007
 4352W        W20536  11.022  16.898  11.921  0.0979 -0.0632 -0.0761
 4353W        W20537   1.277   6.614  11.346  0.0770  0.2314  0.1341
 4354W        W20538  10.685  16.335  15.327  0.0755  0.2889  0.0624
 4355W        W20539   3.805  10.679  10.329 -0.0750  0.1203 -0.2055
 4356W        W20540   7.940   2.742  15.447 -0.0231  0.2127  0.3665
 4357W        W20541  14.662   0.600   3.274 -0.3058  0.2287  0.1956
 4358W        W20542  17.092   3.254  14.529 -0.0303  0.0606 -0.1355
 4359W        W20543  13.293  18.153   3.563  0.1516  0.3791  0.3513
 4360W        W20544   7.348   6.073   4.346  0.0382 -0.1157  0.4779
 4361W        W20545   1.276  17.174  10.439  0.1857 -0.1895 -0.1589
 4362W        W20546   6.958  13.679  14.893  0.3198  0.1879  0.0122
 4363W        W20547  17.287   2.004  11.578  0.0348 -0.0525 -0.2772
 4364W        W20548   5.448   9.024  10.612  0.1696 -0.0501  0.1476
 4365W        W20549   0.623   3.993   0.911  0.0432  0.0013 -0.0466
 4366W        W20550  14.787   2.129  12.543 -0.2033 -0.1905 -0.0659
 4367W        W20551  13.537   6.283  14.683 -0.1586  0.1948  0.0594
 4368W        W20552   9.702  14.242   3.723  0.2542 -0.0868 -0.0840
 4369W        W20553  11.148   4.162  14.212 -0.0418 -0.0652 -0.0991
 4370W        W20554   7.670  17.207  12.125  0.2336 -0.1249 -0.0026
 4371W        W20555  12.181  11.554   4.021  0.1012  0.1173  0.2210
 4372W        W20556  12.562  13.812   4.343 -0.1637 -0.1888 -0.2393
 4373W        W20557  11.269   4.616   0.858  0.0383 -0.1299  0.1246
 4374W        W20558  14.145  11.802   1.718  0.2170  0.1293  0.1445
 4375W        W20559   4.589   2.442   0.897 -0.2915  0.0521  0.1769
 4376W        W20560  16.966  15.934   4.719 -0.0168 -0.5233  0.2890
 4377W        W20561  10.015   9.985   0.930  0.0170 -0.3345  0.2042
 4378W        W20562  15.166  11.018  14.000 -0.0901 -0.0498 -0.2640
 4379W        W20563   3.187   2.696   5.188 -0.1702  0.0246 -0.2143
 4380W        W20564   6.937  16.011   0.359 -0.5062  0.0685  0.3647
 4381W        W20565  15.342   1.765  12.433  0.0774 -0.2082 -0.1962
 4382W        W20566  15.443  13.351   0.050 -0.1343  0.1225 -0.0089
 4383W        W20567   8.323  16.965   1.012  0.1771 -0.2868 -0.1006
 4384W        W20568   5.651  14.031  14.975  0.2425  0.0455 -0.4166
 4385W        W20569   6.810  15.983   3.275 -0.1420  0.1094 -0.1182
 4386W        W20570  17.740  17.697  14.217  0.1249 -0.1254  0.2291
 4387W        W20571  12.174   3.559   3.632 -0.0423  0.1143 -0.1437
 4388W        W20572   5.515  10.755   3.268  0.2895  0.5048 -0.0444
 4389W        W20573   4.533  14.286   3.547 -0.0618 -0.0841  0.1728
 4390W        W20574  14.925   4.574   9.813 -0.2701 -0.0920  0.2396
 4391W        W20575  10.555   6.921  15.067 -0.1758 -0.2320  0.2160
 4392W        W20576  15.916  16.315  10.927 -0.5162  0.0366  0.1511
 4393W        W20577  12.225   3.267  12.725 -0.0392 -0.0006 -0.2849
 4394W        W20578   5.824   6.996   4.946  0.1683 -0.1045  0.2774
 4395W        W20579  13.748   4.368  12.596 -0.0128 -0.0064 -0.0360
 4396W        W20580   4.000  18.385  14.789  0.0517 -0.0035 -0.1909
 4397W        W20581  11.425   1.937  14.667 -0.4363 -0.2457  0.1385
 4398W        W20582   4.692   0.882   3.387  0.2850 -0.4331 -0.5360
 4399W        W20583  15.529   6.995   1.462 -0.0042 -0.0839  0.0889
 4400W        W20584  13.353  16.540   4.743 -0.0280  0.1176 -0.1453
 4401W        W20585  13.291  12.930  14.881  0.0796  0.0082  0.6065
 4402W        W20586   8.943  13.643   5.275 -0.0967 -0.4312  0.1139
 4403W        W20587  13.729  15.785   1.594  0.5815  0.2570  0.1273
 4404W        W20588   8.731  17.239  14.985 -0.0032 -0.1047 -0.0540
 4405W        W20589   6.383  13.368  11.887 -0.1512 -0.1508  0.3222
 4406W        W20590   0.659   8.340  12.792 -0.1844  0.2500 -0.3211
 4407W        W20591  12.781   4.027   0.583  0.2201  0.2776 -0.0616
 4408W        W20592  16.385  11.903   3.611  0.2426 -0.3453 -0.2170
 4409W        W20593   7.244   0.286   3.848 -0.1189  0.0598  0.4156
 4410W        W20594   6.314  13.265  14.973  0.1213  0.2566  0.0588
 4411W        W20595  14.886   3.976  11.831 -0.2430  0.0384 -0.1582
 4412W        W20596  18.516  12.260   0.006 -0.0890  0.0900 -0.0167
 4413W        W20597   1.010   2.834   2.851 -0.3585  0.0786  0.3785
 4414W        W20598  11.863   6.604   2.524  0.2110  0.0970  0.4236
 4415W        W20599  18.138  13.872  14.799 -0.0249  0.2216 -0.0362
 4416W        W20600  15.444   4.443   3.029  0.0640 -0.4187 -0.4160
 4417W        W20601   8.013   1.229  11.811 -0.0207 -0.1241  0.0973
 4418W        W20602  13.633   4.362   3.621 -0.1163  0.0987  0.0162
 4419W        W20603  13.307   1.826   0.899 -0.1156 -0.0219  0.4397
 4420W        W20604   6.491   7.474  15.368  0.1381  0.2933 -0.0531
 4421W        W20605   3.169   0.383  11.002  0.2995  0.0517 -0.1037
 4422W        W20606   2.208   9.861  11.450 -0.3001  0.3032  0.1514
 4423W        W20607   3.874  13.738   2.856  0.0302 -0.2949 -0.0870
 4424W        W20608   9.895  10.196   4.615 -0.0720  0.2794  0.2826
 4425W        W20609  13.887  14.235   3.244  0.1286  0.4339 -0.1748
 4426W        W20610  17.937  13.805  12.933 -0.1034 -0.0062 -0.1218
 4427W        W20611  16.905  10.813  13.730 -0.2002  0.1583 -0.2817
 4428W        W20612  15.097   6.335   3.917  0.3299 -0.1397  0.0364
 4429W        W20613   9.119  17.021  13.521  0.0151 -0.1570 -0.0428
 4430W        W20614   8.240   2.521   0.356 -0.1175  0.2177  0.1924
 4431W        W20615   0.381   3.955   3.810 -0.1169 -0.0916 -0.0633
 4432W        W20616   6.195   3.518  14.005 -0.0026  0.1030  0.0714
 4433W        W20617   3.506  18.407   1.178 -0.1149 -0.1678  0.1073
 4434W        W20618   2.249  15.998  12.158  0.2913  0.1858 -0.1195
 4435W        W20619  10.050   9.843   3.408 -0.1955  0.2212  0.0625
 4436W        W20620   2.149  10.885  13.271 -0.1450 -0.1632  0.1378
 4437W        W20621   2.901  17.306   3.904 -0.0236 -0.0275  0.0711
 4438W        W20622   0.900  16.203  13.418  0.1822 -0.3386  0.1724
 4439W        W20623   2.997  12.253   5.002  0.0396  0.0106 -0.1997
 4440W        W20624  12.414   3.283   0.388 -0.0969  0.3333 -0.0179
 4441W        W20625   4.861  17.000   4.064 -0.0855  0.1396 -0.3163
 4442W        W20626  11.332  10.937   1.978 -0.0330  0.2860  0.1640
 4443W        W20627   6.353   9.026   3.246  0.0330  0.0192  0.1105
 4444W        W20628   2.924   0.154   5.321  0.2470  0.1365 -0.0255
 4445W        W20629  14.148  13.970  10.713 -0.2542 -0.1972 -0.0957
 4446W        W20630  12.978   4.544  13.655 -0.0109 -0.1546 -0.2334
 4447W        W20631   9.706   3.805  13.061 -0.2837  0.1360 -0.3805
 4448W        W20632   5.636   1.095   0.497  0.3073 -0.1507 -0.3033
 4449W        W20633  13.810  17.701  11.450 -0.2776  0.0766  0.1685
 4450W        W20634   1.614   3.432  11.399  0.0032 -0.0155 -0.0040
 4451W        W20635   3.531   9.389  13.058  0.0625  0.2116 -0.2726
 4452W        W20636  18.310   8.512  11.539  0.0346  0.0053 -0.0161
 4453W        W20637   8.866   3.673  12.698  0.1048 -0.2120  0.2979
 4454W        W20638   4.984  12.263   4.092  0.2547 -0.4024 -0.2215
 4455W        W20639  13.745   7.053  11.749  0.0089 -0.3479  0.0446
 4456W        W20640  12.491  15.498   0.771 -0.0391  0.1675 -0.1872
 4457W        W20641  11.729   5.685   4.961  0.2152  0.1306  0.0032
 4458W        W20642   3.344  17.720   1.972  0.0103 -0.2643  0.1277
 4459W        W20643   0.282   8.787  11.567 -0.2166 -0.1324 -0.1279
 4460W        W20644  17.769  17.729   1.022 -0.1503 -0.0555  0.3459
 4461W        W20645   0.941  13.691   0.013 -0.2118 -0.1054 -0.0495
 4462W        W20646  14.780   3.261   2.766 -0.0058  0.0237  0.3065
 4463W        W20647   4.210  18.171   1.905 -0.2463 -0.2461 -0.0799
 4464W        W20648   7.098   8.635   2.231  0.2100  0.1437 -0.1644
 4465W        W20649   3.765   7.250   3.146  0.3706  0.1114 -0.3404
 4466W        W20650  16.767   4.179  12.116 -0.2935 -0.2162 -0.1782
 4467W        W20651  13.375   3.989   3.887  0.2305 -0.1250 -0.1054
 4468W        W20652  18.221   8.714   0.581 -0.2590  0.1036 -0.3247
 4469W        W20653   5.095  12.839   1.573 -0.0072  0.2766 -0.1819
 4470W        W20654  12.605   3.007  12.414  0.1778  0.0256 -0.1011
 4471W        W20655   6.232  10.738   4.681  0.1383  0.1369 -0.0543
 4472W        W20656   2.226   3.097   5.057 -0.1059  0.5091  0.2124
 4473W        W20657  12.502  14.112  13.808  0.0549  0.2619  0.0079
 4474W        W20658   1.483  11.308  11.486  0.1360  0.0860 -0.0330
 4475W        W20659  17.484   9.407  11.435  0.2298  0.0828  0.2620
 4476W        W20660  16.957  12.957   2.213 -0.0200  0.1974 -0.0422
 4477W        W20661   8.535   1.270   2.792  0.1663  0.0532 -0.1565
 4478W        W20662  14.351  12.362  14.246 -0.1217 -0.1568 -0.2167
 4479W        W20663   8.517  17.295   0.683  0.3831 -0.0359  0.1979
 4480W        W20664   5.916  12.050   4.103  0.3733  0.3078 -0.2234
 4481W        W20665  18.493  13.358   4.022  0.3987  0.1099  0.1531
 4482W        W20666   7.351  12.692  14.671  0.0600  0.0104  0.1609
 4483W        W20667  17.494   3.957  10.233  0.0936 -0.1699  0.2003
 4484W        W20668  17.337   2.334   3.987 -0.0782 -0.2206 -0.0558
 4485W        W20669  18.296   3.587  13.144 -0.2061  0.1433 -0.2170
 4486W        W20670  10.127  18.124  15.427 -0.2606 -0.2215 -0.0592
 4487W        W20671  13.451   9.773   1.893  0.2110 -0.0607 -0.0166
 4488W        W20672  14.636  15.983  10.710  0.0524  0.3677  0.3924
 4489W        W20673   9.635  16.937  13.549 -0.1009  0.0018 -0.1594
 4490W        W20674  18.407   6.758   0.334 -0.1441 -0.1252  0.2079
 4491W        W20675  16.475   4.011  12.445  0.1784 -0.0618  0.3835
 4492W        W20676   8.349  11.490  11.901 -0.2326  0.1085  0.0236
 4493W        W20677   8.696   2.788  11.923  0.1529 -0.1957  0.0745
 4494W        W20678  14.216   0.553   4.843  0.0801 -0.2391  0.2828
 4495W        W20679   6.267   5.562  14.427 -0.2438  0.0512 -0.0210
 4496W        W20680   4.738   4.954  14.794 -0.0282 -0.2570 -0.2665
 4497W        W20681   4.383  18.668   1.416 -0.0587 -0.0292  0.0130
 4498W        W20682   6.283  12.161   0.931 -0.0942  0.0983 -0.0454
 4499W        W20683   2.762   3.160   3.699  0.2162  0.1723 -0.2151
 4500W        W20684  15.779  15.396  11.949  0.2448  0.1496 -0.0704
 4501W        W20685   7.162  17.798   0.832  0.0509  0.2090  0.1419
 4502W        W20686  15.717  13.236  11.580 -0.1725  0.1654  0.2740
 4503W        W20687  14.614  17.323  13.136  0.0774 -0.1151  0.3601
 4504W        W20688   6.607  12.245  12.871 -0.1986 -0.2441 -0.1081
 4505W        W20689  12.760   6.774  10.596  0.1239  0.3161  0.1135
 4506W        W20690   1.046  10.702   2.143  0.0728 -0.2000  0.0345
 4507W        W20691  13.128   8.538  14.798 -0.3283 -0.0814  0.1242
 4508W        W20692   0.934  13.527  12.050 -0.1925  0.1825  0.0707
 4509W        W20693  12.050   2.630  13.369 -0.2981 -0.1290 -0.1821
 4510W        W20694  16.869  11.834  12.661  0.1666  0.1598 -0.0418
 4511W        W20695  12.201   6.475   1.623 -0.0018 -0.1064 -0.1034
 4512W        W20696   7.531  13.561   3.873  0.2919  0.1852 -0.1377
 4513W        W20697  16.998  16.672   1.059  0.1712  0.1643 -0.2036
 4514W        W20698   3.937  13.099  13.555  0.1216  0.1699 -0.1618
 4515W        W20699   6.474   3.865   0.636 -0.1032 -0.0197 -0.4557
 4516W        W20700   4.877  15.468  12.587 -0.0430  0.0454 -0.0144
 4517W        W20701   9.413   0.063   4.112  0.0886 -0.1435  0.1766
 4518W        W20702   9.130  15.564   1.026  0.1491 -0.2268  0.2658
 4519W        W20703   3.388   4.516  13.442  0.2383 -0.3358 -0.0790
 4520W        W20704  13.801  13.214   3.300 -0.1091  0.0960 -0.0577
 4521W        W20705  18.128  10.726  13.365  0.1581  0.1535 -0.0374
 4522W        W20706  17.282   8.636   3.368 -0.0183 -0.0116  0.1654
 4523W        W20707   4.282   2.118  12.837  0.0407 -0.2285  0.1792
 4524W        W20708  12.076  10.621   0.717 -0.0467 -0.1015 -0.1985
 4525W        W20709  18.496  11.314  15.127  0.1481  0.0439  0.1218
 4526W        W20710  16.852  10.682  12.421  0.0016  0.0217 -0.0615
 4527W        W20711   1.340   3.849  10.754  0.0895 -0.0756 -0.1513
 4528W        W20712  10.520  16.604  14.752  0.1135 -0.2074  0.0358
 4529W        W20713  17.480   3.489  13.461  0.2153  0.0097  0.2151
 4530W        W20714   2.489   9.249  14.814  0.1992 -0.0648  0.1650
 4531W        W20715   2.382   7.931   1.134 -0.0564 -0.2403  0.2623
 4532W        W20716  11.959  17.424  13.970 -0.0739  0.2918 -0.0306
 4533W        W20717  16.311   6.662   3.967  0.2366 -0.1603 -0.1236
 4534W        W20718   7.487   4.282   4.790  0.0014  0.7342 -0.0757
 4535W        W20719   5.527  18.092  11.885 -0.3177  0.4838  0.1709
 4536W        W20720  11.439   2.639  11.172 -0.0950 -0.1882  0.0527
 4537W        W20721  10.077  17.607   0.079 -0.0072 -0.0537 -0.0330
 4538W        W20722   0.228   4.052  13.587 -0.1456  0.1695  0.1925
 4539W        W20723   0.685  17.258  14.910 -0.3153  0.1338  0.1413
 4540W        W20724   2.290   0.576   4.212  0.0041  0.2066 -0.1071
 4541W        W20725   8.915  18.823   4.146 -0.0737  0.1219  0.1608
 4542W        W20726   5.598  13.466  14.569 -0.0951  0.2052 -0.0034
 4543W        W20727   2.435   9.476   4.687 -0.0681 -0.0454  0.0786
 4544W        W20728  16.411  11.827   3.108 -0.0644 -0.0295 -0.0234
 4545W        W20729  17.349  16.746  14.620  0.2684  0.0069 -0.0196
 4546W        W20730  12.424   0.470  11.203 -0.1331  0.1361  0.2151
 4547W        W20731   9.609   1.487   0.382 -0.0653 -0.1932  0.4839
 4548W        W20732  15.288  16.917  14.612  0.2064 -0.2453  0.1884
 4549W        W20733  14.102   6.774   3.660  0.2308  0.1557 -0.1440
 4550W        W20734   2.675  17.544   5.241 -0.1696 -0.2683 -0.0597
 4551W        W20735   7.235  17.718  13.840 -0.1790 -0.0294 -0.1451
 4552W        W20736  14.099   4.020   3.317  0.1200  0.0838  0.0707
 4553W        W20737  16.400  18.310   1.459  0.2168 -0.4222 -0.1798
 4554W        W20738  13.960   9.314   5.696 -0.1385  0.2857  0.0020
 4555W        W20739   3.576   4.741   2.436  0.1599  0.1251  0.1846
 4556W        W20740   9.139   7.677   0.183  0.2045 -0.1013 -0.0518
 4557W        W20741   2.932   1.078  11.364 -0.0052  0.0128 -0.2789
 4558W        W20742  16.826  16.497  12.789  0.1761 -0.0022  0.1564
 4559W        W20743  13.388  12.827   2.629 -0.0170 -0.2941  0.0731
 4560W        W20744  15.075  15.942   0.211  0.0920  0.2323 -0.0642
 4561W        W20745   6.001   9.966   0.731 -0.1480  0.4247 -0.0330
 4562W        W20746   4.317  12.587   2.554 -0.3469  0.0708  0.0275
 4563W        W20747  13.494  10.000   4.957 -0.0538  0.0629  0.2890
 4564W        W20748   9.140  11.843  14.576 -0.0296  0.0077 -0.0704
 4565W        W20749   4.095   2.348  14.074 -0.3175  0.0686 -0.0829
 4566W        W20750   9.214   6.788  10.424 -0.0835 -0.1545  0.1002
 4567W        W20751   0.650  10.920  11.628  0.2272  0.4669 -0.2416
 4568W        W20752   0.707   5.149  14.625  0.1581  0.1338  0.0327
 4569W        W20753  12.197   9.613  14.499 -0.1687 -0.3720 -0.1204
 4570W        W20754  11.326   3.872  10.910 -0.0901  0.2055  0.0883
 4571W        W20755   3.590   8.782  10.923  0.3595  0.1366 -0.1441
 4572W        W20756   6.869   9.912   3.652 -0.3683  0.2271 -0.0567
 4573W        W20757   9.615  17.280   1.990 -0.2214  0.2638  0.1194
 4574W        W20758   7.720  10.376   1.206  0.0778  0.0038 -0.2008
 4575W        W20759   5.478   7.804   3.056 -0.2939 -0.3500 -0.0128
 4576W        W20760  10.985  14.819   2.921  0.0545  0.0417  0.2369
 4577W        W20761   2.465  12.972   4.808  0.2112  0.0365  0.0650
 4578W        W20762  14.418  16.624   1.017 -0.1069 -0.0591 -0.3910
 4579W        W20763  13.642   9.142  14.498  0.0166  0.0516  0.1019
 4580W        W20764  15.356   4.151  14.744  0.2266  0.2523  0.0844
 4581W        W20765  14.483  18.675  15.320 -0.3789  0.6427 -0.2110
 4582W        W20766  18.022   2.452   0.864  0.2138 -0.0779 -0.0948
 4583W        W20767  17.219  14.043   0.376 -0.1129 -0.2395 -0.0327
 4584W        W20768  17.702  11.880   1.326 -0.1964  0.1880 -0.3087
 4585W        W20769  13.331  15.216   1.799  0.0230 -0.0914  0.0142
 4586W        W20770  12.793   9.801   5.254  0.2260 -0.0869 -0.3593
 4587W        W20771  13.944  11.980   0.809  0.2369  0.0240 -0.1652
 4588W        W20772   9.873   7.344  11.574  0.1384  0.0123  0.1426
 4589W        W20773  16.759  16.554   3.842 -0.1984  0.0381 -0.2146
 4590W        W20774   4.606   3.783  15.439  0.0261  0.0232 -0.0754
 4591W        W20775  11.195   7.627  10.197  0.0507 -0.0287  0.2228
 4592W        W20776  14.158  18.674   0.477  0.1297 -0.1581 -0.0477
 4593W        W20777  11.000   4.219  11.993 -0.0456 -0.0519 -0.2010
 4594W        W20778   5.031   3.298   0.726  0.0220 -0.2060 -0.1959
 4595W        W20779   6.354   1.198  14.996 -0.2691  0.0825 -0.2599
 4596W        W20780  13.671  14.547  13.549 -0.2705  0.0905  0.1681
 4597W        W20781   7.547   7.139   2.560  0.0966  0.1007  0.1186
 4598W        W20782  16.230   3.939   1.633 -0.0581 -0.1298  0.3362
 4599W        W20783  13.301   8.660  11.867 -0.1436  0.0452  0.2096
 4600W        W20784   5.097  18.688  13.046  0.0828  0.3610 -0.2733
 4601W        W20785  15.866   6.135   2.251 -0.1264 -0.0545  0.0576
 4602W        W20786   0.623  14.263  10.710  0.3041  0.2620 -0.3546
 4603W        W20787  16.994   8.421   4.889 -0.0547 -0.0277  0.1384
 4604W        W20788   3.591   7.088  10.861  0.0769 -0.3773  0.0539
 4605W        W20789  12.731   1.876  14.911  0.2627 -0.0617  0.1273
 4606W        W20790   4.939   5.127  15.423  0.0713  0.0435 -0.0371
 4607W        W20791   6.722  16.035  10.294  0.0385  0.1438 -0.2080
 4608W        W20792  15.618   8.206  12.984  0.1108 -0.1929 -0.5438
 4609W        W20793  10.586  12.031   2.480 -0.0743  0.1881 -0.0019
 4610W        W20794   7.559   9.075  15.448 -0.0576 -0.2694 -0.1533
 4611W        W20795   3.357  18.066   4.210  0.0541 -0.0279  0.3563
 4612W        W20796   5.847  18.392   3.567  0.5054  0.2677  0.0677
 4613W        W20797   9.611   7.030  10.503 -0.2788  0.0954  0.1326
 4614W        W20798   8.542   1.342  11.767 -0.2161 -0.3902 -0.1496
 4615W        W20799  17.038   0.740  12.302 -0.4272 -0.1189  0.1681
 4616W        W20800   9.389  14.610  13.808  0.0261 -0.4177  0.1021
 4617W        W20801   3.951  16.187   3.874 -0.0222  0.0685  0.1364
 4618W        W20802  18.332   9.301   3.482 -0.1446  0.0420 -0.0415
 4619W        W20803   5.437   3.626  12.946  0.3121  0.2479  0.3735
 4620W        W20804  13.113   3.087  12.211  0.0492 -0.2107 -0.3354
 4621W        W20805   1.738  13.161   5.061  0.3499  0.0819 -0.1132
 4622W        W20806  10.439  13.120  13.611  0.3712  0.2758  0.2076
 4623W        W20807   2.689   8.706  14.590 -0.2436 -0.0499 -0.1945
 4624W        W20808  11.319  16.220   2.605  0.3676 -0.4604 -0.1963
 4625W        W20809  17.470   1.797  11.078  0.0265  0.4141  0.2275
 4626W        W20810  16.896   7.574  12.301  0.0199  0.0575 -0.0226
 4627W        W20811   3.482  10.800   3.769  0.0428  0.2261  0.4097
 4628W        W20812   6.807   4.916  12.891 -0.1809 -0.1027  0.2741
 4629W        W20813   2.369   3.913   1.216  0.3217 -0.1246  0.1260
 4630W        W20814  17.641   1.338  10.863 -0.2707 -0.1883  0.1226
 4631W        W20815  12.744  10.702   9.995  0.0261 -0.2141 -0.0436
 4632W        W20816   6.292   0.417   0.219  0.0786 -0.0525  0.3171
 4633W        W20817   9.654   1.653   3.578  0.1419  0.1597 -0.1720
 4634W        W20818  18.174  17.405   0.305 -0.0330 -0.0122  0.4839
 4635W        W20819  12.802   8.885   1.529  0.1413  0.2013 -0.2448
 4636W        W20820  11.801   2.666   0.236 -0.0723 -0.2322  0.0445
 4637W        W20821   5.460  11.175   4.648  0.0983 -0.0027  0.3731
 4638W        W20822   7.681  10.875   5.240 -0.1331  0.0614  0.0854
 4639W        W20823  18.048   0.461   4.678  0.1900  0.3109  0.1418
 4640W        W20824   6.113  13.100  10.465  0.1476  0.4220  0.0482
 4641W        W20825  11.667  15.456   3.052  0.0380  0.1314  0.0842
 4642W        W20826  17.995   0.809  15.321  0.0276  0.1131  0.0782
 4643W        W20827  12.315   8.277  13.406 -0.0163 -0.0439  0.1356
 4644W        W20828  17.949  13.545   4.026 -0.0958  0.2477  0.0007
 4645W        W20829   3.167  15.517  15.477 -0.1923 -0.1304 -0.0669
 4646W        W20830   5.514   3.375   5.704 -0.0617 -0.1509 -0.0534
 4647W        W20831   9.214   0.208  11.474 -0.0877 -0.2620  0.0845
 4648W        W20832   3.561   9.471   3.201  0.1884  0.1504  0.3587
 4649W        W20833  12.699  13.820   3.266 -0.4594  0.0809  0.2478
 4650W        W20834   9.428   3.780  15.111  0.0320  0.0383  0.1937
 4651W        W20835  16.896   5.579   1.000  0.3967 -0.0241  0.1251
 4652W        W20836  10.081   7.786   4.196 -0.2064 -0.0558  0.0698
 4653W        W20837  18.279   5.725   4.047  0.0581  0.1919  0.0235
 4654W        W20838  14.859  11.957   1.987  0.0237 -0.3138 -0.1906
 4655W        W20839  14.601   5.456  13.850 -0.0208 -0.1099 -0.2715
 4656W        W20840   3.960   5.755   1.668  0.2144 -0.2082  0.1063
 4657W        W20841  12.409  13.504   5.139 -0.0912  0.0146 -0.2639
 4658W        W20842  18.255  14.781   4.731 -0.0097  0.0576 -0.0275
 4659W        W20843   7.677  10.527  11.067 -0.0077  0.2344 -0.2683
 4660W        W20844  17.394   1.223  13.862  0.1972 -0.0026 -0.0397
 4661W        W20845  16.364   5.035   0.488  0.0360  0.2093  0.0672
 4662W        W20846   9.407  16.552   1.456  0.0737 -0.1141  0.3222
 4663W        W20847  14.465  16.498  14.852  0.0700 -0.0942  0.0456
 4664W        W20848   3.350   7.310  14.087 -0.1932  0.2545  0.1784
 4665W        W20849   5.285   5.453  12.085  0.1363 -0.1090  0.0483
 4666W        W20850  16.950  15.657  13.989  0.3656  0.2762  0.1099
 4667W        W20851  11.012   5.367   3.920  0.0120 -0.0043 -0.2152
 4668W        W20852  17.706  12.612  10.668  0.0008 -0.0977  0.1193
 4669W        W20853   7.746   5.837   0.200  0.2413  0.2165 -0.1168
 4670W        W20854  17.167   0.564  12.713 -0.0175  0.3007 -0.1407
 4671W        W20855  17.575   3.866  12.939 -0.0135  0.1092 -0.1114
 4672W        W20856   6.229  15.229   0.084  0.1909 -0.1668 -0.1203
 4673W        W20857   8.829   5.776  14.691 -0.1315  0.1308 -0.0656
 4674W        W20858  14.614   5.631  11.920  0.2116  0.1296  0.1097
 4675W        W20859  10.180  14.948  13.214  0.3271  0.1611  0.0390
 4676W        W20860  15.254   9.654  14.685 -0.2210  0.0283 -0.2146
 4677W        W20861   1.497  15.971   2.247 -0.4806  0.1672  0.0208
 4678W        W20862   3.230   7.417  15.391 -0.2544 -0.0438  0.3409
 4679W        W20863   4.131   9.026   2.923 -0.0799  0.2033  0.4096
 4680W        W20864   5.323   9.298  11.535  0.0539 -0.0952 -0.1718
 4681W        W20865  18.421   3.266   0.125  0.0085  0.0789 -0.1419
 4682W        W20866  14.285  15.594   1.362  0.0102  0.1119  0.0309
 4683W        W20867   7.999   2.268   2.672 -0.3641 -0.1529  0.0914
 4684W        W20868   9.385  11.571   0.543 -0.3231  0.1996  0.2248
 4685W        W20869   3.551  10.763  10.736  0.0024  0.1704 -0.0803
 4686W        W20870   9.075  11.318  10.583 -0.2853 -0.2314 -0.0580
 4687W        W20871   9.262  12.725   1.341 -0.1173  0.0499  0.3271
 4688W        W20872  18.522   7.452   1.751 -0.0465  0.0774 -0.1986
 4689W        W20873   3.380  14.556   2.808  0.0789 -0.1270 -0.1070
 4690W        W20874  10.026  15.325  14.025  0.1253 -0.1266  0.0930
 4691W        W20875   8.976   1.651  15.331 -0.1077  0.0318  0.3884
 4692W        W20876   5.942   9.847  10.841  0.0711 -0.0517 -0.2378
 4693W        W20877   5.334  11.269  15.302  0.0364 -0.1416 -0.0052
 4694W        W20878   9.329   8.412   0.727  0.1542 -0.3649 -0.0251
 4695W        W20879   8.467   7.217  14.476  0.0206 -0.1632  0.0891
 4696W        W20880   2.559  13.403   4.001  0.3349 -0.3748  0.4245
 4697W        W20881   7.160   2.956   5.225  0.3841  0.0750 -0.1559
 4698W        W20882   5.575  11.205   1.827  0.0957  0.0099  0.0663
 4699W        W20883  12.015  10.757  14.245 -0.2723  0.0531  0.1652
 4700W        W20884   4.051   4.413  11.219 -0.1408 -0.0244 -0.0871
 4701W        W20885  13.413   0.302   0.917 -0.2132  0.1272 -0.4275
 4702W        W20886  13.642  13.697   5.060  0.0138  0.0360 -0.2023
 4703W        W20887   5.589   0.919   2.243 -0.1148  0.0651 -0.0333
 4704W        W20888  13.322   3.760  14.743  0.1754  0.1808 -0.1016
 4705W        W20889  16.244   4.510   0.911 -0.0876  0.0362 -0.1622
 4706W        W20890   6.360   5.148   3.587 -0.2466 -0.0354  0.0475
 4707W        W20891   8.451   6.987  13.503  0.1265 -0.0076  0.2659
 4708W        W20892  15.158   6.798  14.917 -0.0293  0.0607 -0.1043
 4709W        W20893  10.939  18.093   0.123 -0.0791  0.2067  0.0994
 4710W        W20894   6.442   8.234   1.612  0.1732  0.1467  0.2070
 4711W        W20895   7.296   3.092  12.193 -0.0097  0.2716 -0.0635
 4712W        W20896   4.417   1.439   1.238  0.0133 -0.1997  0.3311
 4713W        W20897   6.924  10.350   4.988 -0.0893  0.1133  0.0099
 4714W        W20898   8.134   4.037   5.401 -0.0038  0.1577 -0.1477
 4715W        W20899  13.307   9.135   2.556  0.4109  0.3074  0.2513
 4716W        W20900  11.221   6.880   0.214 -0.0072  0.0754 -0.1323
 4717W        W20901   9.024   6.007   2.521  0.0351  0.1433  0.0450
 4718W        W20902   2.796   6.280  10.634  0.0211  0.5601  0.2504
 4719W        W20903   9.016  10.900  15.348 -0.1424  0.3404  0.0540
 4720W        W20904  15.747   7.604  11.364  0.0762  0.1245  0.0928
 4721W        W20905  11.528  10.804   1.134 -0.0882 -0.1855  0.1500
 4722W        W20906   9.711  13.234   2.377  0.4885 -0.2042  0.0091
 4723W        W20907   3.846   1.943   2.820 -0.1819 -0.1378  0.1348
 4724W        W20908  14.290   2.881   0.268  0.0896 -0.0051  0.0524
 4725W        W20909  13.968  15.916  14.436 -0.3284  0.3590  0.0626
 4726W        W20910   6.462   0.407   4.875  0.4512  0.1162 -0.0781
 4727W        W20911  17.492  18.542   2.868  0.1218  0.3051 -0.0481
 4728W        W20912  16.392  11.881  10.716 -0.0088 -0.0031 -0.1030
 4729W        W20913   4.240   2.190   2.593 -0.1136  0.0942  0.0895
 4730W        W20914  14.741  10.467   0.006  0.0752 -0.0814 -0.0663
 4731W        W20915   3.096  10.019  13.593  0.2122 -0.1363 -0.0951
 4732W        W20916  18.848   8.589   5.930  0.0873  0.4235  0.1915
 4733W        W20917  15.806  15.958  14.738  0.0262 -0.2636  0.1040
 4734W        W20918  18.466   4.850   1.327 -0.0578 -0.0264  0.2511
 4735W        W20919  18.366  11.715  11.199  0.1812  0.1084 -0.0905
 4736W        W20920  11.605  15.453   5.253 -0.1346  0.2577 -0.0107
 4737W        W20921   3.782   2.919   4.361 -0.0540 -0.0077  0.1076
 4738W        W20922   9.192  12.388  13.730 -0.0567  0.4982 -0.1642
 4739W        W20923  12.551  13.612  12.481 -0.1960 -0.1256  0.1128
 4740W        W20924   6.080   8.790  15.013 -0.1500 -0.0993 -0.2084
 4741W        W20925  16.160  16.881  13.232  0.0836 -0.1711 -0.1309
 4742W        W20926   5.092   2.843  14.021 -0.0737  0.0759 -0.3022
 4743W        W20927  14.012  11.165  13.548  0.1101  0.0752  0.0013
 4744W        W20928   7.306  12.079  14.661  0.0695 -0.1569 -0.1156
 4745W        W20929  15.322  11.543  14.590 -0.0653  0.2569 -0.4052
 4746W        W20930   2.317   4.126   2.998 -0.1863 -0.1592 -0.0581
 4747W        W20931  14.428   8.178  10.793  0.3894 -0.0907  0.5290
 4748W        W20932   9.286  13.235  13.571 -0.0075 -0.2216 -0.0667
 4749W        W20933  12.258   3.127  15.485 -0.0733  0.0855  0.5528
 4750W        W20934  10.155   5.022  10.561 -0.1272 -0.0661  0.4318
 4751W        W20935   8.350   6.157   3.671 -0.0165 -0.1333 -0.2818
 4752W        W20936   8.140   5.535  11.978  0.3305  0.0798  0.2418
 4753W        W20937   2.796  17.334   2.112 -0.3270  0.0817  0.1068
 4754W        W20938  15.419   7.080  15.242  0.1662  0.2637  0.0273
 4755W        W20939  13.836  10.327   0.029  0.0455 -0.0941 -0.3490
 4756W        W20940  14.851  18.200   2.481  0.0480  0.1144 -0.1786
 4757W        W20941   9.872   7.462  10.693  0.1718 -0.1431 -0.2073
 4758W        W20942   9.839   5.347  11.450  0.0177  0.1875  0.0337
 4759W        W20943   7.592  10.985  15.447 -0.0249  0.1476  0.0298
 4760W        W20944   6.001   0.319   0.644 -0.0697  0.0874  0.3890
 4761W        W20945  18.237   6.982   2.696  0.4552  0.0761  0.0004
 4762W        W20946   2.463   7.986   3.057 -0.0900  0.2466 -0.2420
 4763W        W20947   7.352  18.313   4.851  0.0173  0.0058  0.1680
 4764W        W20948   4.583  15.437  14.904  0.2907 -0.0207  0.0115
 4765W        W20949  14.766  18.788   0.510  0.3637 -0.2032 -0.0885
 4766W        W20950  12.941   2.572  14.512  0.1264  0.1681 -0.1089
 4767W        W20951  12.661  12.560  10.602  0.1101 -0.2223 -0.1254
 4768W        W20952   6.413   7.284  14.933  0.0572  0.0170  0.1965
 4769W        W20953  10.243  14.940  10.768 -0.1440 -0.0056  0.2191
 4770W        W20954   2.680  11.475   2.954  0.2054  0.0939  0.1578
 4771W        W20955   2.432  15.648   1.927  0.0523  0.3581  0.2418
 4772W        W20956  16.119  10.210   0.535  0.1109  0.0799  0.1214
 4773W        W20957  13.998   1.807   4.193  0.1289 -0.2725 -0.1863
 4774W        W20958  17.945   2.560  13.516 -0.1268 -0.0099 -0.0458
 4775W        W20959  10.493   5.307   3.883 -0.1055  0.3932  0.0562
 4776W        W20960  16.978   8.150   3.438  0.0296 -0.1005 -0.0245
 4777W        W20961  12.145  11.782   0.364 -0.3096  0.1519 -0.2135
 4778W        W20962  12.100   2.333  12.628 -0.0833  0.0049  0.1832
 4779W        W20963   3.786   7.345  11.632 -0.0389  0.2764 -0.1213
 4780W        W20964   5.474  15.593   4.890  0.2176 -0.0469  0.1972
 4781W        W20965   2.053   0.102   4.020 -0.2328  0.3055  0.0789
 4782W        W20966  14.393   1.050   3.177 -0.0954 -0.0494  0.2910
 4783W        W20967  15.545  17.171  14.286 -0.1965 -0.2830  0.3938
 4784W        W20968   0.495   5.210   3.103 -0.2141 -0.2601  0.0831
 4785W        W20969  12.406  15.216  10.907 -0.0165 -0.0470  0.0134
 4786W        W20970   2.469  10.963  15.066 -0.0573  0.0362  0.0218
 4787W        W20971  11.670  13.154   3.159  0.1612  0.3197  0.0870
 4788W        W20972  14.071   5.635   4.174 -0.2184  0.0862  0.2002
 4789W        W20973  16.956  15.065  10.856 -0.3060  0.1859  0.0386
 4790W        W20974   1.529  13.662  14.430 -0.0230  0.0541  0.2854
 4791W        W20975   8.713   6.809   1.886  0.0561 -0.0140  0.0222
 4792W        W20976   6.894   9.827   3.152 -0.1099 -0.0557 -0.1031
 4793W        W20977   8.670  12.229  13.791  0.0062  0.3230  0.0495
 4794W        W20978  12.794   6.493   3.498  0.1600  0.0793  0.3201
 4795W        W20979  17.645  16.026   1.734  0.2453  0.0655  0.0404
 4796W        W20980  14.077   2.511   3.524  0.1342 -0.0423  0.1126
 4797W        W20981  15.350   2.062  14.332  0.0204  0.2920 -0.2438
 4798W        W20982   6.407  18.122   4.996 -0.1670  0.0165  0.1001
 4799W        W20983   4.796  12.045  12.017  0.0749 -0.0370  0.0123
 4800W        W20984  10.441   7.843  12.480  0.0483 -0.1071 -0.2620
 4801W        W20985  16.752   7.620   1.280  0.0073  0.0346 -0.1136
 4802W        W20986  12.028   6.010  12.480  0.1620  0.0450  0.0270
 4803W        W20987  13.175   5.319   0.815 -0.0374  0.1926  0.1736
 4804W        W20988  10.048   4.174  12.201 -0.2206  0.1403  0.0373
 4805W        W20989   8.021   1.182   5.707 -0.1887 -0.1308  0.1354
 4806W        W20990   4.907   9.629  13.257 -0.0790  0.0217 -0.2894
 4807W        W20991   8.763  15.540   3.866 -0.3403  0.0162 -0.1975
 4808W        W20992   9.548  11.624   4.851 -0.0749  0.0176  0.4451
 4809W        W20993   6.539  10.995  15.404 -0.3301 -0.0323  0.2298
 4810W        W20994   6.256   2.172   5.729 -0.0329  0.4129 -0.1218
 4811W        W20995   3.844   4.876   0.276 -0.2808 -0.0176 -0.2147
 4812W        W20996  17.562  18.100  12.328  0.0323 -0.4002 -0.0517
 4813W        W20997   8.352   9.540  10.775 -0.0288 -0.1179  0.0503
 4814W        W20998   8.448  14.633   2.151  0.0122  0.1915  0.1404
 4815W        W20999   9.177   9.120   0.355  0.3761  0.1332  0.1174
 4816W        W21000  16.365   2.840  14.935  0.1490 -0.4905 -0.0627
 4817W        W21001  16.454  18.729  10.849 -0.1180  0.1235  0.1219
 4818W        W21002   6.578  13.382   9.602  0.1100 -0.1974 -0.1802
 4819W        W21003   9.325  12.944  15.537  0.2842  0.0404  0.0767
 4820W        W21004  12.671   9.455   4.332  0.1800  0.0161  0.2157
 4821W        W21005   2.551  18.246  11.806 -0.1391  0.1937  0.0379
 4822W        W21006   3.984   0.761  13.429  0.1692  0.0179 -0.1848
 4823W        W21007   3.500   0.543   1.601  0.1780  0.2312 -0.0623
 4824W        W21008   1.778   0.417  12.792  0.3247 -0.0686 -0.1225
 4825W        W21009   8.558  16.311   3.238 -0.0430 -0.1742  0.1749
 4826W        W21010   3.682  10.772  12.961 -0.3835 -0.1381 -0.1485
 4827W        W21011   2.499   7.604  11.993  0.1086  0.3321  0.3390
 4828W        W21012  12.522  18.725  15.479 -0.1555  0.0195 -0.3540
 4829W        W21013  13.113  11.007   2.749 -0.1985  0.0735  0.0261
 4830W        W21014   9.221   5.139  12.584  0.2289  0.0916  0.1358
 4831W        W21015   6.556  15.768   4.791  0.1378  0.1459 -0.1823
 4832W        W21016  14.167   0.285  15.267 -0.2328  0.1964  0.2201
 4833W        W21017  17.051   8.117   0.817 -0.1062 -0.1411  0.0744
 4834W        W21018   1.630   6.244   2.902  0.0752 -0.0832  0.2852
 4835W        W21019  15.889   8.623   5.498 -0.1830 -0.0218  0.0309
 4836W        W21020  16.098   2.399   3.863 -0.0851  0.2463 -0.3201
 4837W        W21021   0.557  15.415   4.596 -0.0777 -0.0771  0.0366
 4838W        W21022   1.960   4.023   5.264  0.2188  0.0837  0.0475
 4839W        W21023   7.779   2.417  13.776 -0.0708  0.3374  0.1278
 4840W        W21024   2.911  10.679   3.526  0.1486 -0.2615 -0.1992
 4841W        W21025   2.824  11.500   3.983  0.0745  0.1569  0.1334
 4842W        W21026   4.758  17.238   3.499  0.1926 -0.3594 -0.1507
 4843W        W21027   1.746  12.791  14.968  0.0519 -0.1961 -0.0485
 4844W        W21028   3.176   6.814   2.358  0.0830  0.2224 -0.2292
 4845W        W21029   8.782   5.040   1.855 -0.4942  0.0047  0.4431
 4846W        W21030  12.861  10.338   1.044 -0.1059 -0.1694  0.4960
 4847W        W21031  15.916   9.549  11.719 -0.0911 -0.1614 -0.0204
 4848W        W21032  11.588  13.392   3.962  0.0088 -0.1759  0.1227
 4849W        W21033   4.687  15.983  12.188  0.4531 -0.0654  0.1580
 4850W        W21034  12.629  14.435  14.333  0.0554  0.1508 -0.2359
 4851W        W21035   5.644  10.910   0.999 -0.0091  0.1711 -0.2113
 4852W        W21036  11.832   9.136   5.271  0.2026 -0.0638 -0.2632
 4853W        W21037   8.223   1.724   1.957  0.1878  0.1464 -0.0793
 4854W        W21038   3.771   5.373   1.350  0.3078  0.4657 -0.2774
 4855W        W21039  12.696   6.836   1.288  0.3196 -0.1860 -0.1976
 4856W        W21040   6.033  17.890   4.739  0.0507  0.5318  0.3609
 4857W        W21041  14.437  18.109  13.526 -0.0862  0.0591  0.2828
 4858W        W21042   4.696  18.442   1.742 -0.0150  0.2019  0.0244
 4859W        W21043   2.689   9.303   0.412 -0.1450  0.0036 -0.1421
 4860W        W21044   3.311   4.591  11.305 -0.2068 -0.0610 -0.0396
 4861W        W21045   2.695   1.782   2.982  0.3176 -0.2271 -0.0675
 4862W        W21046   7.481   9.587   3.878 -0.3736 -0.2141 -0.0834
 4863W        W21047  11.008   0.651  15.108  0.0244 -0.1584 -0.0268
 4864W        W21048  16.201   8.868   2.515 -0.0745  0.1034 -0.2547
 4865W        W21049  13.657   3.896  12.430  0.1403  0.2359  0.0015
 4866W        W21050   5.791  12.956   3.554  0.2552 -0.0550  0.4283
 4867W        W21051   5.682   5.258  14.836 -0.1832  0.1159  0.1952
 4868W        W21052  10.077   5.634   1.233  0.0977  0.2168  0.2147
 4869W        W21053  17.489   0.217   1.260  0.0310  0.0865 -0.1569
 4870W        W21054  12.368  10.742   2.907  0.1684 -0.2089  0.0376
 4871W        W21055  10.106   3.886  11.481  0.2688  0.1163 -0.0355
 4872W        W21056   9.180  18.047  11.034  0.2321  0.0891 -0.1177
 4873W        W21057  14.648  18.726  13.798  0.1084 -0.1167  0.1353
 4874W        W21058   4.731   6.453  10.571  0.0365  0.2200 -0.1607
 4875W        W21059   6.740   9.260   2.415 -0.1412  0.0817 -0.2161
 4876W        W21060  11.614   3.027   2.507  0.1284 -0.0992  0.2874
 4877W        W21061   5.529   5.716   4.458  0.0590  0.0204  0.0978
 4878W        W21062   8.722   2.544   1.993 -0.3651 -0.0136 -0.1016
 4879W        W21063  14.174  17.366  12.785  0.2749 -0.0788  0.0288
 4880W        W21064   3.632   3.363   4.593 -0.2008 -0.0145  0.0835
 4881W        W21065   2.747   5.308  14.803 -0.0476 -0.1059  0.1636
 4882W        W21066  11.115  17.883   0.585 -0.0984  0.1313 -0.1357
 4883W        W21067   9.191   5.924   3.690 -0.1091 -0.1601  0.3262
 4884W        W21068   1.346  11.563  10.626  0.3858  0.2833  0.0781
 4885W        W21069   5.355   6.812  15.044 -0.1081 -0.2521 -0.0451
 4886W        W21070  17.123   1.274  10.873  0.1370  0.0954 -0.2101
 4887W        W21071   0.310  11.839  11.716  0.0004  0.0575  0.0310
 4888W        W21072  15.402   6.439  13.012  0.4458 -0.0408  0.1622
 4889W        W21073   1.453   5.758  15.494 -0.4856 -0.1026  0.0178
 4890W        W21074  17.528   4.974  12.229  0.2777  0.0236  0.0440
 4891W        W21075   5.681   0.550  12.087 -0.2478  0.2041 -0.3155
 4892W        W21076  10.562   1.654   2.371  0.1246  0.0742 -0.3126
 4893W        W21077  17.230  12.076   4.116  0.0291  0.2681  0.0871
 4894W        W21078  17.679  13.978   4.333  0.0000 -0.1002 -0.1678
 4895W        W21079   9.635  18.023  15.231 -0.2635  0.3063  0.2557
 4896W        W21080   8.068  11.868   2.300 -0.1968 -0.1491 -0.0242
 4897W        W21081  18.276   5.321   3.238  0.3828  0.0766  0.1960
 4898W        W21082  15.323  17.724   5.284 -0.0382 -0.2479 -0.4618
 4899W        W21083   6.506  16.703  15.447 -0.1057  0.3259  0.0210
 4900W        W21084  13.930  12.474   3.482  0.0567  0.1255  0.1073
 4901W        W21085  11.612   3.032  12.007 -0.0825  0.0468  0.1790
 4902W        W21086   2.413   6.686  15.382  0.1226 -0.0814  0.0357
 4903W        W21087  10.978   6.909   3.487  0.1697  0.0635  0.1160
 4904W        W21088   3.072  14.810  12.896  0.0280 -0.1044  0.0477
 4905W        W21089  16.226   5.738  10.603  0.1694  0.1007  0.0335
 4906W        W21090   8.772   2.042   3.527  0.0187  0.2250 -0.2573
 4907W        W21091  12.118   1.786   4.664  0.1499  0.1756  0.0487
 4908W        W21092   3.265   2.963  12.068 -0.2052  0.1055 -0.2347
 4909W        W21093   7.206   1.546  14.806  0.0488 -0.0758 -0.2269
 4910W        W21094  15.842  13.805  11.699  0.1683 -0.2477  0.0375
 4911W        W21095  11.740  18.042   4.341 -0.1614  0.1188 -0.3261
 4912W        W21096  16.950   1.753  13.750 -0.0362 -0.5244 -0.1572
 4913W        W21097   8.017   7.192  13.571 -0.3376  0.1903  0.0568
 4914W        W21098  12.042   7.080  11.874 -0.0151  0.1124  0.0218
 4915W        W21099   3.680   5.356   0.194  0.2283  0.3196  0.0983
 4916W        W21100   6.872  18.823   4.705 -0.0687 -0.0306  0.1080
 4917W        W21101   3.243   4.098  13.184 -0.1254 -0.1592  0.0295
 4918W        W21102   2.171   1.058   1.219 -0.1744 -0.4161 -0.3342
 4919W        W21103  13.179  15.682   0.159  0.1152  0.0076  0.1541
 4920W        W21104  14.887   7.575   3.282  0.1325 -0.3041  0.0278
 4921W        W21105  15.829   4.853   4.379 -0.2202  0.0832  0.1059
 4922W        W21106   3.801  11.063  11.577 -0.1520  0.1302 -0.1219
 4923W        W21107   6.714   5.801   2.007 -0.0563  0.1473  0.1734
 4924W        W21108   0.480  16.062  11.000  0.0334 -0.0982 -0.0622
 4925W        W21109   0.090  18.311   4.911 -0.1715  0.0247 -0.1892
 4926W        W21110  15.827   7.503  15.371 -0.2285 -0.2065  0.1160
 4927W        W21111  18.670   0.964   3.497 -0.3215 -0.1807  0.0688
 4928W        W21112   3.303   3.775   4.524  0.0073 -0.1219 -0.0957
 4929W        W21113  15.964  18.725  14.962 -0.0085 -0.0500  0.2567
 4930W        W21114   7.593   4.931   0.447 -0.0318 -0.2803  0.0740
 4931W        W21115   4.252  15.147   9.977  0.1350  0.1960  0.1388
 4932W        W21116   1.500  17.200  12.624  0.2772  0.1577 -0.2108
 4933W        W21117   5.122   8.217  11.438  0.0628 -0.0193  0.1647
 4934W        W21118  13.971  10.914   1.827 -0.2098 -0.1987 -0.0042
 4935W        W21119  14.881  18.286   1.966 -0.0252 -0.1579 -0.2157
 4936W        W21120   3.679   2.759   3.280 -0.0177 -0.0399 -0.0784
 4937W        W21121   1.986   0.926   4.475 -0.1252  0.0299  0.2730
 4938W        W21122  15.158   7.340   0.038 -0.0394  0.3521 -0.0955
 4939W        W21123   5.216   1.927  13.010 -0.1247  0.0317 -0.1924
 4940W        W21124  11.613   0.542   1.673  0.0145  0.1291 -0.1822
 4941W        W21125  12.893  11.566  13.255 -0.0475 -0.0482  0.0319
 4942W        W21126  13.260   0.113  14.798 -0.1550  0.1568  0.1023
 4943W        W21127   8.812  18.286  11.956  0.0539  0.0356  0.2040
 4944W        W21128  13.112  18.583   5.430 -0.0170  0.3994 -0.2505
 4945W        W21129   6.682   1.764  12.503  0.0047 -0.0264  0.2273
 4946W        W21130  12.574   0.768  10.801 -0.0939 -0.0820  0.3179
 4947W        W21131   3.297  15.102   1.333  0.0626 -0.1250  0.1764
 4948W        W21132  17.030   9.739   5.371 -0.0401 -0.0177 -0.2326
 4949W        W21133  10.121  16.585  12.031  0.1885 -0.3247  0.2097
 4950W        W21134   8.776   7.282  12.607 -0.2903  0.2280  0.1396
 4951W        W21135  12.522  15.121   3.480  0.3506  0.0277 -0.0634
 4952W        W21136   0.726   2.168   4.912  0.2508  0.0254 -0.3203
 4953W        W21137  15.319   7.742   3.716 -0.2382 -0.0897 -0.0844
 4954W        W21138   0.479  14.847  13.692 -0.1949 -0.1912 -0.0874
 4955W        W21139  14.529   4.272  13.892 -0.1228 -0.2200  0.0983
 4956W        W21140   2.533  18.767   3.652  0.0849 -0.0615  0.1098
 4957W        W21141   1.919  11.792   4.518  0.1213  0.0316  0.2376
 4958W        W21142   8.761  13.053  14.600  0.0845  0.1447 -0.0000
 4959W        W21143   7.669   0.319   0.055  0.0083  0.0151 -0.1322
 4960W        W21144  18.615   7.788   1.348 -0.1357  0.0170 -0.0940
 4961W        W21145   8.904   6.579   0.795  0.1029  0.2544 -0.0441
 4962W        W21146  13.028  12.410   3.404  0.1987 -0.1138 -0.0924
 4963W        W21147   3.320  14.557  11.551 -0.2540  0.0272  0.0535
 4964W        W21148   5.342   4.938  13.116 -0.0789  0.2582  0.0921
 4965W        W21149  18.593   0.965   1.168 -0.0622  0.1269  0.0910
 4966W        W21150  13.661  12.184  11.746  0.2965 -0.0809 -0.2948
 4967W        W21151   0.967   0.128  13.162  0.0779 -0.1509  0.2362
 4968W        W21152  13.775   2.059   3.814 -0.0829  0.1656  0.2012
 4969W        W21153   9.607   8.062   1.006  0.1079  0.3675 -0.0488
 4970W        W21154  16.155  10.752  12.671 -0.0163  0.1945  0.2597
 4971W        W21155   6.274   2.296  10.794 -0.1907 -0.0399 -0.0152
 4972W        W21156  13.947  12.812   1.306  0.3109 -0.2150  0.1600
 4973W        W21157   6.020   4.503   0.815  0.1213  0.4080 -0.1646
 4974W        W21158  14.429  11.623  11.893 -0.0228  0.0417  0.0072
 4975W        W21159  15.203   3.545   2.653 -0.3448  0.2350 -0.2748
 4976W        W21160  11.297  18.843   2.193  0.0577  0.1559 -0.2170
 4977W        W21161  16.805   9.344   4.376  0.2403 -0.0931  0.1701
 4978W        W21162   7.304   5.929   1.169  0.2003 -0.1277  0.6594
 4979W        W21163  17.792   7.244   2.894  0.0661  0.0144  0.0042
 4980W        W21164  13.357   8.931   5.670  0.0422  0.1911  0.3703
 4981W        W21165   3.329   3.802   1.572 -0.1029  0.0095  0.1392
 4982W        W21166  12.865  16.797  11.495  0.0421  0.1917 -0.1080
 4983W        W21167   1.866   6.175  12.722  0.1002 -0.2072  0.2374
 4984W        W21168   1.339   6.038  12.325 -0.0533 -0.1871 -0.0684
 4985W        W21169   9.105  12.611  12.051  0.0546 -0.4011 -0.0599
 4986W        W21170  12.850   9.782  10.007  0.2130  0.1517 -0.2796
 4987W        W21171  17.294   2.093   0.550  0.2429 -0.0676  0.0720
 4988W        W21172   7.524   8.748   2.474  0.0512 -0.2648  0.0571
 4989W        W21173   5.211   3.716   4.573  0.0417 -0.0787 -0.1292
 4990W        W21174   7.315   1.467  10.559 -0.3264 -0.0599 -0.3331
 4991W        W21175   5.348  18.401   3.338 -0.2201  0.0409 -0.4515
 4992W        W21176  15.523  14.981  13.135  0.3577 -0.0869 -0.1070
 4993W        W21177  11.422  11.940  14.629  0.1045  0.3052 -0.2324
 4994W        W21178  14.369   9.409   0.075  0.2990  0.1378 -0.3079
 4995W        W21179   0.114   4.141  14.027 -0.0091  0.0153  0.0975
 4996W        W21180  18.827  18.770  11.207 -0.3663  0.0838 -0.1735
 4997W        W21181  14.119  12.130  12.754  0.1455  0.1231 -0.2206
 4998W        W21182   6.336   8.996   2.552 -0.1822  0.0572 -0.1401
 4999W        W21183   6.477  10.786   0.703 -0.3086 -0.0300  0.0432
 5000W        W21184  18.336  10.211  14.626 -0.4277  0.0532 -0.0077
 5001W        W21185  14.460  15.124  12.528 -0.5058 -0.0454  0.3103
 5002W        W21186   0.865  13.068  15.242 -0.0495 -0.1325  0.1306
 5003W        W21187   6.599  13.105  14.096 -0.1834  0.0820  0.0311
 5004W        W21188  16.994   2.766   3.980 -0.1950  0.2166  0.1432
 5005W        W21189   7.842  15.016   3.579 -0.1256 -0.0538 -0.0553
 5006W        W21190   6.657  18.234   0.893  0.0888 -0.0594 -0.1969
 5007W        W21191  13.868  12.476  12.092  0.2379  0.3968  0.0053
 5008W        W21192   7.747  13.545  14.775 -0.2706  0.1834  0.2153
 5009W        W21193  14.390  14.431  11.197  0.2230  0.2607  0.1985
 5010W        W21194   8.835  10.495   0.398 -0.1051  0.0490 -0.0710
 5011W        W21195   5.175   8.880   1.485  0.2204 -0.1972 -0.0199
 5012W        W21196   2.497   4.569  11.861  0.0581  0.0439  0.1470
 5013W        W21197  10.600  12.340   0.234 -0.1010  0.0421 -0.1129
 5014W        W21198  11.927  13.759   3.797  0.1018 -0.1094 -0.3097
 5015W        W21199   5.887   9.921  11.478  0.0291 -0.0769 -0.0060
 5016W        W21200  17.726   8.840  12.427  0.1435  0.1638  0.0368
 5017W        W21201  18.812  16.144  11.136 -0.1753  0.2219  0.0779
 5018W        W21202  13.463  14.729  14.669 -0.0700  0.1464 -0.1387
 5019W        W21203   5.001  16.504   4.205  0.0094 -0.2883 -0.1056
 5020W        W21204  17.521  16.176  14.642 -0.0201 -0.3520 -0.0062
 5021W        W21205   7.666   6.633   0.764 -0.1475  0.0444  0.2812
 5022W        W21206  12.335  16.810   3.783  0.0567 -0.0148  0.1971
 5023W        W21207  13.010  12.954   1.265 -0.0583  0.2012  0.4115
 5024W        W21208  16.005   1.690  14.917  0.1228  0.0824  0.0943
 5025W        W21209  17.395   5.727   2.925  0.3654  0.2529 -0.0543
 5026W        W21210  11.770   3.327  15.431  0.0275  0.0182 -0.1239
 5027W        W21211  18.046  14.727  13.643 -0.1719 -0.0711 -0.0797
 5028W        W21212  15.106  17.300  13.658  0.0935  0.1813  0.3457
 5029W        W21213   3.194   2.977   3.408 -0.0469 -0.1364  0.0969
 5030W        W21214   9.646  11.373  15.236  0.1401 -0.1776  0.1327
 5031W        W21215   2.139  12.896   2.195  0.0136 -0.1857  0.0614
 5032W        W21216  13.245  12.207   4.286 -0.0085 -0.1371 -0.3021
 5033W        W21217  14.980   2.877  13.146  0.1678 -0.1685 -0.3698
 5034W        W21218  17.461   6.664  14.713  0.1304  0.0429 -0.3477
 5035W        W21219  12.539  11.068   0.059  0.1847  0.0430 -0.0849
 5036W        W21220   6.230   9.588  11.414  0.0011 -0.0956  0.0957
 5037W        W21221   0.373   1.453  11.183  0.3486  0.1638  0.2649
 5038W        W21222   7.030  12.381   3.311 -0.1769 -0.0301 -0.0598
 5039W        W21223  14.114   4.504   2.503 -0.1899  0.1539 -0.4371
 5040W        W21224  17.821  11.604  15.153  0.2183 -0.0675 -0.2168
 5041W        W21225  15.562   8.702   1.699 -0.1292  0.2793  0.1078
 5042W        W21226   9.248   5.252  14.215 -0.1261 -0.0939  0.0964
 5043W        W21227   7.212   1.157   3.806  0.1279  0.0995  0.0884
 5044W        W21228  17.933  16.554  13.771 -0.1742 -0.1554  0.2637
 5045W        W21229   9.604  13.059  12.998 -0.1529  0.0127 -0.2654
 5046W        W21230   1.986   7.357  14.113 -0.0113 -0.0689 -0.1841
 5047W        W21231  16.730  14.082   5.095  0.0266  0.0244 -0.0715
 5048W        W21232   0.420  18.367  11.060  0.2357 -0.0040 -0.2500
 5049W        W21233   1.037  10.185   4.789 -0.0581  0.0353  0.2691
 5050W        W21234   1.403   3.090   3.883 -0.4358  0.0838  0.0080
 5051W        W21235  15.808  14.191   4.973 -0.0089 -0.0869  0.2513
 5052W        W21236   0.878   0.568  14.755 -0.2492  0.1434 -0.0196
 5053W        W21237  15.490   1.537   2.847 -0.4504  0.1396 -0.0817
 5054W        W21238  18.033   5.515   1.590 -0.0456 -0.0388  0.4033
 5055W        W21239  13.857  14.589  12.844 -0.1225 -0.0597  0.0223
 5056W        W21240   0.060   1.955   5.690 -0.0350 -0.0528 -0.0955
 5057W        W21241   3.411  10.098   9.316 -0.1106  0.2970 -0.3269
 5058W        W21242  16.882   8.439   1.144 -0.0911  0.2168 -0.0776
 5059W        W21243   1.740   1.116   3.691 -0.0772 -0.1660 -0.0038
 5060W        W21244  14.163  14.822  13.910 -0.1517 -0.1506 -0.2344
 5061W        W21245   0.166   1.859  13.028 -0.0488  0.0574  0.0621
 5062W        W21246   0.855   8.679  10.914  0.0504 -0.2486 -0.2411
 5063W        W21247   1.716  16.308   3.842 -0.0054 -0.0900 -0.0658
 5064W        W21248  12.234   1.171  12.767 -0.1221 -0.0460 -0.3931
 5065W        W21249   6.010   1.545   2.895  0.0480 -0.0087 -0.3779
 5066W        W21250   1.071  12.765  12.516 -0.1113  0.3588  0.1021
 5067W        W21251  18.015   0.214   1.303  0.3647 -0.3378  0.2563
 5068W        W21252  15.224   2.940  10.749  0.1215 -0.2499  0.4036
 5069W        W21253  14.651   5.555  14.383 -0.0145  0.0739  0.0025
 5070W        W21254   9.864   9.217   3.755  0.2729 -0.1068  0.2009
 5071W        W21255   8.797   1.800  14.860  0.0059 -0.2131 -0.2418
 5072W        W21256   7.712   0.552  14.684 -0.3102  0.0778 -0.3809
 5073W        W21257  11.828  13.575   4.790 -0.2680 -0.0322 -0.1680
 5074W        W21258  10.391  12.037   0.982  0.1401  0.1770 -0.4891
 5075W        W21259  13.244   1.849   2.336  0.1594 -0.0890 -0.3546
 5076W        W21260   1.251   7.754   1.070 -0.0409 -0.1133 -0.0394
 5077W        W21261  12.623  11.453  14.593 -0.1723 -0.0166  0.0107
 5078W        W21262   0.675  12.030   1.898  0.2609  0.0509 -0.0252
 5079W        W21263   6.262  13.197  10.915  0.2359  0.2032 -0.1609
 5080W        W21264   2.197  18.095   3.253  0.1011 -0.2185  0.2799
 5081W        W21265   7.861  18.326   4.884 -0.1762  0.3028  0.1032
 5082W        W21266   6.962  18.389  10.219 -0.3807 -0.3283 -0.2385
 5083W        W21267  10.995   7.570  10.954 -0.0691  0.1330 -0.2015
 5084W        W21268   9.650   0.947   0.414 -0.1933  0.0900 -0.0122
 5085W        W21269   1.304  10.595  12.364 -0.2318  0.0853  0.0925
 5086W        W21270  15.273  18.067   2.264 -0.0581 -0.1364  0.0187
 5087W        W21271   1.777  17.875   3.510 -0.0817  0.0687 -0.0873
 5088W        W21272   7.377  15.231   2.857  0.3226  0.1966  0.0270
 5089W        W21273   5.952   8.653   0.500 -0.0128 -0.2465 -0.0492
 5090W        W21274  13.983   6.445  14.436 -0.1744  0.1912  0.1538
 5091W        W21275   9.330   1.862   1.954  0.2933  0.0715 -0.1550
 5092W        W21276  16.760   4.851  10.476  0.0477 -0.0784 -0.0399
 5093W        W21277   3.201  14.647   3.620 -0.0446 -0.0657 -0.1119
 5094W        W21278   0.444  11.805  15.255 -0.0481 -0.0000  0.3643
 5095W        W21279   3.324  11.760  14.281 -0.1589  0.1704  0.2459
 5096W        W21280  12.847   6.029   3.747 -0.0871  0.0212  0.4109
 5097W        W21281   5.233  13.808  14.810 -0.1027  0.3313 -0.1113
 5098W        W21282  12.034  10.395  15.061  0.0716  0.2055  0.0532
 5099W        W21283  11.277   0.448   3.149  0.2277  0.0177  0.1894
 5100W        W21284  13.733  13.023   2.276 -0.1682  0.0232 -0.1498
 5101W        W21285  16.117   3.550   1.911  0.1612  0.0506  0.1112
 5102W        W21286   3.136   8.395   2.435  0.1278 -0.2555 -0.2431
 5103W        W21287  12.444  18.285   3.737  0.0614 -0.0352 -0.1022
 5104W        W21288   0.513   5.351   2.056  0.0644  0.0611  0.1226
 5105W        W21289   6.992   3.117  10.880  0.1459 -0.0497  0.1646
 5106W        W21290   6.561   2.677  11.002 -0.0207 -0.1797 -0.1928
 5107W        W21291   3.007  17.835   4.995 -0.2550 -0.1525  0.0211
 5108W        W21292   5.484  13.492  15.158 -0.2962  0.0380  0.2549
 5109W        W21293   7.900   9.733   2.010  0.0542 -0.0794  0.1222
 5110W        W21294   4.672   6.555   5.512  0.3444 -0.0244 -0.1033
 5111W        W21295  17.810   3.385  13.047  0.4265 -0.1686 -0.2237
 5112W        W21296  13.940   9.904  13.563 -0.3781 -0.3963  0.1357
 5113W        W21297  13.832   0.713  13.348 -0.0672 -0.2089 -0.0782
 5114W        W21298  17.154   0.897   1.853  0.0281 -0.0184 -0.0823
 5115W        W21299   5.640   5.936   3.178 -0.2012 -0.2951  0.0926
 5116W        W21300  12.377  12.643   1.816  0.0200  0.2587 -0.2464
 5117W        W21301  18.121  14.273  12.187  0.0172 -0.2360 -0.2341
 5118W        W21302  11.209  13.528  14.085  0.1216 -0.1086 -0.3106
 5119W        W21303  15.450   8.198   2.892 -0.1299  0.0576  0.1105
 5120W        W21304   2.263  10.454  14.286 -0.0252  0.0274 -0.1620
 5121W        W21305   0.217   5.801   0.720 -0.0896 -0.2736  0.1269
 5122W        W21306  13.531   9.636  12.843  0.2674 -0.1175 -0.0237
 5123W        W21307  18.105  18.332   1.791  0.0621  0.1458  0.3586
 5124W        W21308  17.331  18.501  14.087 -0.0567  0.1336  0.0614
 5125W        W21309   6.413  13.616  14.159 -0.0186 -0.0163  0.3104
 5126W        W21310   3.654   7.274   0.073 -0.0136 -0.0820  0.0305
 5127W        W21311   8.586   0.474  15.194 -0.1114 -0.1929 -0.0923
 5128W        W21312   3.200   7.869  14.415 -0.1300 -0.2912 -0.0673
 5129W        W21313  12.984  11.111   2.215  0.2474 -0.1661  0.0759
 5130W        W21314   7.039  14.742  14.169 -0.0709  0.2215  0.0400
 5131W        W21315  15.485   9.109   4.246  0.1440  0.1148  0.0174
 5132W        W21316  10.701  18.291   0.663  0.0855  0.1924  0.1056
 5133W        W21317  14.772  15.873  11.177 -0.1067  0.1000 -0.1151
 5134W        W21318   0.554   3.060  11.915 -0.2084  0.1312  0.1447
 5135W        W21319  12.418   8.930   3.571  0.0709  0.1077 -0.2542
 5136W        W21320  11.929  14.297   5.126 -0.3384 -0.0486  0.4419
 5137W        W21321  11.910  16.577   2.590 -0.0125  0.0263 -0.1257
 5138W        W21322  15.253  11.344   9.991  0.3858 -0.0748  0.0189
 5139W        W21323   5.945   8.198  13.012  0.0199  0.0076 -0.1304
 5140W        W21324   0.356  15.236  11.500  0.0156  0.1599  0.0706
 5141W        W21325  10.594   4.239  14.134 -0.0301  0.3181  0.0017
 5142W        W21326   2.749  10.515  14.416  0.0968  0.1934 -0.0983
 5143W        W21327   3.164  18.522  13.889 -0.0822  0.0294 -0.1113
 5144W        W21328  10.622  10.851  12.289  0.1329  0.1466  0.1170
 5145W        W21329  15.469  17.250  13.329 -0.0209 -0.1748  0.1860
 5146W        W21330   4.937  15.927   4.256  0.0524 -0.2264  0.0813
 5147W        W21331   6.989  18.557  13.827  0.1380  0.0978 -0.2011
 5148W        W21332   8.704   3.488   0.333  0.3244  0.1385  0.3703
 5149W        W21333   3.936  13.647  13.594 -0.1069 -0.0903  0.0425
 5150W        W21334  13.516  10.652   0.234  0.1061  0.1735 -0.0669
 5151W        W21335   6.548   4.476   4.854  0.0050  0.3102  0.2998
 5152W        W21336  12.061  13.811  12.383  0.2772  0.0290 -0.1028
 5153W        W21337  16.867   5.435  12.397 -0.1037 -0.0394  0.1452
 5154W        W21338   1.057   1.169  10.961 -0.0333  0.1709  0.1325
 5155W        W21339   5.222   6.714  12.436 -0.0924 -0.1699 -0.1462
 5156W        W21340  11.522  11.379   2.092 -0.1672 -0.3793 -0.3096
 5157W        W21341  18.478  16.166   3.372 -0.2435 -0.0231  0.0070
 5158W        W21342   9.374  15.466  12.546 -0.3336  0.0736  0.2236
 5159W        W21343  13.130  13.722  14.491  0.1052 -0.2426 -0.4491
 5160W        W21344   6.008   1.300   0.991  0.3308 -0.2127 -0.2798
 5161W        W21345   4.337  14.204   2.711 -0.1725  0.3110 -0.1465
 5162W        W21346  10.021   0.052   4.072 -0.0162 -0.1322 -0.0016
 5163W        W21347   6.848  12.545  14.353  0.2928  0.3599 -0.1887
 5164W        W21348  12.930   5.611   6.073  0.1048  0.6061 -0.0382
 5165W        W21349   6.152   1.697   5.949  0.1820  0.4283  0.0291
 5166W        W21350  13.628   8.157  14.855 -0.4783 -0.1402  0.0160
 5167W        W21351   7.393   1.175  13.149 -0.1202  0.1637  0.3013
 5168W        W21352  11.466  15.864   5.568 -0.0904 -0.0296  0.0147
 5169W        W21353  16.587   6.464  12.266 -0.1599 -0.2186 -0.3019
 5170W        W21354  16.403  12.928   3.508  0.0234 -0.0626 -0.0325
 5171W        W21355   4.032   2.989  12.429  0.2938  0.0887 -0.2101
 5172W        W21356  11.901   1.787   4.251 -0.1026 -0.0562 -0.0064
 5173W        W21357  11.662   7.277   2.872 -0.1864  0.3190  0.1466
 5174W        W21358  18.419   8.624   0.100  0.0593  0.1406 -0.1918
 5175W        W21359  17.966   3.658  13.481 -0.4118  0.0148  0.0135
 5176W        W21360   9.493   6.572   0.912  0.2360 -0.3222  0.2224
 5177W        W21361   9.225   6.561  14.675 -0.3759  0.0380 -0.2283
 5178W        W21362   2.571  12.961  10.415  0.0060 -0.0368  0.0031
 5179W        W21363   6.287  13.673  11.142 -0.1314 -0.0787 -0.1216
 5180W        W21364   7.380   9.209  14.744 -0.0356 -0.0566 -0.5838
 5181W        W21365  18.259   2.677  11.714  0.0951  0.0986 -0.1426
 5182W        W21366   6.905  18.822   3.963  0.0780 -0.1723 -0.1517
 5183W        W21367  14.041  16.767   3.886 -0.1019  0.2415  0.0433
 5184W        W21368   5.676   6.986   2.655  0.2225  0.1105 -0.0802
 5185W        W21369  11.174   0.147   0.842 -0.2186  0.0099  0.1030
 5186W        W21370   5.422  11.243   1.339 -0.1807 -0.0626 -0.1369
 5187W        W21371   6.152   2.114  13.492  0.2337 -0.4003  0.0686
 5188W        W21372   4.609   5.713   3.017 -0.0060 -0.3147  0.0520
 5189W        W21373   8.111  14.734   1.268 -0.1636 -0.3114 -0.4857
 5190W        W21374   6.912  15.149   3.188  0.2613  0.2650 -0.0330
 5191W        W21375   5.780   5.552   2.319  0.2482  0.0641 -0.2546
 5192W        W21376   0.812  14.551  12.258 -0.1613  0.0585 -0.0356
 5193W        W21377  12.092   6.432   2.955 -0.1147 -0.2376 -0.2619
 5194W        W21378  18.374  15.597  15.026  0.2196  0.3629 -0.2557
 5195W        W21379  10.387  12.549   3.546  0.1834 -0.0632  0.4344
 5196W        W21380   2.829   0.556  14.451 -0.1234  0.0790 -0.3225
 5197W        W21381   6.037   8.808   2.173  0.0804 -0.0407  0.0403
 5198W        W21382   9.294   0.413   3.166  0.2552 -0.1574 -0.2636
 5199W        W21383  17.139  16.016   3.265  0.0104 -0.1219  0.1157
 5200W        W21384   8.914  13.952  15.448  0.2686 -0.3260 -0.1816
 5201W        W21385   7.500  11.081  13.550  0.0175  0.2467 -0.0594
 5202W        W21386  13.397  10.141   0.250  0.0667  0.0555 -0.1168
 5203W        W21387   9.830   9.184  13.571  0.2508  0.1315  0.0302
 5204W        W21388  13.210   6.781  13.963 -0.2489 -0.0338 -0.0615
 5205W        W21389  15.904  16.255   4.279  0.0548 -0.2147  0.1830
 5206W        W21390   1.208  17.908   2.355  0.1085  0.0245  0.2468
 5207W        W21391  10.672   1.398   1.803  0.0623 -0.4333  0.1165
 5208W        W21392   7.490  17.235  13.839 -0.4191 -0.1926 -0.2295
 5209W        W21393   1.236   9.397   2.115 -0.3069 -0.0720 -0.0483
 5210W        W21394  11.853   2.095   5.076 -0.3969 -0.2902 -0.0707
 5211W        W21395  14.551   8.534  13.271 -0.3365 -0.0258  0.2088
 5212W        W21396   9.176  17.838  13.658  0.2913  0.1094 -0.0394
 5213W        W21397  11.441  13.705   1.993  0.0133 -0.1819 -0.2257
 5214W        W21398   1.508   0.760   2.892 -0.0315  0.1446  0.1744
 5215W        W21399   2.848  10.875   1.385 -0.0839 -0.0886 -0.0701
 5216W        W21400   6.495   3.592  15.137 -0.3012  0.0336 -0.1477
 5217W        W21401   0.469   3.376  12.465 -0.4122 -0.2580  0.1824
 5218W        W21402  16.826  14.098  10.989  0.3532 -0.1235  0.4081
 5219W        W21403  10.742   1.072   0.391 -0.4851  0.3558  0.0232
 5220W        W21404   2.875  16.262  15.274 -0.1874 -0.1113  0.0045
 5221W        W21405  18.385   9.851  13.807  0.2933  0.0854 -0.3591
 5222W        W21406  12.545  12.630   1.162 -0.1701 -0.0053 -0.3128
 5223W        W21407  11.980   5.622   1.940 -0.3370  0.0381  0.0781
 5224W        W21408   1.413   3.444   2.262  0.4246 -0.1545 -0.0778
 5225W        W21409  15.888   9.298   1.008 -0.0322  0.3125 -0.0946
 5226W        W21410   8.047   3.696   4.261 -0.1255  0.1108  0.1978
 5227W        W21411  15.084  16.717  11.979 -0.1447  0.3130  0.0951
 5228W        W21412  10.983  12.542  12.293 -0.0216 -0.1395  0.0155
 5229W        W21413  13.240  15.882  11.778  0.0480  0.0050 -0.2136
 5230W        W21414   3.411  17.007   4.947 -0.3607  0.2114 -0.4470
 5231W        W21415  13.514  16.918   3.044  0.0831 -0.0437 -0.0061
 5232W        W21416   9.178   8.605   3.680 -0.0169 -0.0635 -0.2031
 5233W        W21417   3.706  18.155   3.267 -0.0999 -0.1322  0.2766
 5234W        W21418   8.530   9.932   2.587 -0.5739 -0.3787  0.0484
 5235W        W21419   1.184   8.038   5.064 -0.2301  0.0901  0.0418
 5236W        W21420  16.519  16.570  12.307  0.1335  0.0401  0.0604
 5237W        W21421   8.811   6.513  14.136 -0.1283 -0.0508 -0.1188
 5238W        W21422   5.475  16.684   0.930 -0.2106 -0.0123  0.1630
 5239W        W21423  15.852   0.975  12.255  0.0541 -0.0135 -0.2591
 5240W        W21424  10.235   3.936   3.630 -0.1087 -0.0489  0.1558
 5241W        W21425  15.140  17.534  12.508 -0.1124  0.3097 -0.1274
 5242W        W21426   0.697   5.776  11.059 -0.0176 -0.0265  0.0168
 5243W        W21427  12.050  15.905  12.222 -0.0178 -0.1578  0.3282
 5244W        W21428  16.425  18.339   0.872 -0.2959 -0.2999  0.1818
 5245W        W21429  10.465   9.906   0.142  0.1498 -0.0781  0.2276
 5246W        W21430   2.436   8.257   0.671 -0.1172 -0.0123 -0.0536
 5247W        W21431  13.450   3.103  13.958 -0.3781  0.0334  0.0367
 5248W        W21432  18.210   7.646  14.501 -0.0893  0.0162 -0.0185
 5249W        W21433  13.112   6.190   0.567  0.0928 -0.2937  0.2963
 5250W        W21434   2.639   9.369   2.764 -0.1723  0.1032  0.1922
 5251W        W21435   3.244  13.615   4.203  0.2392  0.1912 -0.1126
 5252W        W21436  18.513   4.854   3.849 -0.1466  0.2400  0.1285
 5253W        W21437   9.820   1.986  11.994  0.0977 -0.1725 -0.2042
 5254W        W21438  16.253  14.814  14.329 -0.0675 -0.2763 -0.0341
 5255W        W21439   5.912  16.326   0.363  0.0015 -0.2306  0.1520
 5256W        W21440   9.825  11.981  14.072  0.0201 -0.3688  0.3705
 5257W        W21441  16.904  10.051   4.995  0.1810  0.2889 -0.0034
 5258W        W21442  17.351  13.838  15.420  0.0064  0.0653 -0.0919
 5259W        W21443  12.422  11.961  11.938 -0.0424  0.0976  0.3307
 5260W        W21444  15.416  15.853   2.309  0.0685  0.2955  0.2972
 5261W        W21445   8.122  10.952   4.519  0.2108  0.0706 -0.0047
 5262W        W21446   8.525  18.399   0.053  0.4046 -0.1193 -0.2203
 5263W        W21447   4.298   9.980  10.795  0.1083  0.3075 -0.1234
 5264W        W21448   9.118  16.479  13.711  0.0865  0.4802  0.2491
 5265W        W21449   6.613  17.043  12.805  0.1491 -0.2329 -0.1247
 5266W        W21450  18.639  13.605   0.761 -0.2543 -0.3463 -0.2504
 5267W        W21451  11.062   6.614  14.851  0.0636  0.0725 -0.1364
 5268W        W21452   9.762   0.708  14.461 -0.0310  0.0825 -0.0222
 5269W        W21453  18.239  17.242   0.878  0.1682  0.1272  0.0982
 5270W        W21454  15.080  15.844  13.354  0.3477  0.0575 -0.0914
 5271W        W21455   5.870  15.764  15.331  0.1526  0.1340  0.0648
 5272W        W21456   6.653   2.787   4.912 -0.0329  0.0986  0.0378
 5273W        W21457  12.155   5.605   5.346 -0.2091  0.1192 -0.1381
 5274W        W21458   2.116   4.935  13.107 -0.0930  0.1162 -0.1864
 5275W        W21459  13.317   4.784  14.334 -0.1433  0.0133 -0.1546
 5276W        W21460   9.360  17.813   4.789 -0.0117 -0.4130 -0.0662
 5277W        W21461   3.341   5.831   1.420 -0.0283  0.0344 -0.1644
 5278W        W21462  16.134   7.290  12.042  0.1105  0.1992 -0.1146
 5279W        W21463   6.937   1.626   3.988 -0.2838 -0.1863 -0.2549
 5280W        W21464   9.759   5.136  12.928 -0.0760  0.0587 -0.3664
 5281W        W21465   6.477   7.563   3.350  0.1599  0.3062  0.3002
 5282W        W21466   4.911  14.605   3.434  0.1808  0.3288  0.0962
 5283W        W21467  16.502   3.166   2.616  0.0771 -0.2636  0.1240
 5284W        W21468   2.918   5.835   0.515 -0.1657  0.1566  0.1930
 5285W        W21469  12.500   3.420   5.735  0.2223  0.0713 -0.0600
 5286W        W21470  11.071   2.336   1.339  0.3051  0.1529 -0.1256
 5287W        W21471  16.725   5.982   0.124  0.0911 -0.1083 -0.4669
 5288W        W21472   8.400  12.572   1.589  0.1548  0.0492  0.0919
 5289W        W21473   3.772  17.158  14.387  0.0726 -0.2082  0.1623
 5290W        W21474  11.166   9.546   4.537 -0.0127 -0.0416  0.1138
 5291W        W21475   7.014  17.465  12.115  0.2820 -0.0804 -0.0200
 5292W        W21476   2.631  12.618   5.138  0.3179 -0.1191  0.1038
 5293W        W21477   5.565  13.349  13.285 -0.1642 -0.1481  0.0270
 5294W        W21478  15.066  12.417   3.958 -0.0416 -0.0750 -0.0239
 5295W        W21479  18.721  11.757  15.336 -0.1098  0.0325 -0.1078
 5296W        W21480   8.875   8.122  11.720 -0.2227 -0.1393 -0.1597
 5297W        W21481  13.592   1.046   4.945 -0.0625  0.0591  0.0188
 5298W        W21482   8.251   9.097   2.825  0.0864 -0.1469  0.1526
 5299W        W21483   0.958   4.959  11.528  0.1438  0.1838  0.1141
 5300W        W21484   8.670  13.947   0.498 -0.2694  0.1365 -0.2552
 5301W        W21485   3.385   9.091  13.550  0.0513  0.3159  0.0664
 5302W        W21486   7.153  18.757  12.549  0.2008 -0.0138  0.2450
 5303W        W21487  12.714   5.572   1.219 -0.1330  0.1450  0.0813
 5304W        W21488   3.365   1.586  14.289  0.0716 -0.1039  0.0078
 5305W        W21489  14.594  17.764  12.617  0.3230  0.2292 -0.2490
 5306W        W21490  14.397  13.513  12.913 -0.1338 -0.2762 -0.1446
 5307W        W21491   0.256  12.488  11.331  0.1914 -0.3399 -0.1569
 5308W        W21492   3.549   6.662  14.783  0.0592  0.0115 -0.0427
 5309W        W21493  16.072  10.428  11.003  0.0153 -0.0547 -0.0186
 5310W        W21494   5.703  16.146  14.422  0.1012 -0.1999  0.1514
 5311W        W21495   2.648  18.450   2.253 -0.1083  0.1502  0.1247
 5312W        W21496   5.822   0.371  13.385  0.0566  0.0834  0.1553
 5313W        W21497  12.949  14.395  12.854  0.2571 -0.5560  0.1130
 5314W        W21498  14.541   9.021  10.947  0.0164  0.4070  0.0761
 5315W        W21499   5.367   6.735   2.990 -0.2063 -0.1036  0.3238
 5316W        W21500  12.582   2.895   4.830 -0.0218 -0.0279 -0.0819
 5317W        W21501  18.137  13.250   4.498 -0.0165 -0.0416  0.2240
 5318W        W21502  12.880  14.872  15.136 -0.0445  0.2679  0.1005
 5319W        W21503   9.580   3.093  14.416  0.0125 -0.2045 -0.2053
 5320W        W21504  10.144  12.248  15.488  0.2337  0.2735 -0.1464
 5321W        W21505   9.215  11.937   3.704 -0.0832 -0.0472  0.1294
 5322W        W21506  12.795   9.345  12.244 -0.3047 -0.0214  0.0393
 5323W        W21507  14.155   5.188  15.416  0.5169 -0.3287 -0.0858
 5324W        W21508   2.466  12.390   2.455 -0.0022  0.1660 -0.0120
 5325W        W21509  13.150   0.494   0.107 -0.0631  0.2136 -0.1760
 5326W        W21510   0.677  15.314  14.626 -0.1471  0.1228  0.3501
 5327W        W21511  15.788  13.625  12.722  0.0625  0.0921  0.0640
 5328W        W21512   4.764   8.818  12.815  0.0568  0.0723 -0.3962
 5329W        W21513   9.114  14.147   0.354  0.2633 -0.0271  0.0443
 5330W        W21514   4.234  17.529   4.509  0.0083 -0.0007 -0.0341
 5331W        W21515   4.701   8.406  11.198  0.0375 -0.0663  0.1053
 5332W        W21516  13.851  12.177  14.271 -0.0506 -0.0176 -0.2079
 5333W        W21517   2.933   4.318   0.175 -0.0238  0.3321  0.2646
 5334W        W21518   5.729   2.532   4.708  0.2264 -0.0923 -0.0321
 5335W        W21519   9.854  15.159  11.005 -0.1915  0.0163  0.2205
 5336W        W21520  13.100   8.855   0.268 -0.0408 -0.5225  0.0129
 5337W        W21521   0.692   2.007   3.466  0.3671  0.0176  0.1390
 5338W        W21522   9.381   0.755   3.921 -0.1505 -0.0479  0.1200
 5339W        W21523  16.224  15.353  14.420  0.1961  0.1244 -0.0402
 5340W        W21524   5.897  17.646   0.531 -0.2199  0.4628 -0.3772
 5341W        W21525  11.729   9.938  11.548 -0.3165  0.0846 -0.3474
 5342W        W21526  10.899  12.488   9.782  0.1332 -0.0371 -0.2459
 5343W        W21527   8.507  18.650   1.965 -0.1059  0.0353  0.0194
 5344W        W21528  18.299  17.743   0.751 -0.1760  0.1668 -0.1263
 5345W        W21529  18.329  14.026  11.717 -0.2189  0.2662  0.0108
 5346W        W21530  17.873  10.519   1.184  0.0542 -0.3091 -0.2865
 5347W        W21531  17.586  15.853  11.641 -0.5422 -0.0328 -0.0179
 5348W        W21532   3.636   0.025   2.448 -0.5067 -0.1342 -0.2111
 5349W        W21533   0.161  16.774  12.021  0.2190 -0.0255  0.2996
 5350W        W21534   6.015  13.487  12.277 -0.2665 -0.2881  0.1444
 5351W        W21535  16.568   3.504   3.708  0.1900  0.0447  0.2482
 5352W        W21536  11.096  11.494   0.546 -0.0589 -0.1144 -0.3297
 5353W        W21537   9.480  16.029  11.791  0.2666 -0.0427 -0.0864
 5354W        W21538  18.136   1.404  12.090  0.0337  0.1432  0.0581
 5355W        W21539  14.477   4.146  14.390 -0.2389 -0.2184  0.1066
 5356W        W21540   9.478   8.983   3.638  0.0866  0.2115  0.1095
 5357W        W21541  15.201   9.765   4.757  0.1155 -0.1131 -0.1547
 5358W        W21542  17.232   8.092  14.879  0.0798  0.1364 -0.1603
 5359W        W21543   7.507  10.995  12.758  0.0149  0.2414 -0.0653
 5360W        W21544  10.377   8.706   5.266  0.0875 -0.0706  0.0726
 5361W        W21545  16.786   8.493   2.066  0.0168  0.3076  0.2797
 5362W        W21546  17.278  11.697  13.816  0.1890 -0.3733  0.1584
 5363W        W21547   3.846   8.299   2.476 -0.0359  0.1967  0.0589
 5364W        W21548   8.624  10.238   0.947  0.0955  0.0882 -0.0588
 5365W        W21549  15.530  16.509  13.730 -0.0872  0.1583 -0.2051
 5366W        W21550  13.911   3.936   3.788 -0.0696  0.0194 -0.1267
 5367W        W21551   3.278   3.811   0.222 -0.1094  0.2602  0.3019
 5368W        W21552  13.269   9.681  12.255  0.2313  0.1178 -0.2535
 5369W        W21553  15.672  18.178  14.500  0.1323 -0.1523  0.1940
 5370W        W21554   1.450   6.771   4.948  0.1890 -0.0075 -0.2493
 5371W        W21555  17.321  12.311   1.438 -0.1418 -0.3429  0.1631
 5372W        W21556   9.448  18.098  12.733  0.3362 -0.6913  0.2890
 5373W        W21557  15.703   6.865   1.894  0.2910  0.1594 -0.1217
 5374W        W21558   3.286  14.492   4.087 -0.1018 -0.0085 -0.0300
 5375W        W21559   5.733  12.993   4.442 -0.1807  0.1507 -0.1655
 5376W        W21560   3.925   3.394   0.518  0.1598  0.2040  0.0125
 5377W        W21561  17.579   0.321   4.562  0.0863  0.2252  0.1503
 5378W        W21562  16.392   8.790   3.864  0.0579 -0.0263 -0.1323
 5379W        W21563   9.750   1.390  13.355 -0.2052 -0.2435  0.0284
 5380W        W21564   2.774   1.037   2.516 -0.1120  0.1483  0.2243
 5381W        W21565   8.729   6.669  11.149  0.1389 -0.1158 -0.0322
 5382W        W21566  12.566   3.115   4.342  0.2690  0.2199 -0.0933
 5383W        W21567   4.622  17.313   2.811 -0.2149  0.1103  0.1640
 5384W        W21568  11.648  18.106  14.364 -0.0267  0.2954  0.0410
 5385W        W21569  17.817  14.893   3.460 -0.1005  0.0499  0.0652
 5386W        W21570  13.584   4.490   0.608 -0.1113 -0.1983  0.1404
 5387W        W21571  15.728  13.562  11.144 -0.0939 -0.1814 -0.0996
 5388W        W21572  16.369  17.837  14.551  0.0798  0.2687  0.1898
 5389W        W21573   5.737  17.110   3.723  0.1171 -0.2306  0.0550
 5390W        W21574   5.944   6.536   2.637 -0.2860 -0.3634  0.0562
 5391W        W21575   6.890  10.139   2.306  0.0014  0.1590 -0.0246
 5392W        W21576  18.412   2.014  14.164  0.0873 -0.0614  0.0489
 5393W        W21577  11.190   8.560   9.910 -0.0868  0.2358  0.2483
 5394W        W21578  10.576   6.699  11.050  0.0384 -0.1039 -0.0252
 5395W        W21579   1.552  16.246  10.931  0.0381 -0.0752  0.2241
 5396W        W21580   3.943  17.970  13.148  0.0244  0.0780 -0.2359
 5397W        W21581   5.978   6.931  11.399 -0.1521 -0.0289  0.2375
 5398W        W21582   8.259   2.567  13.613 -0.1720 -0.1791  0.1335
 5399W        W21583   8.521   9.180   2.379  0.1314 -0.0658 -0.1234
 5400W        W21584   0.974   1.741   4.524  0.3842 -0.3432 -0.0048
 5401W        W21585  17.988   1.610   1.448 -0.0073  0.0380  0.0213
 5402W        W21586  15.064  11.026  11.581  0.2638 -0.1089 -0.0772
 5403W        W21587  10.747  10.942  13.756 -0.4285  0.3536 -0.1388
 5404W        W21588   5.488   2.317   3.295  0.2642 -0.1478 -0.2069
 5405W        W21589   9.370  13.506   0.836 -0.0547  0.1443  0.0922
 5406W        W21590   0.316   6.351   4.106 -0.2084 -0.3145  0.3445
 5407W        W21591  15.369  15.888   4.453 -0.0892 -0.3200 -0.0367
 5408W        W21592  14.389  10.851   1.475  0.0667 -0.0427 -0.1015
 5409W        W21593  15.740  17.685   3.957  0.1195 -0.1020 -0.0521
 5410W        W21594  14.601  12.529  12.156  0.0113  0.0130 -0.3426
 5411W        W21595   5.244   5.485   0.612  0.1023 -0.0213  0.1886
 5412W        W21596  17.492   2.825   0.197 -0.0529  0.0426  0.3291
 5413W        W21597  10.908  14.791  11.951  0.3145  0.1242 -0.0631
 5414W        W21598  13.664   1.910  14.822  0.0085  0.3354 -0.1145
 5415W        W21599  14.370   7.220   4.527  0.1461  0.0054  0.1659
 5416W        W21600   4.222  15.003   4.080  0.0645 -0.3117 -0.3255
 5417W        W21601  13.997  18.204   4.240 -0.1169 -0.0879 -0.1757
 5418W        W21602   5.230  13.329   1.744  0.1317 -0.1084 -0.1998
 5419W        W21603   9.620  13.823   3.940  0.1801 -0.2877  0.0877
 5420W        W21604   9.455   7.131  14.539  0.0952 -0.3617  0.0010
 5421W        W21605  17.125  18.338  13.633  0.0175  0.1790  0.1105
 5422W        W21606  17.564  16.863   2.118 -0.0058  0.1432 -0.2821
 5423W        W21607  17.467   0.250   2.776 -0.0383 -0.2600  0.1483
 5424W        W21608   1.039   1.348   4.033  0.1136 -0.0557  0.1448
 5425W        W21609  17.153  14.898   4.293  0.2343 -0.1987 -0.0194
 5426W        W21610   2.327  12.267  11.863 -0.1745  0.2835  0.1073
 5427W        W21611   2.756  12.542  12.087  0.0260 -0.0574  0.1086
 5428W        W21612   4.785   1.306  15.182  0.0560  0.1036 -0.1226
 5429W        W21613  17.757   1.174   1.261  0.0868 -0.3470  0.1452
 5430W        W21614  15.548  11.955  12.893  0.0348 -0.0456 -0.0436
 5431W        W21615   4.394  10.901  13.686  0.3496  0.3412  0.1884
 5432W        W21616  17.741   0.173  13.356  0.2278  0.3005  0.2561
 5433W        W21617   8.273  15.133  14.116  0.2261 -0.2877  0.1871
 5434W        W21618   7.127   8.607  11.654  0.1745  0.0768  0.1201
 5435W        W21619   6.031   0.905  14.727  0.1140  0.0153  0.0669
 5436W        W21620   6.080   4.009  15.397 -0.1940 -0.2398 -0.4820
 5437W        W21621  11.509   6.365  14.710 -0.1975 -0.3048  0.1032
 5438W        W21622  18.833  12.407   1.505  0.4352 -0.0221  0.0326
 5439W        W21623   4.497   2.131  11.169 -0.0738 -0.4493  0.0193
 5440W        W21624  12.320  12.003   2.433 -0.2335  0.1734  0.1710
 5441W        W21625  12.712   3.379   1.828  0.0109 -0.0779  0.0171
 5442W        W21626   9.255   9.465   4.784  0.0723 -0.1950 -0.3898
 5443W        W21627  16.425   8.583   0.859 -0.3963  0.3044 -0.2785
 5444W        W21628   8.521  10.642   4.922 -0.1044 -0.1971 -0.0470
 5445W        W21629   6.513  15.297  14.259 -0.0847 -0.0821 -0.0080
 5446W        W21630  16.337   6.941   0.210 -0.0609  0.0317  0.1473
 5447W        W21631   3.142  18.313   5.208 -0.0392  0.0897  0.1092
 5448W        W21632  11.535  12.231  11.907 -0.1252 -0.2844 -0.0206
 5449W        W21633  18.284   7.652   2.168 -0.1811 -0.0952 -0.0481
 5450W        W21634  12.472   7.106  10.301 -0.2612  0.1053  0.0327
 5451W        W21635   6.308  17.528  15.043  0.0756 -0.0488  0.1014
 5452W        W21636  13.850   5.144   3.416  0.0688  0.4079 -0.2577
 5453W        W21637   3.099  18.227   2.466 -0.0871  0.4456  0.1279
 5454W        W21638   4.561   3.680  12.290  0.1015 -0.1716  0.0254
 5455W        W21639  13.402  14.569  11.984 -0.0746 -0.1231 -0.1639
 5456W        W21640  15.321   0.454   5.078  0.0974  0.2170  0.1141
 5457W        W21641  13.344  14.500  15.161  0.0133 -0.2467  0.1410
 5458W        W21642  13.407   0.944  14.588 -0.3207 -0.5571  0.2055
 5459W        W21643   0.485  14.890   0.649  0.3331  0.5009 -0.0087
 5460W        W21644   0.334  10.470   1.676  0.2949  0.0438 -0.2247
 5461W        W21645   4.053  15.757  13.986 -0.1734  0.2672 -0.5564
 5462W        W21646   8.028   7.482   4.267 -0.0285 -0.0724 -0.0059
 5463W        W21647  14.849   1.153  13.812  0.0476  0.1361 -0.0837
 5464W        W21648   7.563   6.632   3.399  0.1076  0.1853  0.2738
 5465W        W21649   9.944  15.830   0.824  0.1145  0.3138  0.2395
 5466W        W21650   6.919   7.276  14.572  0.2164  0.0419 -0.1233
 5467W        W21651  10.389  17.610   5.608  0.1099 -0.1865  0.0644
 5468W        W21652   8.385  11.347  12.870  0.0350 -0.1537  0.1487
 5469W        W21653   6.352   6.261   2.477  0.0688 -0.0256  0.2653
 5470W        W21654  16.885  10.766   0.990  0.0817 -0.2955 -0.0381
 5471W        W21655   1.481  12.547   2.790 -0.1011  0.3150  0.3380
 5472W        W21656   0.652  12.502  15.011  0.3908 -0.0624  0.1444
 5473W        W21657   3.403  13.596   2.062  0.2670 -0.1475 -0.1709
 5474W        W21658   8.516  17.573   2.211 -0.3794  0.0054 -0.0475
 5475W        W21659  15.252  11.885   0.328  0.0221 -0.0878  0.0867
 5476W        W21660  16.002   6.232   1.228  0.1446 -0.1008 -0.2824
 5477W        W21661  14.672  16.201   0.730 -0.1265 -0.0571 -0.2324
 5478W        W21662  12.864  12.529  12.741  0.2469 -0.3159 -0.1284
 5479W        W21663   8.594  16.058   0.274  0.2045  0.2233  0.2182
 5480W        W21664   1.446   2.193  12.269 -0.2108 -0.2086 -0.1577
 5481W        W21665  15.637   0.350  12.896 -0.0917  0.3454  0.1182
 5482W        W21666   6.879  15.867   1.844  0.0239 -0.0809 -0.1403
 5483W        W21667   0.528   5.063   1.138 -0.1087 -0.2172  0.0926
 5484W        W21668  17.293   8.098  12.384  0.3611  0.3175 -0.2517
 5485W        W21669  11.532  12.780   0.578  0.0098 -0.3745  0.1997
 5486W        W21670   5.812   0.204  12.881  0.1523  0.2782  0.0875
 5487W        W21671   9.762   8.547  11.814 -0.0585  0.1278 -0.0711
 5488W        W21672   0.634  10.185  14.586  0.3841 -0.0961  0.1426
 5489W        W21673  15.938   0.455   4.374  0.0597 -0.0491 -0.3073
 5490W        W21674  12.305  11.560  15.491 -0.1974  0.1148 -0.1364
 5491W        W21675  11.076   9.849   1.537 -0.0169 -0.1492  0.2358
 5492W        W21676  13.839   7.413  12.170 -0.1007  0.1350  0.2900
 5493W        W21677   1.902   2.086  11.011 -0.0308  0.0939 -0.0931
 5494W        W21678  11.511  11.612   4.539 -0.2496  0.2595  0.0308
 5495W        W21679  16.124   2.276  13.305  0.1298  0.2241 -0.0197
 5496W        W21680   0.371  12.249  14.220  0.2374 -0.0985 -0.0775
 5497W        W21681   8.302   1.786   2.712 -0.0684  0.2753 -0.0395
 5498W        W21682   0.616  16.094  13.799  0.0549 -0.0379 -0.1620
 5499W        W21683  13.473   2.059   1.372 -0.3162 -0.6284 -0.0515
 5500W        W21684   8.688  16.686   5.276 -0.1535  0.0181  0.2068
 5501W        W21685   4.032   5.055  10.645 -0.0177  0.2938 -0.0393
 5502W        W21686  15.973   7.643  14.886 -0.3588  0.1859 -0.0036
 5503W        W21687  17.508   5.782   1.604  0.0313  0.2174  0.0803
 5504W        W21688   5.267  17.131   1.054  0.1227 -0.1416  0.1366
 5505W        W21689  14.036   5.920   3.716  0.2923  0.0111  0.2444
 5506W        W21690  10.836  15.291  13.267 -0.1735  0.2227  0.0145
 5507W        W21691  17.550   4.122  14.503  0.1792  0.0943 -0.0427
 5508W        W21692  14.640  11.536   1.824  0.0409  0.2487  0.0281
 5509W        W21693   4.057  17.741   3.224 -0.1228  0.3580  0.0633
 5510W        W21694   0.937  10.455  15.026 -0.4550 -0.1314 -0.3163
 5511W        W21695  15.988  14.099   0.283 -0.3112  0.2639  0.2648
 5512W        W21696  10.222  18.557  13.154 -0.1520 -0.1898  0.1150
 5513W        W21697   7.502   1.548   5.731 -0.1161 -0.3086  0.1967
 5514W        W21698   5.681   2.878   0.139  0.0449  0.1837  0.0106
 5515W        W21699  14.299  17.409  12.265  0.1082  0.1013 -0.2903
 5516W        W21700   1.633  14.718   4.963 -0.2754 -0.0374  0.0701
 5517W        W21701   2.301   7.003   1.758 -0.1320 -0.0649  0.1937
 5518W        W21702  17.145  14.103  12.902  0.0048 -0.0366 -0.0289
 5519W        W21703   8.852   5.784  15.503  0.2305  0.0077  0.1303
 5520W        W21704  15.052   2.540  10.968 -0.0785  0.1496 -0.2306
 5521W        W21705   3.382   2.793  14.350  0.0622  0.3682  0.4335
 5522W        W21706  15.555   8.902   5.847 -0.0536  0.0149  0.1131
 5523W        W21707   3.263   4.160  13.755  0.1237  0.1752  0.2568
 5524W        W21708  17.862   4.558   2.424  0.0020 -0.1955 -0.0461
 5525W        W21709  13.971  17.552  11.032  0.1363  0.0071 -0.1605
 5526W        W21710   7.547  17.175  14.408 -0.0792 -0.0840  0.3581
 5527W        W21711   9.133  17.456   1.439  0.0947  0.3240  0.0304
 5528W        W21712   7.899  11.385  13.653 -0.0762 -0.0066 -0.1286
 5529W        W21713   5.265  18.334  13.418  0.0002  0.0008  0.0849
 5530W        W21714  14.252   4.461  11.047  0.0518 -0.1119  0.2352
 5531W        W21715   2.410  12.871   9.926 -0.2556  0.1954 -0.2409
 5532W        W21716   8.306   5.950   4.226 -0.0089  0.2111 -0.0904
 5533W        W21717  10.213   7.657   1.322  0.1226  0.0447 -0.0349
 5534W        W21718  13.998   1.492  15.532 -0.0547  0.0309 -0.4759
 5535W        W21719  10.371  17.348  12.138  0.0137 -0.0667 -0.1882
 5536W        W21720   4.219   6.122  13.514 -0.1552 -0.3129 -0.0397
 5537W        W21721  17.345   4.803  11.176  0.3885 -0.1070  0.3755
 5538W        W21722  12.155  13.969  11.384  0.0871 -0.0693  0.2133
 5539W        W21723  10.869  14.583   4.719  0.0240  0.2972  0.2174
 5540W        W21724   0.765  14.615   4.531 -0.0327 -0.1479 -0.0993
 5541W        W21725   3.521  14.180  14.255  0.1441 -0.1690 -0.0439
 5542W        W21726  10.241  16.575   3.435 -0.2479  0.1648  0.2446
 5543W        W21727  11.284   9.116  11.904 -0.1231 -0.0085  0.1035
 5544W        W21728   2.048   6.768  12.516 -0.1407  0.1741  0.0788
 5545W        W21729   6.378  17.726   1.301 -0.1299  0.2552  0.0722
 5546W        W21730   4.494   7.217  12.672 -0.2225  0.2272  0.0382
 5547W        W21731  10.209   9.901  14.421 -0.1762 -0.1914  0.0636
 5548W        W21732   3.724  12.726  14.983 -0.1299 -0.4155 -0.1420
 5549W        W21733  15.723   7.570  11.884  0.4366 -0.3839  0.0370
 5550W        W21734  18.251  13.409  12.530 -0.1612 -0.1170 -0.0648
 5551W        W21735   0.272   2.018   9.569 -0.3358 -0.1633 -0.0541
 5552W        W21736  13.376  12.518  13.041 -0.2140 -0.1945 -0.0686
 5553W        W21737   8.309  16.204   2.362 -0.1674  0.1387  0.1833
 5554W        W21738  18.499   1.541   2.837  0.0299 -0.0551 -0.2106
 5555W        W21739  14.671  16.635   2.035 -0.3324 -0.2289 -0.0811
 5556W        W21740   2.040   4.953  15.530 -0.0154 -0.1987 -0.1995
 5557W        W21741   8.893   5.856   4.237  0.0501  0.0089 -0.0334
 5558W        W21742   3.624  14.949  10.792  0.2718  0.2051  0.1796
 5559W        W21743   3.498  17.723   2.408 -0.1830 -0.0094 -0.2547
 5560W        W21744   4.418  13.745   4.470 -0.0670  0.0472 -0.0063
 5561W        W21745  17.817  17.049  11.321 -0.0859 -0.1560  0.2783
 5562W        W21746   1.572   1.682   3.874 -0.1118 -0.1814  0.0948
 5563W        W21747  17.307  17.346   2.242  0.1524 -0.4636  0.1161
 5564W        W21748   6.459  16.906  12.329  0.3409  0.0525 -0.1121
 5565W        W21749  18.735   9.733  14.240 -0.1729 -0.0441  0.0845
 5566W        W21750  10.384   5.915   0.201 -0.0676  0.1117 -0.2549
 5567W        W21751   3.449   7.998   2.587 -0.1238 -0.2350 -0.3134
 5568W        W21752   6.988  15.634   0.689 -0.2317  0.0514  0.2404
 5569W        W21753  13.255   1.531   0.523  0.2034  0.0569  0.2116
 5570W        W21754   0.990  18.288   3.756  0.2089 -0.1107 -0.4823
 5571W        W21755  15.213   2.637   5.102 -0.2352 -0.4798  0.0405
 5572W        W21756   0.085   1.837   1.797 -0.1587  0.6042  0.3381
 5573W        W21757   6.025   2.884   0.500  0.0859  0.2098 -0.1070
 5574W        W21758  18.355  10.322  15.109 -0.1849  0.3738  0.2023
 5575W        W21759  17.101  11.629   2.582 -0.0281  0.2296  0.3131
 5576W        W21760   8.099   3.108  12.569  0.4812  0.0401  0.1441
 5577W        W21761   2.709   0.109   9.376  0.0648 -0.2206 -0.0222
 5578W        W21762  18.739   0.303   4.028  0.0668  0.1313 -0.1602
 5579W        W21763  10.257   9.101   1.915 -0.0739  0.1154  0.0473
 5580W        W21764   6.288   0.392   3.909  0.2723 -0.1178 -0.1814
 5581W        W21765  16.795   8.087  12.353 -0.0502 -0.1885  0.0904
 5582W        W21766  16.799   6.798   4.787  0.2211  0.1659 -0.0052
 5583W        W21767  11.400   3.524   9.986  0.2164  0.0825 -0.2391
 5584W        W21768  17.934   1.690  11.706  0.1408 -0.1803 -0.2201
 5585W        W21769  14.054   8.993   2.848  0.3085 -0.3140 -0.2653
 5586W        W21770  10.800  15.291   0.976 -0.0952  0.2768  0.1515
 5587W        W21771  10.691  10.562   0.467  0.1188  0.1051 -0.0502
 5588W        W21772   9.602  17.161  14.361  0.0086 -0.0844  0.4998
 5589W        W21773  13.631  16.653  11.003 -0.0815  0.0737 -0.2157
 5590W        W21774  11.868  17.000   4.533 -0.0630 -0.0311  0.0300
 5591W        W21775   0.538   7.517   3.718 -0.0615 -0.0057  0.1140
 5592W        W21776  16.879  18.607  11.226  0.0809 -0.1487 -0.2024
 5593W        W21777   8.693   7.280   1.494  0.2503 -0.0760  0.1132
 5594W        W21778  17.022   6.879  10.694  0.0152  0.0021 -0.3153
 5595W        W21779   2.634  10.097  13.433  0.0885 -0.1512 -0.0226
 5596W        W21780   5.797  13.908  12.027 -0.1993 -0.0063 -0.2252
 5597W        W21781  16.993   7.582   1.733  0.3788 -0.1626 -0.0933
 5598W        W21782   4.414   0.280   1.756  0.1963 -0.1720 -0.2676
 5599W        W21783  10.587  14.126  10.901  0.3409 -0.1222 -0.1731
 5600W        W21784  18.815   6.282  13.847 -0.1533  0.1899  0.0475
 5601W        W21785  15.328  17.685  13.469  0.0680  0.0769  0.0994
 5602W        W21786   2.041  12.903  10.920  0.1559  0.1634 -0.0904
 5603W        W21787  16.243  14.158   4.258  0.0179  0.0283  0.0350
 5604W        W21788   2.251  11.070   4.519 -0.2494 -0.1686  0.0335
 5605W        W21789  17.309   5.998   0.100 -0.0253 -0.2122  0.0337
 5606W        W21790  16.422   9.597  14.369 -0.1268 -0.1037  0.0306
 5607W        W21791   7.351   5.041  12.265  0.1770  0.2991 -0.1664
 5608W        W21792   1.492   2.206  11.359  0.2078 -0.0305  0.0019
 5609W        W21793  17.007  14.792   5.522 -0.1377  0.0460  0.1544
 5610W        W21794  10.339  10.739   1.881  0.2337  0.2021  0.1591
 5611W        W21795   0.030   0.650  13.075  0.1805  0.1181 -0.1225
 5612W        W21796   9.997  10.461   4.192 -0.2091  0.1705  0.1585
 5613W        W21797   1.222   3.388   1.258  0.1209  0.1340 -0.0517
 5614W        W21798   2.340   6.875   0.608 -0.0849  0.1347  0.0133
 5615W        W21799   8.514  15.589  12.580 -0.2281 -0.0937 -0.2851
 5616W        W21800  18.460  17.882  13.361 -0.4074 -0.1237  0.1715
 5617W        W21801   9.589  15.421   0.689  0.0194 -0.1648  0.4203
 5618W        W21802  17.181   9.931   2.984 -0.0447 -0.3194  0.0424
 5619W        W21803   8.431   2.085   0.586 -0.0072  0.0208  0.2191
 5620W        W21804  16.402   3.488   1.423 -0.1380 -0.1606 -0.1205
 5621W        W21805   2.876   7.679   9.828 -0.1494  0.0289  0.0481
 5622W        W21806  16.875  15.105  13.677  0.2549 -0.1822  0.0714
 5623W        W21807   3.117   9.740  11.675 -0.1842  0.1182 -0.0099
 5624W        W21808  14.871  17.145   3.868  0.0536  0.0457  0.0765
 5625W        W21809  15.869   8.605  13.197 -0.0611  0.2060  0.2368
 5626W        W21810   3.126   4.977  13.930 -0.0968 -0.3329  0.0683
 5627W        W21811   3.977   4.181   5.181 -0.1862 -0.0034 -0.0008
 5628W        W21812   3.559   1.013  14.597  0.1483 -0.3217  0.1791
 5629W        W21813  12.899  17.201   3.580 -0.1534  0.0494 -0.1034
 5630W        W21814   7.388   1.360  11.827 -0.0766 -0.0781  0.0671
 5631W        W21815   4.666   3.942   2.345 -0.0369 -0.1291  0.2182
 5632W        W21816   4.623   6.280   0.613 -0.2166 -0.1295 -0.2698
 5633W        W21817   6.836   3.936   2.952  0.1004  0.2826 -0.1412
 5634W        W21818  17.562  18.748   4.195  0.3773 -0.0239 -0.0781
 5635W        W21819   6.159   3.816  11.724  0.2277  0.1292 -0.2821
 5636W        W21820   4.682  17.519  13.099  0.2366 -0.1421  0.1671
 5637W        W21821  13.455  16.461   2.691  0.0744  0.0202 -0.3125
 5638W        W21822   2.992   4.812   3.017  0.3712  0.0411 -0.2067
 5639W        W21823   7.672  12.928  13.867 -0.3334  0.0389  0.1060
 5640W        W21824  10.510  10.198  15.208  0.1650  0.2142 -0.3287
 5641W        W21825  17.019   2.382   4.348 -0.0043  0.1155  0.1468
 5642W        W21826   5.981  11.192   4.554  0.0260  0.1735  0.3493
 5643W        W21827  12.683  18.423  11.939  0.2004 -0.0828  0.0427
 5644W        W21828   7.242   5.504  12.432 -0.0543 -0.1486 -0.3623
 5645W        W21829   6.960  11.328   0.718 -0.1264 -0.0886  0.2209
 5646W        W21830  17.661   3.238   5.626 -0.2137  0.0421  0.2077
 5647W        W21831  15.373   6.585   3.444 -0.0653  0.0345  0.3001
 5648W        W21832   2.007   9.586   1.572 -0.0067  0.1288 -0.0198
 5649W        W21833   0.060  10.321  13.538  0.1504  0.0916 -0.0804
 5650W        W21834   8.035  17.143  14.195 -0.0825  0.0084 -0.1530
 5651W        W21835  17.657   3.617  12.019  0.0509  0.1313  0.0430
 5652W        W21836   3.473  14.826   3.230 -0.4091  0.2575  0.1540
 5653W        W21837   5.121   8.580   4.240  0.1890 -0.0031  0.2132
 5654W        W21838   1.507  17.246  12.122 -0.0124 -0.0988 -0.2137
 5655W        W21839   9.590   7.190   1.672  0.1025 -0.2185 -0.2046
 5656W        W21840  13.911   3.337   2.101 -0.1080  0.3023  0.1268
 5657W        W21841   0.911   5.250   4.143  0.1335  0.1108 -0.3096
 5658W        W21842   2.284  17.584  12.584  0.1309  0.1344  0.1104
 5659W        W21843   0.459   3.378  15.395 -0.0425  0.0092  0.1465
 5660W        W21844  13.018   4.833  15.430  0.1550  0.2663 -0.0607
 5661W        W21845   4.057  10.985  12.378 -0.0495 -0.1646 -0.0250
 5662W        W21846   9.611   3.571   0.185 -0.0052 -0.3344 -0.0549
 5663W        W21847  15.710  10.571  13.811 -0.3167  0.1123 -0.1752
 5664W        W21848   0.681  11.568  13.140  0.1897  0.1351 -0.0685
 5665W        W21849   9.699   5.119   2.274  0.0224  0.1238  0.2474
 5666W        W21850  17.001   2.996   5.807  0.1227  0.1426  0.3145
 5667W        W21851   1.753  13.489   3.290  0.1094 -0.3269 -0.1135
 5668W        W21852   5.803   9.217  11.294 -0.0716  0.1501 -0.2939
 5669W        W21853  13.283   4.655   1.557  0.0059 -0.1779 -0.1250
 5670W        W21854  15.059   7.797  13.103  0.1283 -0.2126  0.0328
 5671W        W21855  12.410  16.504   1.297 -0.0894 -0.1817 -0.2754
 5672W        W21856   9.097  18.087  11.522  0.0502 -0.1585 -0.0838
 5673W        W21857  14.610   4.705   3.221  0.0591  0.0008 -0.4533
 5674W        W21858   8.915   8.140  12.717  0.2510 -0.1798  0.0566
 5675W        W21859   1.985   2.153   1.405 -0.1287 -0.0508 -0.2168
 5676W        W21860  11.629  14.957  13.291 -0.0541  0.3648  0.0162
 5677W        W21861   5.238  15.508   0.420  0.0163  0.0215 -0.1352
 5678W        W21862   4.822  18.338  12.904  0.0540 -0.0704 -0.0133
 5679W        W21863   0.166   4.881  11.977  0.2716  0.0042  0.1499
 5680W        W21864   9.301   7.805  11.920  0.1689 -0.1480  0.1209
 5681W        W21865  11.165   0.419   0.111  0.0248 -0.2549 -0.0437
 5682W        W21866  12.490   6.251  15.209  0.0867  0.5630  0.1617
 5683W        W21867   0.429  17.483  13.428  0.1909  0.0314 -0.1641
 5684W        W21868   6.298   8.896   5.156 -0.0576 -0.1742 -0.0713
 5685W        W21869   0.879  17.787   3.763  0.0407  0.0248 -0.2048
 5686W        W21870   5.450  16.684   5.080 -0.3274 -0.1155  0.0379
 5687W        W21871   4.948  12.512   3.190  0.0563 -0.1739  0.2883
 5688W        W21872  13.959  17.048   5.791  0.0005 -0.0899  0.4346
 5689W        W21873   0.370  10.983   2.854  0.1119  0.2075  0.0028
 5690W        W21874   2.079  17.477   3.201  0.0712 -0.3373  0.2512
 5691W        W21875   3.481   3.640   0.619  0.0531  0.1104  0.5055
 5692W        W21876  14.646  13.338  14.283  0.1478 -0.1648 -0.1891
 5693W        W21877  13.322   7.195  14.294  0.1633 -0.1674  0.2260
 5694W        W21878   2.308   5.706  15.446 -0.1180 -0.4718 -0.1004
 5695W        W21879  16.511  17.115  10.815  0.1626 -0.1248  0.2213
 5696W        W21880  13.982   7.587   2.574  0.3359  0.1934 -0.0586
 5697W        W21881  15.616  18.617  12.152  0.0007 -0.0672 -0.0990
 5698W        W21882  15.392   6.881  11.826  0.3153 -0.3429 -0.0100
 5699W        W21883   5.503   6.169  12.507  0.0923  0.1304  0.2011
 5700W        W21884   8.383  18.067  11.913  0.1578 -0.0694 -0.2089
 5701W        W21885   9.487   6.198  11.453 -0.1906  0.1048  0.0282
 5702W        W21886   1.038  11.223  10.308 -0.2035 -0.1068  0.0160
 5703W        W21887  11.674   7.523   4.542  0.1632  0.0090  0.0503
 5704W        W21888  11.926  10.919  14.882  0.0087 -0.2558 -0.0969
 5705W        W21889  15.417  12.041   1.151 -0.0602  0.0483 -0.2374
 5706W        W21890  15.442   2.495  13.971  0.1695 -0.2259 -0.4120
 5707W        W21891   1.477   8.269   1.439 -0.0875  0.0941 -0.1242
 5708W        W21892  18.048   8.161   0.689  0.0020 -0.0792 -0.0603
 5709W        W21893   3.186   3.276  12.485 -0.0066  0.0029  0.1133
 5710W        W21894   7.081  13.713   3.160  0.2282  0.2151 -0.1782
 5711W        W21895  16.943  16.179   4.296 -0.1426 -0.0975 -0.3180
 5712W        W21896  15.465  11.578   2.705  0.2172 -0.0284 -0.2751
 5713W        W21897   6.164  14.147   4.311 -0.0598  0.1243  0.0819
 5714W        W21898  13.453   9.595  13.856 -0.1405  0.2822 -0.2491
 5715W        W21899   3.552   0.451  13.155 -0.3560  0.0994 -0.0089
 5716W        W21900  10.322  17.318  15.236  0.1359  0.1418 -0.0901
 5717W        W21901  15.066  13.463   4.939 -0.2210  0.0894 -0.0734
 5718W        W21902   8.332   9.904   0.569  0.0831 -0.1642  0.2187
 5719W        W21903  16.503   5.243  10.964 -0.1025  0.2201  0.0445
 5720W        W21904  18.290   1.256  11.643 -0.0659 -0.0342  0.1242
 5721W        W21905   1.868   4.047   1.115 -0.2082  0.1610  0.0668
 5722W        W21906  15.831   0.665   1.489  0.0241 -0.0588  0.0260
 5723W        W21907  15.297   5.655   3.631 -0.0730  0.2407  0.2478
 5724W        W21908   7.493  13.574   5.550 -0.2181  0.1622 -0.0011
 5725W        W21909   8.241   5.028   4.872 -0.1773  0.2432  0.0678
 5726W        W21910   8.079   2.073  13.463  0.2282 -0.1149  0.0670
 5727W        W21911  18.805   0.919  15.158 -0.0057  0.0813  0.2110
 5728W        W21912   7.244   7.350  14.056  0.4265  0.1645  0.0450
 5729W        W21913  13.175  11.265   0.943 -0.1329  0.0458 -0.2029
 5730W        W21914   5.305   1.346   1.435  0.3624  0.1789  0.0491
 5731W        W21915   1.354  13.495  13.690 -0.1959  0.0507 -0.0175
 5732W        W21916  14.722   2.982   3.952  0.3920  0.1742 -0.1146
 5733W        W21917  18.491   1.764  13.721 -0.2989 -0.3129  0.0296
 5734W        W21918  17.655   1.198  12.027 -0.2864 -0.0927  0.4987
 5735W        W21919   0.993  17.468  15.206 -0.1450  0.1393  0.1228
 5736W        W21920  16.267   1.518   0.239  0.0892 -0.2436  0.3296
 5737W        W21921  12.098  18.808   0.851 -0.4021  0.2603 -0.0198
 5738W        W21922  10.642   6.796   3.862  0.0283 -0.0324 -0.5886
 5739W        W21923  10.712   1.315   5.235  0.1868  0.0891 -0.0540
 5740W        W21924   3.342  15.344   2.366  0.1968  0.2465  0.0688
 5741W        W21925  18.644   8.270   1.401 -0.0031  0.2209  0.3650
 5742W        W21926  12.939   9.718  13.358  0.1719  0.0894 -0.2222
 5743W        W21927  16.384  11.518   4.620 -0.1851  0.2913  0.0889
 5744W        W21928  10.872   6.516   2.592  0.3804 -0.0214  0.1260
 5745W        W21929  11.457  10.257  11.950 -0.0483 -0.1854 -0.3337
 5746W        W21930  17.175   2.059  14.064  0.0371 -0.0769  0.2060
 5747W        W21931  11.290   2.228  10.904  0.3057 -0.0057 -0.2108
 5748W        W21932  10.801   3.152   1.297 -0.1200 -0.0813 -0.0390
 5749W        W21933  13.434  12.812  14.266 -0.1207  0.0191 -0.2352
 5750W        W21934  17.845   8.896   1.879 -0.2192 -0.0483 -0.0168
 5751W        W21935   1.400  17.717  15.205  0.0984  0.0164 -0.1903
 5752W        W21936   9.562   8.830   1.443 -0.1592  0.3004 -0.2146
 5753W        W21937  13.616   9.015  13.273  0.0410 -0.0675 -0.2140
 5754W        W21938   1.528  10.995  14.163  0.4329  0.0494 -0.0401
 5755W        W21939  11.517   7.457   3.395  0.0157 -0.1573 -0.1339
 5756W        W21940  16.906  16.845  13.643  0.0384  0.1012 -0.2238
 5757W        W21941  11.609  17.275  11.106  0.1242 -0.2187  0.2480
 5758W        W21942  17.124   3.111   0.084  0.0337 -0.2310 -0.0311
 5759W        W21943   5.538   5.809   1.542  0.0816  0.1116  0.0894
 5760W        W21944  11.391   9.188  11.090  0.0938  0.1747  0.1366
 5761W        W21945   6.826   0.028  12.061 -0.0915  0.2039  0.3836
 5762W        W21946   6.202   4.969  13.605  0.1285 -0.3623 -0.2071
 5763W        W21947  16.237   7.363  13.987  0.1418 -0.1980 -0.0837
 5764W        W21948   8.180  18.544  14.565 -0.2863 -0.3011 -0.4279
 5765W        W21949  18.246   0.498   0.319 -0.1311 -0.0847 -0.0258
 5766W        W21950   1.141  15.316   5.232 -0.3722 -0.0769  0.2414
 5767W        W21951   6.303   8.021  13.322  0.1842 -0.1202  0.0552
 5768W        W21952   4.743  17.128   1.084 -0.2124  0.0246  0.0419
 5769W        W21953  16.616  12.162   1.553  0.2032 -0.1653  0.1223
 5770W        W21954   7.724  14.889   2.691 -0.2054 -0.2812 -0.2806
 5771W        W21955  11.946   9.995   2.576  0.4836 -0.0799  0.1727
 5772W        W21956  10.424   9.101   0.654 -0.2227  0.0786 -0.0731
 5773W        W21957  12.832  18.854  14.483  0.0172 -0.0490 -0.0663
 5774W        W21958  12.666   3.923   2.581 -0.0578 -0.1706  0.1721
 5775W        W21959  13.820   8.518  11.935  0.1653 -0.2979  0.3208
 5776W        W21960   2.506   1.361   3.872 -0.1178 -0.1378  0.0907
 5777W        W21961   1.178   1.216   3.527  0.2266 -0.0141 -0.0673
 5778W        W21962   8.756   6.691  10.390 -0.0034  0.0653 -0.0131
 5779W        W21963   0.013  17.449  15.075  0.0639  0.1606  0.0127
 5780W        W21964  18.397   5.094  13.197 -0.0510 -0.0342 -0.1211
 5781W        W21965  12.408  16.093   1.727 -0.0060 -0.0315  0.2801
 5782W        W21966   4.352   1.448  11.891 -0.1709  0.3654 -0.0446
 5783W        W21967  14.220  10.681  11.647 -0.1604 -0.0528  0.1366
 5784W        W21968   6.781   4.860   4.463  0.1248  0.2209  0.0348
 5785W        W21969   7.221  12.950   0.546  0.0743 -0.0930 -0.1773
 5786W        W21970  14.147   0.349   4.328  0.1876 -0.1996 -0.2054
 5787W        W21971   1.270  15.164   0.081  0.3123 -0.3245  0.0962
 5788W        W21972  13.910  16.441   4.898 -0.0084 -0.1061 -0.0735
 5789W        W21973   6.465   7.137   2.023  0.1511 -0.2278  0.0949
 5790W        W21974   7.253  13.010   4.708 -0.2790 -0.1010 -0.0682
 5791W        W21975   7.190  14.618  14.776  0.3192  0.0239  0.1998
 5792W        W21976  13.980   4.388   0.865 -0.0687 -0.4561 -0.0300
 5793W        W21977   1.832   6.977   5.405  0.2284  0.0270 -0.2005
 5794W        W21978  12.172  17.183   4.135  0.0037  0.4272  0.1217
 5795W        W21979   1.120   3.771   3.289 -0.3366  0.1556 -0.3751
 5796W        W21980  14.692   6.238   4.195  0.2012  0.2084  0.3511
 5797W        W21981   5.059   3.706   1.148  0.0874  0.2537  0.0745
 5798W        W21982   6.689   8.165   0.635  0.1793  0.0788 -0.0317
 5799W        W21983   6.469   1.200   2.460  0.0839  0.3924  0.0346
 5800W        W21984  11.522   0.132  12.746 -0.4809  0.1464  0.1087
 5801W        W21985   6.016  10.578  11.964 -0.0977 -0.2424  0.2269
 5802W        W21986  14.604  15.987   4.382 -0.0780 -0.1723 -0.2308
 5803W        W21987   4.364   4.865   9.854  0.0511  0.1863 -0.1315
 5804W        W21988  14.845  15.892   1.099  0.1289  0.0157  0.1497
 5805W        W21989   1.845  11.333  12.338  0.0688  0.4335  0.2095
 5806W        W21990   6.766  12.293   1.021  0.0338 -0.0326 -0.2433
 5807W        W21991  13.450  17.554   2.186  0.1832 -0.0521  0.1122
 5808W        W21992   6.335  16.801  14.442  0.0028  0.1101 -0.1480
 5809W        W21993   3.766  12.826   4.514  0.2495  0.3001 -0.1409
 5810W        W21994  13.059   8.413  12.185 -0.0984 -0.2219 -0.0462
 5811W        W21995  12.623  13.760  13.494 -0.3137  0.1483 -0.2527
 5812W        W21996   5.445   8.862  14.367  0.1002 -0.1803  0.1506
 5813W        W21997   0.017  10.751  12.943  0.1478 -0.2661  0.1170
 5814W        W21998   0.347   8.993   0.204 -0.4458 -0.1354 -0.3843
 5815W        W21999  16.217   0.202  11.116  0.0320  0.2638  0.1442
 5816W        W22000   2.065  13.247   2.627  0.0177  0.2287 -0.3086
 5817W        W22001   0.318  13.733   3.395  0.1874  0.1523 -0.4742
 5818W        W22002   1.603   8.740   6.035  0.2314  0.0575  0.0183
 5819W        W22003   0.527  16.311  11.904  0.0063 -0.0494  0.0531
 5820W        W22004  18.401  18.536   4.315  0.1094 -0.1204 -0.0167
 5821W        W22005   0.351  10.633  13.336  0.0684 -0.1567  0.0659
 5822W        W22006   8.158  14.542  12.419 -0.2338  0.5732  0.0070
 5823W        W22007   3.461   7.787   4.752 -0.0788 -0.0589 -0.2588
 5824W        W22008  12.883  16.676   2.086  0.0357 -0.2355  0.0365
 5825W        W22009   4.364  11.646   0.422 -0.1797 -0.1971 -0.3588
 5826W        W22010  13.008   3.325   5.709 -0.0011 -0.3179 -0.0091
 5827W        W22011  14.640   3.297  11.359 -0.0115  0.1321 -0.1506
 5828W        W22012  15.474   0.596   0.959  0.0372 -0.3005  0.1405
 5829W        W22013   0.735   4.163  13.586  0.2614  0.2518 -0.0267
 5830W        W22014  14.193  10.649   4.618  0.0093  0.1867  0.0464
 5831W        W22015   4.011  12.040  12.811 -0.2254 -0.1198 -0.0756
 5832W        W22016   9.624  15.789   5.467 -0.1728 -0.1628 -0.0355
 5833W        W22017   8.684  12.809  11.838 -0.3974 -0.2816  0.0619
 5834W        W22018   4.613   7.623   4.128 -0.1705  0.3191  0.0442
 5835W        W22019  15.089  14.406  10.732 -0.1936  0.0404  0.0317
 5836W        W22020   5.912   6.402  10.278 -0.0566  0.1730  0.3387
 5837W        W22021   4.500  14.587  12.585  0.0720 -0.2802  0.0137
 5838W        W22022  15.750  15.244  14.975 -0.0167  0.2317 -0.1318
 5839W        W22023   3.248   0.362   1.098  0.1273 -0.1483  0.2164
 5840W        W22024   5.483   5.844  11.535 -0.4623  0.1436  0.0446
 5841W        W22025   6.489   7.755   1.802  0.1671 -0.2100  0.1552
 5842W        W22026   0.471   1.760   4.769  0.1993 -0.0218  0.0109
 5843W        W22027  16.925  16.815  12.140 -0.0510  0.2516 -0.1984
 5844W        W22028  12.120  17.900  14.125  0.4813  0.0265  0.1188
 5845W        W22029  11.169  10.519  11.005 -0.4455 -0.4027 -0.3288
 5846W        W22030  15.936  13.260   4.274  0.3231  0.1404  0.0833
 5847W        W22031   2.056   5.267  11.952 -0.0729  0.0470 -0.0095
 5848W        W22032  10.798  11.779   5.168 -0.0523  0.0410  0.0245
 5849W        W22033  10.128   8.011   0.879 -0.1421 -0.2793  0.1628
 5850W        W22034  17.604  14.320  10.729  0.0417  0.1398  0.2039
 5851W        W22035  11.958  18.381   4.685 -0.0787  0.2152  0.0931
 5852W        W22036   8.740   4.031   0.904 -0.0287  0.0234 -0.2149
 5853W        W22037  11.094  11.860  11.371 -0.0138 -0.2218  0.2048
 5854W        W22038  14.622   5.992   6.305 -0.2419 -0.0033  0.2011
 5855W        W22039  15.196   7.997   2.362  0.2421 -0.1055  0.3020
 5856W        W22040   9.664  16.616  15.156  0.1528 -0.0439 -0.2919
 5857W        W22041  16.036  16.776   1.799 -0.2158 -0.3135  0.0355
 5858W        W22042  14.860   8.525   2.237 -0.1993  0.0635  0.1972
 5859W        W22043   7.679   1.140   4.016 -0.1274 -0.2367 -0.1083
 5860W        W22044   4.027  10.173  11.218 -0.3135 -0.2050 -0.1809
 5861W        W22045   5.829  16.616   3.710 -0.0082 -0.2025 -0.2601
 5862W        W22046   9.273  11.506  11.109 -0.0534 -0.2536  0.0320
 5863W        W22047   1.665   5.773   3.030  0.0521  0.0545 -0.2763
 5864W        W22048  17.191  15.692  15.343  0.0872  0.1397 -0.2654
 5865W        W22049  14.130   8.369  14.012 -0.2808  0.4664  0.1618
 5866W        W22050  11.230   2.480  13.488 -0.2752 -0.0443  0.1166
 5867W        W22051  13.510   2.836  13.496 -0.0946 -0.0624 -0.1531
 5868W        W22052  14.535  12.774  13.327  0.3534 -0.2830  0.2053
 5869W        W22053   7.779   8.214  15.518 -0.2428  0.1675  0.1732
 5870W        W22054  16.592  17.716  11.481  0.1662  0.0997  0.0105
 5871W        W22055   7.684  17.370  12.663 -0.2333  0.0159  0.0184
 5872W        W22056  10.905   5.206   1.290  0.1059 -0.0585 -0.0454
 5873W        W22057  12.573  12.261  15.191  0.1250  0.0122 -0.1340
 5874W        W22058   9.337  12.900   2.290 -0.1020 -0.0252 -0.0376
 5875W        W22059   2.806   6.777   1.768 -0.2070  0.1005  0.2045
 5876W        W22060   1.371  12.426   0.199  0.0691  0.0485 -0.0696
 5877W        W22061  10.665  11.484  11.571 -0.1167 -0.0511 -0.2035
 5878W        W22062  12.257  11.311   5.191 -0.1374 -0.0259  0.1018
 5879W        W22063  18.059  15.773  10.968 -0.2471  0.4326 -0.0510
 5880W        W22064  14.364   5.124   3.275  0.3685 -0.3196 -0.1344
 5881W        W22065   8.984   1.968   1.515  0.2993  0.2457 -0.4715
 5882W        W22066  15.639  12.124  14.310 -0.0928  0.4506 -0.0827
 5883W        W22067   4.447  11.251  14.191  0.1304 -0.0780  0.4062
 5884W        W22068   6.410   2.240  11.890  0.1243  0.2872  0.5340
 5885W        W22069   7.134  13.695  13.180  0.1834 -0.1717  0.2360
 5886W        W22070   3.257   7.982  14.901 -0.0470  0.3052 -0.2319
 5887W        W22071  11.370  13.055  12.189 -0.0236 -0.1669  0.0482
 5888W        W22072   6.344  13.086   5.495  0.1235  0.0889  0.2545
 5889W        W22073   6.560  12.823   4.972 -0.2822 -0.0273 -0.0594
 5890W        W22074   7.243   4.240  10.721  0.1678  0.1347 -0.0172
 5891W        W22075   1.485  11.690   4.795  0.2080 -0.0048  0.0280
 5892W        W22076   7.590  13.094  12.981  0.0559 -0.0649 -0.1719
 5893W        W22077   9.059  10.672  13.329 -0.1439 -0.2179 -0.3024
 5894W        W22078   1.909   1.600  10.872  0.0904 -0.0196  0.0506
 5895W        W22079   8.697  16.271  13.555 -0.2048 -0.0635  0.0733
 5896W        W22080  13.178   9.519   2.906  0.2762  0.0868 -0.2569
 5897W        W22081   8.914   1.609  13.458  0.0932 -0.0457  0.2403
 5898W        W22082  14.883   8.662   1.751 -0.0184  0.2991 -0.3442
 5899W        W22083   2.916   5.138  10.010 -0.4311  0.0682  0.3922
 5900W        W22084  13.072   8.463   1.587 -0.0771  0.2113  0.2021
 5901W        W22085   0.462  14.734  10.801  0.0010 -0.3370 -0.1724
 5902W        W22086   8.722  13.728   3.095  0.2694  0.0297 -0.0956
 5903W        W22087  15.793  12.205   2.064  0.1771  0.1703 -0.1786
 5904W        W22088  13.404  16.413  11.905  0.1001 -0.2770  0.0250
 5905W        W22089   4.885   0.698  10.951  0.1927  0.1293 -0.3663
 5906W        W22090  18.018   3.711   0.481 -0.2788  0.2471 -0.2030
 5907W        W22091  16.325   5.081   1.702  0.0045  0.2455 -0.1077
 5908W        W22092   4.521   4.596   3.358 -0.2263 -0.3213  0.1575
 5909W        W22093   7.162   2.963  14.295 -0.0646  0.0035 -0.1292
 5910W        W22094  10.267   5.383   2.987  0.0720 -0.0383  0.2796
 5911W        W22095   4.042   0.667   1.502 -0.0674 -0.0408 -0.0647
 5912W        W22096  10.252  10.673  15.095 -0.2226 -0.2535  0.0716
 5913W        W22097   8.226   7.742  13.958 -0.4088 -0.0870  0.2413
 5914W        W22098   2.564   3.717   0.747 -0.3099 -0.0413  0.1939
 5915W        W22099   0.438   6.834   4.256  0.1708 -0.1894 -0.4597
 5916W        W22100  13.061  10.615   1.497  0.1883 -0.0919 -0.0151
 5917W        W22101  10.076  15.724   4.482 -0.0441 -0.3597 -0.0374
 5918W        W22102   5.876   6.949   3.754 -0.5139 -0.3452  0.0992
 5919W        W22103   4.177  11.795   2.504  0.2383 -0.0569  0.3361
 5920W        W22104  18.839  11.105   0.387 -0.0358 -0.1734  0.0746
 5921W        W22105   5.559   3.058  10.628  0.0233  0.3344  0.0616
 5922W        W22106   8.721  14.557  12.287  0.0275 -0.1413  0.2494
 5923W        W22107   3.004  18.182   0.338  0.0439  0.0828 -0.1287
 5924W        W22108  15.078  12.188   1.528 -0.0521  0.2012 -0.0414
 5925W        W22109  11.962  17.064  12.746  0.0024 -0.0273  0.1239
 5926W        W22110   9.182  17.035   2.127 -0.3000  0.0958 -0.4878
 5927W        W22111   7.700  18.598  15.506 -0.2496  0.0060  0.2030
 5928W        W22112  18.512  14.978  12.803 -0.5843 -0.1976  0.0403
 5929W        W22113   7.680   6.778  14.795 -0.1117 -0.1049 -0.0339
 5930W        W22114   1.177  13.162  12.215 -0.2241  0.1354 -0.0998
 5931W        W22115  11.133  13.035  15.187  0.1160 -0.1523 -0.0975
 5932W        W22116  17.935   5.427  12.250 -0.0339  0.0618  0.1409
 5933W        W22117   7.535   0.935   1.096  0.4116 -0.0682  0.2582
 5934W        W22118   6.360   3.863   1.960 -0.1132 -0.1145 -0.0922
 5935W        W22119   2.497   5.495   2.337 -0.2769 -0.2201  0.1530
 5936W        W22120  10.591  15.185   2.875  0.0512 -0.0302  0.0074
 5937W        W22121   1.228   2.196   1.705  0.0697  0.0404 -0.4046
 5938W        W22122   4.794   0.314   4.161  0.3234  0.5125  0.0442
 5939W        W22123   6.652   9.871  11.550  0.2444 -0.1028 -0.0774
 5940W        W22124   7.711  12.563  12.795  0.2847  0.1137  0.1577
 5941W        W22125   4.888  12.712  11.212  0.2083  0.3945 -0.1667
 5942W        W22126   5.125  12.769   2.111  0.4652  0.2508  0.0746
 5943W        W22127   6.945  13.557  14.055 -0.0836 -0.1906  0.0619
 5944W        W22128  12.908  12.846   2.609 -0.1547  0.0666  0.1736
 5945W        W22129  11.024   7.018   4.073 -0.0041 -0.0504 -0.0475
 5946W        W22130   9.060  11.285   2.970 -0.2086 -0.1221  0.0938
 5947W        W22131  18.855  15.855  13.082 -0.0515  0.1692 -0.1330
 5948W        W22132  17.500  16.420  14.120  0.0461 -0.1878  0.1159
 5949W        W22133  18.752   6.833   2.590  0.0983  0.1674 -0.3379
 5950W        W22134  13.229   9.158  12.057  0.0494  0.2614  0.1438
 5951W        W22135  17.116  14.641  13.603 -0.3101 -0.2251 -0.1241
 5952W        W22136  13.367   6.718   2.031  0.1737  0.1436  0.2472
 5953W        W22137   5.299  16.503   3.379 -0.0706 -0.3255  0.2266
 5954W        W22138   8.754   9.588   0.766  0.0448  0.1869 -0.2892
 5955W        W22139   4.702   8.209  14.143 -0.1535 -0.1103  0.0507
 5956W        W22140  15.556   0.968   1.715  0.1956 -0.1759 -0.2602
 5957W        W22141   9.430  13.067   0.515 -0.1642  0.2456  0.2276
 5958W        W22142   2.607  12.790   3.358 -0.1434  0.3575 -0.0584
 5959W        W22143   6.681   5.488   2.802  0.1253 -0.2492 -0.1462
 5960W        W22144  18.132  16.899   3.744 -0.0163  0.2781  0.0967
 5961W        W22145   4.190  16.432   0.558  0.3764 -0.5669  0.2863
 5962W        W22146   4.570   0.359   0.517  0.1015 -0.0912 -0.0078
 5963W        W22147   0.901  10.957   2.841 -0.3106 -0.0238  0.0805
 5964W        W22148  17.885   0.423   5.596 -0.0695  0.1197 -0.3615
 5965W        W22149   0.603  15.086   4.234  0.0141  0.1073 -0.3081
 5966W        W22150   6.978   1.849   4.379 -0.0969  0.3510 -0.4656
 5967W        W22151   9.320  18.817   1.900  0.1225  0.2114  0.0136
 5968W        W22152  18.299  11.092   3.842 -0.0800 -0.0891  0.1008
 5969W        W22153  18.452   3.190   3.933  0.0951 -0.0425 -0.2463
 5970W        W22154   8.973  16.817  14.151 -0.1354  0.0894 -0.0719
 5971W        W22155  14.041  16.430  15.177  0.0204 -0.2773 -0.1394
 5972W        W22156   9.112  12.430   3.580 -0.0027  0.3184 -0.0800
 5973W        W22157   6.363   7.609   1.000  0.0095 -0.1921  0.0551
 5974W        W22158  10.044   0.104   2.630 -0.1146 -0.1830  0.0911
 5975W        W22159  10.550   6.222  11.025 -0.0073 -0.3483  0.1665
 5976W        W22160   8.729  16.212   5.100  0.1224  0.1653  0.0681
 5977W        W22161   2.465   2.743  13.674  0.1237 -0.3257  0.0574
 5978W        W22162  12.919  16.480  10.541  0.1841  0.3084  0.0792
 5979W        W22163   1.879   2.102  14.153 -0.1061 -0.0706  0.1389
 5980W        W22164  16.643   1.028   2.622  0.4423 -0.1797 -0.1610
 5981W        W22165   0.726  13.356  13.125 -0.1038 -0.1765  0.1124
 5982W        W22166   2.965   2.689   5.999 -0.1961  0.0278  0.0685
 5983W        W22167  16.267   5.595   3.649 -0.0854 -0.3615 -0.0354
 5984W        W22168   2.952  10.639   0.984  0.0921  0.2420  0.1616
 5985W        W22169  13.131   1.689   4.581 -0.1839  0.1437  0.0207
 5986W        W22170   8.202   9.496   3.189  0.1360  0.0125  0.1851
 5987W        W22171   9.358  18.150  14.016  0.0445  0.1367  0.0794
 5988W        W22172  15.396  14.956  12.074  0.0935  0.0614 -0.0807
 5989W        W22173  10.798  18.680   6.342  0.1539  0.3695  0.2066
 5990W        W22174   1.536  11.530  13.576 -0.3177 -0.1729  0.1657
 5991W        W22175  12.763   5.246  15.387 -0.0148  0.0744  0.3364
 5992W        W22176  16.285   9.388  13.211  0.0154  0.1918 -0.4145
 5993W        W22177   7.625   5.351  11.984 -0.3488 -0.3741  0.5048
 5994W        W22178  15.270  11.236  12.673  0.3309 -0.0076  0.2995
 5995W        W22179  14.121   7.881   5.753  0.0166  0.0986 -0.0547
 5996W        W22180  10.878   3.824  12.266 -0.1661  0.2895  0.2212
 5997W        W22181   4.797  14.532   3.944 -0.0580  0.0189  0.1506
 5998W        W22182  13.595   1.757   0.151 -0.0538  0.4646  0.0965
 5999W        W22183  10.450  10.975   3.459 -0.0581  0.1147  0.2299
 6000W        W22184   5.781   9.577  14.138  0.2358  0.0342 -0.3763
 6001W        W22185  15.078  18.573   2.947 -0.4469 -0.3144  0.0150
 6002W        W22186  12.826   2.446   4.459  0.1032  0.0481  0.3935
 6003W        W22187   9.365   0.852  14.191  0.1056  0.3065  0.0767
 6004W        W22188  14.083   9.711   1.792 -0.0737 -0.2133 -0.0397
 6005W        W22189  16.623   7.726   5.173  0.0986 -0.0861  0.0479
 6006W        W22190  16.293   4.669   2.048 -0.0853  0.1734 -0.2357
 6007W        W22191   7.215   5.764   3.547  0.1452  0.0064  0.0186
 6008W        W22192  14.997  12.579  13.468 -0.0415  0.0039  0.0194
 6009W        W22193   2.912   9.111  13.328 -0.1439 -0.2943 -0.1720
 6010W        W22194   6.210  15.297   1.020 -0.0468 -0.0152  0.0192
 6011W        W22195   9.076  11.057   3.646 -0.3277  0.1215 -0.1708
 6012W        W22196   7.471  11.058   2.396 -0.0526  0.0494  0.3734
 6013W        W22197   4.040   5.748   5.482 -0.1070 -0.1147  0.2964
 6014W        W22198   1.681   1.018   4.941 -0.1603  0.2858 -0.0267
 6015W        W22199   0.926   9.507   1.086 -0.0699 -0.0347  0.1088
 6016W        W22200   9.659  15.610   6.489  0.0954  0.0291  0.2517
 6017W        W22201   4.728  15.170   3.296 -0.2500  0.2466 -0.1370
 6018W        W22202   3.418   2.815   0.229 -0.1309 -0.1145 -0.1083
 6019W        W22203   2.941  13.043  14.408 -0.1328 -0.1348  0.4363
 6020W        W22204   2.840   3.562  13.147  0.0506 -0.0704 -0.1411
 6021W        W22205   4.416   9.511   2.715 -0.0410 -0.1023  0.1247
 6022W        W22206  15.590   9.968  15.324 -0.2692  0.1328  0.2107
 6023W        W22207  12.501   1.054   5.644 -0.2821  0.1069  0.0223
 6024W        W22208   3.489   9.914   0.110 -0.0451  0.2732 -0.0397
 6025W        W22209   7.579   5.864  13.188 -0.3095 -0.0297  0.1220
 6026W        W22210   7.826  10.208   3.453  0.0268 -0.0409 -0.2248
 6027W        W22211   6.841   5.574  15.301  0.1507  0.0097  0.4742
 6028W        W22212  11.894   1.287   2.258  0.2651 -0.1656  0.3897
 6029W        W22213  14.791  11.123   3.496 -0.3168 -0.2541 -0.2474
 6030W        W22214   6.713  14.494  13.109  0.2882  0.0236  0.0491
 6031W        W22215  11.799   3.539   0.752 -0.0612  0.1866 -0.0292
 6032W        W22216   5.672   8.450   4.658 -0.0426 -0.0967  0.0339
 6033W        W22217  18.451  14.524  11.922  0.7326  0.1267  0.0406
 6034W        W22218   2.013   6.372  13.461 -0.2479 -0.2778 -0.2296
 6035W        W22219   2.273   8.607  14.271  0.1394  0.0062 -0.1556
 6036W        W22220   5.007  13.334  12.129 -0.1660 -0.0245  0.1349
 6037W        W22221   9.902   7.020   2.093  0.1937 -0.2142  0.3150
 6038W        W22222   5.982  15.704   4.605 -0.2954 -0.0466 -0.2389
 6039W        W22223   5.277  12.444  14.645 -0.1312 -0.2508  0.3738
 6040W        W22224  17.940   4.545   2.921 -0.1141  0.0886  0.1221
 6041W        W22225   3.474  10.336  10.404 -0.0017  0.0257 -0.1612
 6042W        W22226   5.832   2.090  10.875 -0.1078  0.1901  0.0473
 6043W        W22227  15.376  10.875   1.886  0.1000 -0.2321 -0.0262
 6044W        W22228  14.009  10.218   1.541  0.1059  0.0944  0.1117
 6045W        W22229  14.420   3.324  11.838  0.3594 -0.0030 -0.1693
 6046W        W22230   5.379   3.361   4.263  0.1409 -0.2000 -0.0685
 6047W        W22231   1.609   3.487   4.086  0.0489  0.2422 -0.2027
 6048W        W22232   3.767   1.351   2.250 -0.0290 -0.1383 -0.0148
 6049W        W22233   1.471  10.791   3.803 -0.1094 -0.2351 -0.0863
 6050W        W22234  13.391  16.714  11.449  0.2113  0.0666  0.1909
 6051W        W22235   8.514  16.408  11.023  0.2976  0.1470 -0.0419
 6052W        W22236  16.415  18.783   3.463 -0.0855  0.1548  0.0589
 6053W        W22237   1.704  10.718  13.152 -0.2332  0.4910  0.2291
 6054W        W22238  16.817   3.606   2.738 -0.2052  0.1005  0.2266
 6055W        W22239  17.705  11.040   3.070  0.4068 -0.0770  0.1486
 6056W        W22240   1.634  15.657   0.854  0.0227 -0.1408 -0.2026
 6057W        W22241  12.963  16.311   2.470 -0.3156 -0.0654 -0.0222
 6058W        W22242  12.902   7.210   5.719 -0.0510  0.0217  0.0757
 6059W        W22243   2.811   9.536   5.402  0.0469  0.0792 -0.0203
 6060W        W22244  17.096   9.742  11.600 -0.1958  0.1123  0.0150
 6061W        W22245  16.454   5.094  12.371 -0.1809  0.0136 -0.0321
 6062W        W22246  15.854  11.754  10.545  0.2368 -0.0785 -0.0953
 6063W        W22247  13.367  10.407  11.159 -0.0655  0.0109 -0.0666
 6064W        W22248   8.882   1.977   0.210 -0.0344 -0.0645 -0.2955
 6065W        W22249   2.168   8.998  12.852  0.0956  0.0789 -0.1010
 6066W        W22250   6.447  18.490   1.729 -0.1345 -0.0237  0.1400
 6067W        W22251  13.802   2.766  11.546 -0.1093 -0.2997  0.1995
 6068W        W22252   7.926  15.012   4.115  0.2845  0.1722 -0.0640
 6069W        W22253   8.299  11.530   1.405  0.2747 -0.1609  0.0709
 6070W        W22254   0.600  16.432   4.210 -0.0422  0.0560  0.0198
 6071W        W22255   2.633   3.430   1.160  0.3889  0.1205 -0.0677
 6072W        W22256   2.984  14.583   0.247  0.4261 -0.2162 -0.1916
 6073W        W22257  10.773  14.009  13.975  0.1358  0.4881  0.4681
 6074W        W22258  16.149  15.502   3.601  0.1573  0.1501  0.0889
 6075W        W22259  14.057   5.694  12.021  0.1885 -0.0673 -0.0458
 6076W        W22260   4.523  12.696   1.048  0.3686 -0.0429 -0.0968
 6077W        W22261  17.494  16.495  15.071  0.1368 -0.0422  0.1223
 6078W        W22262  11.070  12.950   4.729  0.3044 -0.4840 -0.0112
 6079W        W22263   9.033   9.542  14.391  0.0154 -0.1556  0.1560
 6080W        W22264  15.652  12.754   3.171  0.1877  0.1138 -0.1632
 6081W        W22265  16.797   5.150   1.807  0.0869 -0.3442  0.3861
 6082W        W22266  15.724  11.659   2.157 -0.1532 -0.1495  0.1752
 6083W        W22267   5.014  15.154   2.805 -0.0664 -0.3088  0.0392
 6084W        W22268   7.739   9.836   2.499 -0.0665  0.0399 -0.2570
 6085W        W22269  14.368  17.211   3.696 -0.0763  0.0227 -0.1899
 6086W        W22270  14.401   2.463   1.652 -0.2792  0.0925 -0.0385
 6087W        W22271   4.819   4.201  14.902 -0.0628 -0.0232 -0.3005
 6088W        W22272   1.127  13.020  13.295 -0.0200  0.0297 -0.0019
 6089W        W22273  15.501   9.668   3.653 -0.1419 -0.1618  0.2235
 6090W        W22274  10.408   3.776  12.400  0.2261  0.1833 -0.1110
 6091W        W22275  18.242   5.543   2.329 -0.1434 -0.3439 -0.0769
 6092W        W22276   9.765   0.475   4.061  0.2225 -0.0603  0.0553
 6093W        W22277   0.189   8.802   6.315 -0.1605 -0.0876  0.0391
 6094W        W22278  13.078   2.246   2.562  0.4540  0.1217  0.0024
 6095W        W22279   4.825   6.509  14.275  0.0137  0.2638  0.4371
 6096W        W22280   6.415   9.172   4.686  0.0090  0.0294  0.0638
 6097W        W22281   7.255  17.162  11.790 -0.2376  0.4029  0.1547
 6098W        W22282   6.532   9.523   1.788  0.1772 -0.0117  0.1679
 6099W        W22283   8.417   6.906  12.635  0.0547  0.1707 -0.0565
 6100W        W22284   0.175  10.226   2.488  0.1445 -0.1622 -0.0228
 6101W        W22285  18.660  17.115  11.249  0.0982  0.0775  0.0599
 6102W        W22286   0.352  15.257   1.233  0.2453 -0.0163 -0.1091
 6103W        W22287  16.024   3.177  11.127  0.1080 -0.0991  0.0379
 6104W        W22288  12.374   6.651   2.576 -0.0633  0.3604  0.2427
 6105W        W22289   7.701   3.258   4.122 -0.1408 -0.0527 -0.1990
 6106W        W22290   8.387   1.322  13.014  0.1796  0.1643  0.0914
 6107W        W22291   9.835  18.210  13.097  0.0450 -0.0914  0.1675
 6108W        W22292  18.797  18.506  10.828 -0.1727  0.0729 -0.1441
 6109W        W22293  10.426  11.982  10.950 -0.2400 -0.0541 -0.0693
 6110W        W22294   5.557  10.297  11.597  0.1893 -0.1890  0.1391
 6111W        W22295  15.095   7.062   5.897  0.0657  0.2513 -0.0066
 6112W        W22296   4.176  10.785  14.169  0.3119 -0.3334  0.1611
 6113W        W22297  12.419   2.340   5.430  0.3358 -0.1887 -0.0435
 6114W        W22298   2.594   8.635  12.559 -0.0114  0.0976  0.0064
 6115W        W22299  10.433  16.398  13.188 -0.1936  0.1648 -0.0659
 6116W        W22300  10.957  12.599   1.425 -0.0461  0.4497  0.1227
 6117W        W22301   6.165  13.319   2.892  0.1293  0.2392  0.2897
 6118W        W22302   2.846   1.024  14.183 -0.0539 -0.0566  0.3121
 6119W        W22303   8.751   2.765   2.712  0.2462 -0.0660 -0.0310
 6120W        W22304   4.347   5.953   3.826 -0.2484 -0.0598 -0.0343
 6121W        W22305  15.936   3.747  12.438  0.2658 -0.0232  0.2624
 6122W        W22306   4.940   2.120  11.395 -0.1560  0.1571  0.2077
 6123W        W22307   5.243   4.405  11.247 -0.0281  0.0413 -0.0676
 6124W        W22308   7.177  17.273   3.219 -0.4118 -0.0466 -0.2193
 6125W        W22309   8.340  11.049   4.051 -0.0628  0.0877 -0.2726
 6126W        W22310  11.671   6.828   0.349 -0.1062 -0.2494 -0.0381
 6127W        W22311   6.256   2.630  12.626  0.0626  0.2870 -0.3534
 6128W        W22312   2.545   8.456  11.485 -0.1139  0.2451  0.0490
 6129W        W22313  15.282   1.225  13.977 -0.0258  0.1333 -0.0191
 6130W        W22314  11.173  10.437  14.508 -0.1575  0.0534  0.3851
 6131W        W22315   9.040  16.898   0.595  0.0882  0.2015 -0.0479
 6132W        W22316   3.544  12.776  13.621 -0.2166  0.1247 -0.0283
 6133W        W22317  15.466  10.452   0.035 -0.1457 -0.3705  0.1780
 6134W        W22318  16.606  16.512  15.329 -0.0873  0.3782 -0.0130
 6135W        W22319  13.589   1.848   4.640 -0.1865 -0.1242  0.4277
 6136W        W22320  15.169  14.397   5.698  0.0053 -0.0635 -0.1439
 6137W        W22321   4.932  10.689   0.524 -0.1572  0.0362  0.2064
 6138W        W22322  16.768   3.901  10.988 -0.0547  0.1116  0.2172
 6139W        W22323   4.279  16.325  14.940  0.2940 -0.0073 -0.4658
 6140W        W22324  17.023   5.795   1.963  0.0078 -0.0511  0.0881
 6141W        W22325  12.504  17.648   0.825  0.1922  0.1846  0.1669
 6142W        W22326   4.618   6.786   1.999 -0.2673  0.3051 -0.2347
 6143W        W22327   2.116   8.529   0.271 -0.2484  0.0458 -0.1288
 6144W        W22328   1.195   7.661   0.253  0.1866 -0.2978  0.1400
 6145W        W22329  17.137  18.471  12.275 -0.1219  0.0126  0.1438
 6146W        W22330  16.152   4.661   4.706  0.0800  0.3030 -0.1411
 6147W        W22331   3.672  17.639   3.610  0.0483  0.0787  0.0431
 6148W        W22332  17.952  14.059  10.979 -0.0399  0.1342 -0.0399
 6149W        W22333  16.208  15.171   2.053  0.1810  0.0346  0.3478
 6150W        W22334   0.337  14.102   0.960  0.2017  0.1885 -0.0460
 6151W        W22335  17.357   5.099   5.211 -0.0271  0.0427  0.1254
 6152W        W22336   7.429  15.416   5.052 -0.2176  0.0181 -0.0637
 6153W        W22337   1.321   9.977   3.237 -0.1934 -0.1401  0.0959
 6154W        W22338   4.096  11.651  14.084 -0.5001 -0.0728  0.0495
 6155W        W22339  17.589   2.925   9.551 -0.0803  0.0509  0.1236
 6156W        W22340  12.528  15.418  13.795 -0.1518  0.0736  0.0380
 6157W        W22341  16.749  15.177  12.416 -0.2929 -0.1188  0.0914
 6158W        W22342   3.685   7.892  14.619 -0.4281  0.2387 -0.0729
 6159W        W22343  14.683  13.479  12.464 -0.2402 -0.3123  0.2146
 6160W        W22344   9.690   2.753   1.649 -0.3485 -0.0061  0.2232
 6161W        W22345   2.810   2.086   4.850 -0.0767 -0.1363  0.0018
 6162W        W22346   7.664  16.753  11.841 -0.0146  0.2933 -0.2345
 6163W        W22347   6.617  10.915  13.235 -0.0972  0.4760  0.1084
 6164W        W22348   0.801  14.279   1.051  0.2443  0.0119  0.3170
 6165W        W22349  18.788   2.825   3.139  0.1863  0.1418 -0.0792
 6166W        W22350   8.209   3.433   3.188 -0.0454 -0.1162 -0.1865
 6167W        W22351  16.890  13.720   4.051  0.0939 -0.2491 -0.0640
 6168W        W22352   2.554  18.183  12.899  0.0872  0.1054 -0.1201
 6169W        W22353   2.513  16.464   0.274  0.2085  0.4663 -0.2618
 6170W        W22354   4.777   0.763   5.367 -0.1998  0.1581  0.1969
 6171W        W22355  15.926   4.309  14.103  0.1274  0.1537  0.0906
 6172W        W22356  14.781   5.037   5.200  0.1394  0.1030 -0.0483
 6173W        W22357   8.560   3.155  10.339 -0.4853 -0.0901 -0.1031
 6174W        W22358  18.215   1.370  15.454 -0.2149 -0.3080  0.0327
 6175W        W22359  15.810  11.760   1.533  0.5214  0.3409  0.0271
 6176W        W22360   5.696  13.181   0.201 -0.0342 -0.0643  0.2723
 6177W        W22361   4.159   1.448  14.587  0.0293 -0.1165  0.0197
 6178W        W22362  13.536   1.683  13.968 -0.0071  0.2247  0.0587
 6179W        W22363  10.850  17.060  12.811  0.2907  0.0120  0.0774
 6180W        W22364  14.973   8.745  13.373 -0.1101  0.0856 -0.3006
 6181W        W22365   3.238  10.285   3.286 -0.0998  0.1363  0.0019
 6182W        W22366  11.810  17.379  12.415  0.1591 -0.1147  0.1252
 6183W        W22367   6.323  16.199  14.680 -0.0406 -0.1767 -0.0896
 6184W        W22368   1.079   7.357   1.945  0.0248 -0.0821  0.0891
 6185W        W22369   1.456  13.078  11.185  0.3996 -0.1274  0.0053
 6186W        W22370  16.650   4.549  13.384  0.3187 -0.1710  0.0981
 6187W        W22371   5.295  15.087   4.108 -0.2796  0.2437  0.2494
 6188W        W22372  11.917   7.172   3.301 -0.2514 -0.0522 -0.0819
 6189W        W22373   2.967  14.839   3.163  0.0428 -0.2516  0.0663
 6190W        W22374  18.815   4.058  15.091  0.1664 -0.0702  0.1933
 6191W        W22375  15.562  10.833   0.792  0.1721  0.0037 -0.3447
 6192W        W22376  14.967  10.030  11.571 -0.0025  0.1813 -0.2290
 6193W        W22377   5.695  10.993  12.812 -0.1372 -0.0747 -0.3249
 6194W        W22378  13.717   5.606   3.431 -0.0154  0.1119 -0.0297
 6195W        W22379   9.090  13.913   0.809 -0.1306 -0.2770  0.1065
 6196W        W22380   0.284   1.578  11.988  0.1079  0.0721  0.1508
 6197W        W22381   8.460  11.074   1.150  0.2345 -0.0219 -0.1891
 6198W        W22382   7.501  18.188   4.028  0.0040 -0.0650 -0.1907
 6199W        W22383  14.482  13.482   4.386 -0.1611  0.1403 -0.1692
 6200W        W22384   1.033  16.427  11.824 -0.1150 -0.0397 -0.1121
 6201W        W22385  16.090  15.976   5.252  0.1953 -0.0250 -0.4872
 6202W        W22386   6.938  15.943  11.881  0.0921 -0.4002  0.2971
 6203W        W22387  11.831  14.503   2.101  0.2866  0.0415  0.1183
 6204W        W22388   3.867   3.123  11.335 -0.1158 -0.0138 -0.0743
 6205W        W22389  16.884  18.519   3.758 -0.1760 -0.0835 -0.2474
 6206W        W22390  14.531  17.422  11.220 -0.2349 -0.0046  0.0990
 6207W        W22391   2.983  15.744   2.759  0.0464  0.0376 -0.0748
 6208W        W22392   6.868   5.146  12.399 -0.2060  0.1948  0.2524
 6209W        W22393  12.047   0.502   5.201  0.1000  0.1925 -0.5919
 6210W        W22394  14.065  13.125   0.116  0.3008  0.0158  0.0278
 6211W        W22395  18.273  13.367  13.542 -0.3124 -0.3900  0.0257
 6212W        W22396  16.547  17.011  14.576  0.4126 -0.0083 -0.2093
 6213W        W22397   7.758  18.108   2.469 -0.3212 -0.0563 -0.0906
 6214W        W22398  17.489  10.951   0.829  0.0530 -0.2023 -0.0907
 6215W        W22399   1.023   3.398  13.157  0.0937  0.0877  0.0585
 6216W        W22400  18.726  11.165  11.029 -0.2550  0.0966 -0.0168
 6217W        W22401   8.484  18.007   3.567 -0.3785 -0.0825 -0.0643
 6218W        W22402   7.485   0.665   2.040  0.3971  0.0501 -0.1357
 6219W        W22403   9.149   1.239   4.668 -0.1607 -0.1168 -0.2335
 6220W        W22404   3.749  15.189   1.590 -0.1991 -0.3420  0.1078
 6221W        W22405  16.958   2.917  14.895 -0.2816 -0.2346 -0.0018
 6222W        W22406   1.138   5.765   5.317 -0.1736  0.0545  0.1489
 6223W        W22407   8.822  17.420  13.663  0.2435 -0.0714  0.0026
 6224W        W22408  17.847   7.565  10.126 -0.2595 -0.3307  0.0442
 6225W        W22409  10.461   1.123   4.171  0.1455 -0.0467  0.4265
 6226W        W22410  11.211   5.239   5.269  0.1633  0.0342  0.1026
 6227W        W22411   2.085  14.444   4.378  0.0864  0.1850  0.1768
 6228W        W22412  12.361  14.636   0.400  0.1584  0.0531 -0.1340
 6229W        W22413  12.780  18.619   2.278 -0.1768 -0.1394  0.2650
 6230W        W22414  14.075   3.937  14.739  0.0348 -0.2357  0.0158
 6231W        W22415   1.570  11.180   5.748 -0.4322 -0.0482 -0.0214
 6232W        W22416   2.750   2.320   1.913 -0.0722  0.2013 -0.2057
 6233W        W22417  15.633  15.261  13.557 -0.0907  0.1790  0.2056
 6234W        W22418  17.448   7.650  11.033 -0.0647  0.2340 -0.0756
 6235W        W22419  10.292  11.702  13.992  0.2277 -0.0347  0.2264
 6236W        W22420   1.138  15.433  14.686 -0.0187 -0.1630  0.1649
 6237W        W22421  12.387   1.840   2.295 -0.0392  0.0637 -0.0958
 6238W        W22422  13.163  17.513   0.257 -0.0739 -0.2701  0.3622
 6239W        W22423  12.122  11.153   4.699  0.0457  0.0957  0.3582
 6240W        W22424   1.069  10.409   3.071  0.2285  0.1276 -0.1124
 6241W        W22425   6.702   3.088   0.838  0.2280  0.1116  0.1349
 6242W        W22426   3.622  13.478  12.730 -0.0674  0.0352 -0.1405
 6243W        W22427   1.741  15.412   6.046  0.0458  0.0985  0.1328
 6244W        W22428  13.944   3.359  10.787  0.0411 -0.2351  0.2244
 6245W        W22429  11.077   0.904  10.811  0.1262 -0.1541  0.0468
 6246W        W22430   2.378   7.316   4.476 -0.2323 -0.2719  0.0618
 6247W        W22431  17.698   1.520  13.293 -0.1044  0.1762 -0.0280
 6248W        W22432   1.972  17.626   1.342  0.3599  0.2095 -0.2587
 6249W        W22433  16.508   5.293   4.002 -0.1697  0.1410  0.3024
 6250W        W22434  16.821   1.876   5.008  0.3440  0.2747 -0.0749
 6251W        W22435   2.860  11.854  14.171  0.1455 -0.0684  0.0039
 6252W        W22436  16.157   7.675  13.613  0.3087  0.2625  0.1231
 6253W        W22437  13.751   9.642   0.964 -0.4211 -0.0385 -0.1168
 6254W        W22438   7.387   9.110   4.732  0.2027 -0.0167  0.0673
 6255W        W22439  12.581  18.644   5.485 -0.2591  0.1436  0.0873
 6256W        W22440   4.943   8.954  11.254 -0.1024 -0.4698 -0.3393
 6257W        W22441  10.481   1.727   3.425  0.2652  0.2087 -0.3543
 6258W        W22442  15.123   2.372   3.682  0.1962  0.1264  0.1695
 6259W        W22443   1.680   5.020  12.748  0.1231 -0.0574 -0.3989
 6260W        W22444   4.222  16.741  13.228 -0.0214 -0.0075 -0.0213
 6261W        W22445   2.600   0.965  14.628  0.0580  0.5037 -0.0056
 6262W        W22446   6.146   5.550  13.507  0.1153 -0.1961  0.0586
 6263W        W22447   5.354   3.202   2.141  0.1093  0.2247 -0.1254
 6264W        W22448  12.970  17.562  13.297 -0.1801  0.2036 -0.0126
 6265W        W22449  18.653  16.038  12.466 -0.0273 -0.0476 -0.0056
 6266W        W22450   1.649   5.851  13.853  0.0726  0.1768  0.0382
 6267W        W22451   0.735   1.816   5.347 -0.1061  0.0811 -0.0970
 6268W        W22452   3.919  11.949   1.089  0.1447  0.1638 -0.1996
 6269W        W22453   4.171  15.788  11.906  0.0987 -0.1597  0.0231
 6270W        W22454   0.225   9.200  11.823  0.1393 -0.0665  0.0499
 6271W        W22455   5.201   3.274   3.198 -0.1662  0.0011 -0.3545
 6272W        W22456   0.890   0.995  10.511  0.0679  0.4758  0.4040
 6273W        W22457  14.074   6.221  11.807 -0.0372 -0.0523  0.0389
 6274W        W22458   7.737  14.834   5.550  0.0930  0.0806  0.1029
 6275W        W22459  14.474  16.044   2.204 -0.0257 -0.1209  0.1211
 6276W        W22460   0.299  14.862   4.513  0.1764  0.1723 -0.2343
 6277W        W22461   8.627  18.826   0.361  0.0703 -0.1220 -0.2303
 6278W        W22462   6.293  11.636   4.471 -0.2197  0.0007  0.0306
 6279W        W22463   3.147   4.090   3.161  0.2702  0.2362  0.1860
 6280W        W22464  12.783  15.128   0.833  0.0887  0.1112  0.0924
 6281W        W22465   7.509  16.173  11.827 -0.0919 -0.1522 -0.0865
 6282W        W22466  14.963   5.487   4.481 -0.3009  0.0794 -0.0343
 6283W        W22467   7.139  13.569   6.018  0.0063 -0.2526  0.0650
 6284W        W22468   3.930   8.802  14.443 -0.0178  0.1258 -0.0958
 6285W        W22469  17.466   6.800  15.213  0.0001  0.0030  0.0947
 6286W        W22470   2.530  17.959   2.118 -0.0051 -0.3500 -0.1524
 6287W        W22471   3.102   4.066   4.125  0.2902  0.2251  0.3122
 6288W        W22472  16.131  14.972   1.608  0.0432  0.1575 -0.1829
 6289W        W22473   1.611  15.255  11.114 -0.1679  0.0693 -0.1782
 6290W        W22474   8.062   9.621   1.462  0.1057 -0.4122 -0.1063
 6291W        W22475   4.085   8.974   0.982 -0.1891  0.0069 -0.0836
 6292W        W22476   2.757   8.142  13.572  0.0824 -0.1662  0.2739
 6293W        W22477   7.846  12.279  13.163  0.0083 -0.1104 -0.1147
 6294W        W22478   8.092  10.556   3.996  0.1932  0.1202 -0.0053
 6295W        W22479  17.700   7.920   2.882  0.4210 -0.1415  0.0753
 6296W        W22480  12.528  17.328  10.659 -0.0597 -0.1640 -0.1188
 6297W        W22481   0.512  18.151  13.005 -0.0214  0.2293 -0.0183
 6298W        W22482   9.326   1.207  10.838  0.1529  0.0943  0.2220
 6299W        W22483  17.364  12.955   3.078 -0.1007  0.0529  0.0511
 6300W        W22484   8.889   0.887   1.553 -0.1038  0.2137 -0.2913
 6301W        W22485  16.380   0.978   1.820 -0.0111 -0.2680 -0.1234
 6302W        W22486  10.890  15.727   1.299  0.5820 -0.0602  0.0526
 6303W        W22487  15.977  10.461   1.441  0.3611  0.1541 -0.1973
 6304W        W22488  11.698   0.840   2.438  0.1189  0.2977 -0.1374
 6305W        W22489  11.911   0.349  13.814  0.3691  0.0699 -0.0234
 6306W        W22490  11.571  12.408  14.292  0.2978 -0.4348  0.0802
 6307W        W22491   2.083  13.354  13.623 -0.3213 -0.2407 -0.3281
 6308W        W22492  14.914  16.401   4.560 -0.0204  0.0027  0.0590
 6309W        W22493  17.886   4.344  14.167  0.0031 -0.0980  0.2216
 6310W        W22494  14.686   3.382  12.313 -0.0586  0.2144 -0.0210
 6311W        W22495   1.691   9.933   1.419 -0.1288 -0.0136  0.1549
 6312W        W22496   9.988   8.283  13.158  0.0650  0.4551  0.1010
 6313W        W22497   7.299  10.350  11.790  0.1443  0.1539 -0.3061
 6314W        W22498   3.984   1.053   3.342 -0.1685 -0.0431 -0.3694
 6315W        W22499  12.256   0.748  10.402  0.0593 -0.2693  0.3097
 6316W        W22500  12.620  11.139   2.728  0.1835  0.0147  0.1652
 6317W        W22501   3.061   4.144  11.353 -0.0631  0.0065 -0.2525
 6318W        W22502  14.166   1.893  11.118 -0.0486 -0.0560 -0.0277
 6319W        W22503   8.379   6.944   4.986  0.0248  0.4684 -0.0554
 6320W        W22504   6.951   2.746  11.977  0.2347  0.0523 -0.2521
 6321W        W22505  16.476  14.691  11.555  0.0777 -0.3801 -0.1673
 6322W        W22506   0.403   6.519  10.827 -0.0657  0.1905 -0.0209
 6323W        W22507  16.860   1.850   1.696  0.0606 -0.1259 -0.0567
 6324W        W22508   0.711   2.757   4.788  0.1955  0.0718  0.1299
 6325W        W22509   6.937   2.238   1.689  0.0985 -0.0662 -0.1634
 6326W        W22510  15.772  12.154  10.297 -0.1706 -0.0952  0.0794
 6327W        W22511  13.309  14.333   4.520  0.1804 -0.0599  0.4358
 6328W        W22512   9.197   3.261   1.846  0.1807 -0.0859  0.1348
 6329W        W22513   1.709   3.223  13.826  0.0546 -0.1097  0.0322
 6330W        W22514   2.065  12.978   3.529 -0.2234 -0.1703 -0.0133
 6331W        W22515  14.204  15.428   4.735 -0.0341  0.0955 -0.0160
 6332W        W22516   3.039  11.512  13.774  0.5557 -0.1048 -0.0970
 6333W        W22517  16.960   7.849   4.147  0.6260  0.1629  0.3201
 6334W        W22518   6.783   2.159  13.970 -0.0991 -0.0315  0.3512
 6335W        W22519  12.583  10.606   0.468 -0.3468 -0.3520  0.0156
 6336W        W22520   0.620   7.528  15.193  0.1067  0.2516  0.0334
 6337W        W22521   6.394   2.437   3.948 -0.0818 -0.0174  0.1436
 6338W        W22522  16.863   5.168   0.615 -0.0326  0.0030  0.4165
 6339W        W22523  10.167  14.210   3.377 -0.2682  0.1116  0.2170
 6340W        W22524  15.808   5.011  14.350 -0.0048 -0.2278  0.2430
 6341W        W22525  11.835   2.400   4.507 -0.0217 -0.0704 -0.0974
 6342W        W22526   4.994   6.204   4.144  0.1954 -0.1727  0.4882
 6343W        W22527  17.438  14.578  13.132  0.1203  0.0739  0.0885
 6344W        W22528  13.647   9.070  15.113  0.0607 -0.1010  0.0408
 6345W        W22529   5.558   4.066  12.774 -0.0755  0.1693 -0.2219
 6346W        W22530   1.843  10.874   2.267 -0.1442 -0.0511  0.1512
 6347W        W22531  13.705   1.546   2.361  0.0435 -0.2522  0.1923
 6348W        W22532  11.967   8.016   2.767  0.2085 -0.2294  0.2812
 6349W        W22533  18.287   0.287  13.275 -0.1614 -0.1626 -0.0170
 6350W        W22534  13.678   1.153  12.890 -0.1399 -0.0256  0.0055
 6351W        W22535  17.347  10.395   1.468  0.0380  0.5856  0.2122
 6352W        W22536  17.198   7.765   2.581 -0.0899  0.1132  0.1740
 6353W        W22537  10.362  15.439   5.761  0.1601 -0.0140 -0.1895
 6354W        W22538  11.444  14.559   1.668 -0.1426 -0.0495 -0.0104
 6355W        W22539  17.475   8.949   3.743 -0.0219 -0.3493 -0.0186
 6356W        W22540  13.321  12.913  11.381  0.0210  0.0064 -0.1679
 6357W        W22541  12.432   2.194   4.854  0.2276  0.1266  0.2597
 6358W        W22542  14.591  14.736   1.420  0.0340  0.1993 -0.2357
 6359W        W22543  18.021  15.304  13.360  0.0544  0.1606  0.0656
 6360W        W22544  15.331   8.596  12.403  0.1819 -0.0277 -0.0091
 6361W        W22545  18.757   3.075   0.752 -0.0355 -0.2917 -0.1004
 6362W        W22546  12.456  11.551   3.067 -0.3009 -0.0711 -0.0345
 6363W        W22547   6.069   8.667  11.341 -0.0560  0.1515  0.0962
 6364W        W22548  17.562  17.773   4.512  0.2128  0.1133 -0.3617
 6365W        W22549   7.260   9.927  12.207  0.3139 -0.0347 -0.2262
 6366W        W22550   3.061  17.321  13.899  0.0148  0.0790  0.1453
 6367W        W22551   9.647  10.850  10.327 -0.0903 -0.0808  0.2229
 6368W        W22552  18.014   4.961   3.955  0.1325 -0.1442 -0.1943
 6369W        W22553  10.157  14.484   1.252 -0.3957 -0.1500 -0.2146
 6370W        W22554  10.862  10.213   2.626  0.1264 -0.4621 -0.0746
 6371W        W22555   4.922  14.251   5.447  0.0760 -0.3754 -0.0007
 6372W        W22556   2.737  13.029   2.947 -0.3275 -0.1770 -0.0757
 6373W        W22557   7.778  15.271   0.998 -0.2678  0.0395 -0.2265
 6374W        W22558  11.320   4.432  13.705 -0.1272  0.2030  0.0143
 6375W        W22559   9.213   2.890   1.473  0.0681 -0.1090  0.0398
 6376W        W22560   4.512  18.244  10.875  0.2990  0.0074 -0.2980
 6377W        W22561   2.710  18.599  14.278 -0.0497  0.2936 -0.0453
 6378W        W22562  12.828   4.083   3.075  0.0917 -0.0617 -0.1581
 6379W        W22563  14.149  15.160  15.177  0.0981  0.2115  0.0903
 6380W        W22564  18.116   6.598   3.070  0.0928 -0.0311  0.1793
 6381W        W22565   4.009  10.103   0.036 -0.1959  0.1164  0.0482
 6382W        W22566  10.985  16.742  14.563  0.0605 -0.2766  0.1281
 6383W        W22567   9.555  11.395  10.363  0.1459 -0.1549  0.0685
 6384W        W22568   8.479   9.193   1.444  0.3867 -0.1524  0.0788
 6385W        W22569   7.235   6.297   0.814  0.0063  0.0510  0.1924
 6386W        W22570   8.745  10.921  14.179 -0.0039  0.2227 -0.2471
 6387W        W22571   3.659   0.724   1.119  0.1743  0.0245  0.0238
 6388W        W22572  12.382  10.373   3.612  0.1455  0.1005  0.1915
 6389W        W22573   2.472  12.048  11.317  0.0411  0.2006 -0.0899
 6390W        W22574  11.611  11.038  11.275 -0.3283 -0.1062  0.1784
 6391W        W22575  17.220   0.032  10.873  0.0309  0.1902  0.0880
 6392W        W22576  15.885   3.306   4.454  0.0401 -0.0828 -0.1978
 6393W        W22577   1.309  17.879   1.061 -0.0042  0.3236  0.3132
 6394W        W22578   7.547  17.448  15.302 -0.0576  0.1076  0.1578
 6395W        W22579  12.581  13.625  14.623 -0.0692  0.0016  0.2169
 6396W        W22580   2.372  13.763   5.803  0.0462  0.2162 -0.1763
 6397W        W22581   4.126   6.904  11.817  0.0076 -0.0350  0.1310
 6398W        W22582   4.999  13.403   0.384 -0.3387  0.0555  0.2270
 6399W        W22583   5.399   2.890   0.559 -0.2562 -0.0417  0.0472
 6400W        W22584  12.004  17.419   3.255 -0.2182  0.1944 -0.0603
 6401W        W22585  18.154   5.734   0.809 -0.1182  0.1084 -0.0682
 6402W        W22586  14.473   9.736  14.087 -0.1608  0.3768 -0.2210
 6403W        W22587   7.122  10.262  15.533  0.0790  0.0926 -0.1953
 6404W        W22588   1.801  16.077   9.804 -0.0411  0.1974  0.2086
 6405W        W22589   3.963   7.980  12.819  0.2668 -0.1120  0.1016
 6406W        W22590  14.547  11.080   1.030 -0.3677 -0.1156 -0.0367
 6407W        W22591   7.665  10.057   1.682 -0.0919 -0.3423 -0.1394
 6408W        W22592   1.681   4.151  14.615  0.0930  0.2448  0.2153
 6409W        W22593   6.721  18.061  13.085 -0.1706 -0.1023 -0.2006
 6410W        W22594  12.413   8.460  14.678  0.0992 -0.1853 -0.2772
 6411W        W22595   8.443  15.562   1.001  0.1865  0.1561 -0.1287
 6412W        W22596  13.182   2.278  12.577 -0.2035  0.0661 -0.3365
 6413W        W22597   4.217   4.070   4.079 -0.0784  0.0070  0.1152
 6414W        W22598   4.897  15.155  15.146  0.1218 -0.0317  0.1450
 6415W        W22599  16.867   1.118  12.581 -0.0564  0.2274  0.0707
 6416W        W22600   9.234   5.159   2.159 -0.1656 -0.1693  0.0250
 6417W        W22601   3.670   6.978  12.867  0.2443 -0.0298 -0.0852
 6418W        W22602  17.904  15.798  13.443 -0.1592  0.2617  0.3408
 6419W        W22603   3.900   5.844  15.251 -0.1910 -0.0673  0.2385
 6420W        W22604   0.932   4.399  11.583  0.4103  0.1593  0.0801
 6421W        W22605  11.984  10.771  11.495  0.1185 -0.0677 -0.0068
 6422W        W22606   8.922   0.990   0.390  0.1764  0.0201 -0.0992
 6423W        W22607   0.467  15.166  12.877  0.1463  0.1171 -0.0356
 6424W        W22608   7.597   2.770  12.961  0.0156  0.1231 -0.0110
 6425W        W22609  13.011  15.551  12.091  0.1133 -0.3329 -0.1012
 6426W        W22610  15.680   9.163  13.945 -0.5916 -0.3384  0.1806
 6427W        W22611   4.254   7.909   2.589  0.0862  0.1206  0.0231
 6428W        W22612   3.541  12.876   4.084  0.3544  0.0776 -0.2089
 6429W        W22613  16.076  13.329  10.874  0.0572  0.1092 -0.1377
 6430W        W22614   5.865   9.775   4.879  0.1174 -0.2348 -0.2090
 6431W        W22615   7.563  11.475   0.099  0.2824  0.0980 -0.0231
 6432W        W22616  18.142  12.234   3.192 -0.1219  0.4021  0.0017
 6433W        W22617  11.670   3.384  14.210  0.0935 -0.0826 -0.2319
 6434W        W22618   4.539   7.765   2.069 -0.1655  0.1679  0.2796
 6435W        W22619  15.906   9.851   0.854  0.0332  0.0396 -0.2750
 6436W        W22620   8.687   4.140  12.197 -0.4009  0.1792 -0.0455
 6437W        W22621   9.010  11.686   0.136  0.2754 -0.0805 -0.2477
 6438W        W22622  12.971  15.600   2.790  0.1369 -0.4767  0.1156
 6439W        W22623   0.379   1.480   3.080  0.0754 -0.2317 -0.3088
 6440W        W22624  15.444   4.402   0.952 -0.1497  0.2034  0.1071
 6441W        W22625  17.555  12.891  13.409  0.2237  0.2225 -0.0422
 6442W        W22626  10.060   2.480   5.101 -0.1272  0.1288  0.0969
 6443W        W22627   2.287  12.588  12.261 -0.1564  0.0833 -0.0697
 6444W        W22628  17.954   1.483   3.816 -0.0245  0.1184 -0.0631
 6445W        W22629   7.036  12.614  12.065 -0.0034  0.1770 -0.1760
 6446W        W22630   2.241  14.469  13.551 -0.1437  0.1080 -0.0937
 6447W        W22631   3.936   2.451  13.327 -0.0596  0.4391  0.0610
 6448W        W22632  14.117  13.643   3.331 -0.0674 -0.1523  0.0275
 6449W        W22633   4.137   7.100   0.010  0.0870  0.0485 -0.0376
 6450W        W22634  11.820   7.841   4.865 -0.0882 -0.0317 -0.0956
 6451W        W22635   3.861  11.101  13.915  0.1800  0.3206 -0.1205
 6452W        W22636   8.617   8.999  15.046  0.2481  0.0702  0.0566
 6453W        W22637  18.397   4.683   3.167 -0.0289  0.0323  0.1783
 6454W        W22638  17.330   8.299   1.263 -0.0048  0.4066 -0.1493
 6455W        W22639   5.275  11.067   0.665 -0.0572 -0.1001  0.2525
 6456W        W22640   1.121  18.691  14.033 -0.1151  0.1774 -0.1976
 6457W        W22641   5.666  12.836  12.662 -0.3294 -0.0103 -0.0916
 6458W        W22642  16.842   9.575   4.831  0.1237 -0.2481  0.1227
 6459W        W22643   2.236  11.535   0.182  0.1467  0.1501 -0.0201
 6460W        W22644   6.767  16.219   2.295 -0.1380  0.0343 -0.0026
 6461W        W22645  12.626   8.507  15.359  0.3142 -0.0365 -0.2201
 6462W        W22646  14.898  17.998   0.152  0.0875  0.2161 -0.1064
 6463W        W22647   0.705   8.289   3.371 -0.0592  0.0761  0.1521
 6464W        W22648   5.547  14.837  14.580 -0.1216  0.0490 -0.1177
 6465W        W22649   2.566   4.686   5.155  0.5758  0.0611  0.1596
 6466W        W22650  12.010   0.991  13.689  0.2747  0.0683  0.3194
 6467W        W22651   6.314   7.626   4.506 -0.1847 -0.1590 -0.1485
 6468W        W22652  10.790   3.309   4.149 -0.2612  0.1592 -0.1955
 6469W        W22653   0.507   2.322   3.908  0.2018 -0.1384  0.0106
 6470W        W22654  13.952  14.745   5.093  0.3738 -0.1579 -0.1242
 6471W        W22655   5.047  16.016  14.125  0.0048 -0.0841  0.2945
 6472W        W22656  13.549   0.966  11.369 -0.1826  0.0223 -0.1039
 6473W        W22657  13.916   2.992  13.873  0.0079 -0.0561 -0.3361
 6474W        W22658  15.809   0.794   0.559 -0.0763  0.0549  0.2660
 6475W        W22659  18.634  14.442  15.210 -0.4980  0.0664 -0.0631
 6476W        W22660  16.754   2.407  14.245 -0.0595  0.2060 -0.0813
 6477W        W22661  16.118  12.168   1.555 -0.1391  0.1269  0.0566
 6478W        W22662   8.790  17.824  11.800  0.2351 -0.2881  0.2600
 6479W        W22663  18.263  10.626   3.925 -0.0331  0.1290 -0.0713
 6480W        W22664  15.743  16.124   3.612  0.0042 -0.0818 -0.1810
 6481W        W22665   8.629   4.877  10.852  0.1785 -0.0333 -0.0428
 6482W        W22666   4.291   9.444  14.352  0.1201 -0.0441 -0.0742
 6483W        W22667  14.881   0.352  13.524 -0.0672 -0.1112 -0.0492
 6484W        W22668  18.637  10.704  13.390  0.1225  0.1179  0.1508
 6485W        W22669  10.181  17.751  14.985 -0.2532  0.1017 -0.2588
 6486W        W22670  17.809  17.449  15.443 -0.1031 -0.0093  0.0876
 6487W        W22671   8.694  11.729  12.439 -0.2188  0.0489  0.0552
 6488W        W22672  12.562  12.619   3.582  0.0413 -0.0352  0.1913
 6489W        W22673  13.480  13.181   2.956  0.0469  0.1847 -0.1851
 6490W        W22674   4.478   5.543  12.946  0.2032  0.0335  0.3140
 6491W        W22675  15.649  15.527  14.583  0.0143  0.1453 -0.2558
 6492W        W22676   2.870   2.786   1.991 -0.3195  0.2775  0.2303
 6493W        W22677   7.254   0.445  11.233  0.0962 -0.0670  0.0080
 6494W        W22678  14.404  18.270   2.291  0.1393 -0.2465 -0.2130
 6495W        W22679  13.374  16.937   0.789  0.1882  0.3869 -0.4087
 6496W        W22680  12.481   6.863   5.456  0.2358  0.3268 -0.3784
 6497W        W22681  14.487  16.702  15.416  0.0271 -0.5296 -0.3416
 6498W        W22682  14.214  16.331   3.030 -0.2736  0.0253 -0.4378
 6499W        W22683  10.106  12.050   3.658 -0.0612  0.0050  0.1673
 6500W        W22684  15.727  17.565   2.796 -0.0757 -0.0081 -0.0911
 6501W        W22685   8.478   5.393  11.010 -0.1087 -0.2613  0.2234
 6502W        W22686  16.725   6.164  13.579 -0.0353  0.0386  0.0931
 6503W        W22687  17.431   8.421   0.014 -0.0499  0.1810 -0.1512
 6504W        W22688  16.678  16.865  13.095  0.2259 -0.2908 -0.0667
 6505W        W22689   8.543  16.769   5.753  0.1588 -0.3287  0.0490
 6506W        W22690   7.108  16.870   4.382 -0.3208 -0.1693  0.1177
 6507W        W22691   1.850  17.970  11.091 -0.2875 -0.0976  0.0275
 6508W        W22692   0.637   6.356   0.671  0.2090  0.0353  0.0455
 6509W        W22693  17.812  11.698  12.692  0.2561 -0.1770  0.2334
 6510W        W22694  16.584  12.214  12.229  0.0575 -0.0316  0.2370
 6511W        W22695  18.339   9.540  12.461  0.2690  0.0998  0.1903
 6512W        W22696  15.591  12.870   2.716 -0.0725 -0.1993 -0.0581
 6513W        W22697   8.503  14.421  10.888  0.1565 -0.2223 -0.2573
 6514W        W22698  10.689  14.119   1.466  0.3665  0.3281  0.3286
 6515W        W22699  11.597  14.049   2.740  0.1274  0.0357 -0.0264
 6516W        W22700  16.956   9.323  12.946 -0.1293 -0.1030 -0.0891
 6517W        W22701  11.230   8.219  11.646  0.0406 -0.0931 -0.1554
 6518W        W22702  15.070   0.758  13.785 -0.1065  0.0323  0.0330
 6519W        W22703  10.239  12.657   3.035 -0.1878  0.0262 -0.1835
 6520W        W22704  10.891  16.280  14.375  0.0014 -0.0458  0.0859
 6521W        W22705   5.937  12.124   4.579  0.0552  0.0260  0.0173
 6522W        W22706  10.969  18.315   1.931 -0.1108  0.4022  0.1544
 6523W        W22707   2.116   7.433   1.833  0.0069 -0.1113  0.0573
 6524W        W22708   6.997   3.674   3.430  0.2640  0.1782  0.1815
 6525W        W22709   1.098   0.488  15.171  0.0919 -0.1303  0.0154
 6526W        W22710  11.146  14.672   3.415 -0.1826 -0.3299  0.0103
 6527W        W22711  10.194  18.418  12.273  0.0319  0.1315 -0.0023
 6528W        W22712   3.787   7.492   4.998 -0.0156  0.0445  0.0155
 6529W        W22713   2.802  11.203   4.573  0.0755 -0.0993  0.0780
 6530W        W22714   2.791  13.150  10.907 -0.3584 -0.0380  0.0129
 6531W        W22715   1.999   7.917   0.643  0.0984  0.0153 -0.2630
 6532W        W22716   8.436   4.136   5.827 -0.2164  0.1540 -0.0932
 6533W        W22717   9.551   0.163  10.823 -0.0335  0.0163 -0.1486
 6534W        W22718  14.040   1.970   0.202  0.2146  0.2730 -0.1662
 6535W        W22719  18.778   1.537  12.703 -0.1023 -0.0905 -0.0921
 6536W        W22720   6.136   7.137  13.322 -0.3029 -0.0014 -0.1097
 6537W        W22721   0.297  17.273   4.669  0.1486  0.0291  0.4237
 6538W        W22722   8.195  14.143   5.036  0.1553 -0.2252  0.1083
 6539W        W22723   0.904   0.833   2.528 -0.0829  0.0109 -0.0046
 6540W        W22724   5.445   3.346   1.099  0.1229 -0.2452  0.2784
 6541W        W22725  15.963   5.632   2.462 -0.0450  0.3437 -0.0081
 6542W        W22726   8.922  14.149  11.320 -0.1687 -0.2222 -0.0661
 6543W        W22727  10.524   9.651  14.097  0.0761 -0.2390  0.1347
 6544W        W22728   2.466  11.308  10.457  0.1646  0.0197  0.1004
 6545W        W22729  10.808  15.407   3.413  0.2309 -0.4157  0.1083
 6546W        W22730  10.273   9.964  13.241  0.0911 -0.2312  0.3310
 6547W        W22731  18.409   8.503  11.034  0.0614  0.1796 -0.0689
 6548W        W22732   5.667  18.818  15.088 -0.1780  0.0687 -0.2242
 6549W        W22733   5.795   6.273  11.704 -0.0169 -0.2694 -0.1515
 6550W        W22734   0.372  16.169   4.798  0.0779  0.2552 -0.0286
 6551W        W22735  13.323  13.808  11.646  0.2725  0.1644  0.0097
 6552W        W22736  11.787  18.172   3.901  0.0652 -0.0299 -0.1716
 6553W        W22737   7.586   6.342  13.347 -0.3608  0.0975  0.0696
 6554W        W22738  14.876   8.809   2.597 -0.2118  0.2508 -0.0439
 6555W        W22739  10.383  10.089   2.628  0.0025  0.0700  0.2533
 6556W        W22740   4.610   5.974   0.179  0.0659 -0.2421 -0.2294
 6557W        W22741  16.934  10.642   3.035  0.3819  0.0008 -0.1053
 6558W        W22742   8.055   3.308  13.033  0.1274 -0.2161  0.3106
 6559W        W22743  14.838  14.765   1.852  0.3017 -0.2168 -0.2572
 6560W        W22744   3.833   8.263  14.162  0.2025 -0.0994 -0.0535
 6561W        W22745  16.388  15.086   0.132  0.2093 -0.0271 -0.0951
 6562W        W22746   3.157   6.932  12.266 -0.0035  0.2444  0.1377
 6563W        W22747   0.932   3.896  11.818 -0.1004 -0.0349  0.1777
 6564W        W22748   3.818  17.388   2.187  0.0828 -0.1320  0.3071
 6565W        W22749  18.069  16.581  12.089 -0.0332 -0.2384 -0.0924
 6566W        W22750  13.004   7.779   4.306 -0.1279 -0.0362  0.3274
 6567W        W22751  12.370   8.297  12.896 -0.4470 -0.1543 -0.0082
 6568W        W22752   9.447  10.860   4.814 -0.1354  0.0518 -0.2538
 6569W        W22753  14.339   4.227  13.436 -0.1909  0.0536 -0.2765
 6570W        W22754   5.345  14.975   0.358 -0.3332  0.0685  0.2476
 6571W        W22755   8.143   3.597  12.172  0.0736  0.2642 -0.0683
 6572W        W22756   5.907  18.635   2.022  0.3024  0.1786 -0.2694
 6573W        W22757   4.749  12.195   2.167 -0.3121 -0.3185 -0.0626
 6574W        W22758  17.239  11.974   3.176  0.1092 -0.3906  0.4893
 6575W        W22759   3.703  15.382  13.367  0.2040  0.2723 -0.1761
 6576W        W22760  10.617   8.206   0.332  0.0704 -0.1901 -0.3194
 6577W        W22761   3.795   5.543   0.733 -0.0955 -0.0479  0.0436
 6578W        W22762  18.450  14.960  15.127  0.0014  0.0257 -0.3069
 6579W        W22763   9.500   3.233   5.541  0.0075  0.0841 -0.0072
 6580W        W22764  16.999   5.350  13.830  0.2599 -0.3295  0.0089
 6581W        W22765  11.699   4.863   4.571 -0.0603 -0.1225 -0.2384
 6582W        W22766   3.280  15.077  12.431  0.1939 -0.1181  0.0056
 6583W        W22767   1.837   9.570   5.302  0.0066 -0.2043  0.2168
 6584W        W22768  10.352  11.498  14.958 -0.2064 -0.3318  0.1775
 6585W        W22769  14.050   4.748   2.986 -0.4217  0.0292 -0.0243
 6586W        W22770  14.112   8.653  15.273  0.2193  0.0567  0.3286
 6587W        W22771   2.091   3.136   1.758  0.0926  0.2480 -0.0541
 6588W        W22772  12.014   4.196  12.978 -0.1083  0.2624  0.1160
 6589W        W22773   3.733   0.256  12.112  0.1494 -0.1741  0.2127
 6590W        W22774  11.244   3.667   1.322 -0.0365  0.1917  0.0819
 6591W        W22775   6.867   3.526   0.745 -0.0791  0.2074 -0.2825
 6592W        W22776  16.642  15.345   4.766 -0.0494  0.1271  0.1018
 6593W        W22777   0.730  14.771   3.841 -0.0672 -0.1360 -0.1369
 6594W        W22778  18.710  16.083   1.054  0.0489  0.2228 -0.0128
 6595W        W22779   8.770  14.251   2.909  0.0741  0.1257 -0.0752
 6596W        W22780   4.374   0.748   4.862 -0.0514 -0.0771  0.0017
 6597W        W22781  18.710  10.398  10.574 -0.1445  0.1768  0.0647
 6598W        W22782  18.424  11.324   5.081 -0.0106 -0.2118 -0.1842
 6599W        W22783   6.651   6.457   4.816 -0.4252  0.1918  0.1208
 6600W        W22784   7.485   9.185  13.253 -0.2535  0.1836 -0.4170
 6601W        W22785   3.460   5.517   1.840 -0.0276 -0.0696 -0.0093
 6602W        W22786   2.086  13.342   0.052  0.0441 -0.2041 -0.3045
 6603W        W22787   3.358   1.132  12.682 -0.1043  0.0578  0.0784
 6604W        W22788  17.576  15.833   3.026 -0.1255 -0.1089 -0.2244
 6605W        W22789   3.738   7.528   4.386  0.2808 -0.0236  0.0421
 6606W        W22790   2.719  10.446   5.607 -0.0896 -0.2557  0.3217
 6607W        W22791   2.566   5.278   5.249  0.2541  0.0189 -0.0906
 6608W        W22792  15.319   6.338   5.299  0.3317 -0.0204 -0.0663
 6609W        W22793   4.616   8.522   5.623  0.1161 -0.0225  0.4680
 6610W        W22794  10.946  10.115  11.138 -0.3153  0.1448 -0.0960
 6611W        W22795   6.620   2.953   2.178  0.3964 -0.0883  0.0896
 6612W        W22796  10.852  12.475  11.690  0.1936  0.0447  0.0057
 6613W        W22797  12.821  11.435  13.875 -0.0233 -0.0497 -0.1098
 6614W        W22798   8.840   9.925  14.991  0.0737  0.0524  0.0422
 6615W        W22799   0.520  15.930   5.495  0.0572  0.0108  0.2732
 6616W        W22800  10.704  10.434  13.982  0.3907  0.1744 -0.0403
 6617W        W22801   8.037  13.310   4.673  0.0539 -0.1698  0.4529
 6618W        W22802  14.694   2.607   3.514  0.2810 -0.1523  0.1023
 6619W        W22803  16.704   0.198  11.526  0.2833  0.0398  0.2514
 6620W        W22804   6.353  18.747   0.297  0.1237 -0.0825  0.4331
 6621W        W22805  11.209   7.765   3.099 -0.2332 -0.1806  0.1783
 6622W        W22806   9.987  17.022  11.723  0.0972  0.0215 -0.2091
 6623W        W22807  16.453  13.264   2.375  0.0546  0.0955 -0.0031
 6624W        W22808  14.202  17.726   3.644 -0.2895 -0.0707  0.0885
 6625W        W22809   3.872  12.323   3.252 -0.0755  0.0342  0.1910
 6626W        W22810   5.341   7.027   0.433 -0.3525  0.2202 -0.2218
 6627W        W22811   0.518   0.416  13.930  0.0220  0.0916  0.1020
 6628W        W22812  13.691  15.418  15.121 -0.1135  0.2989 -0.2129
 6629W        W22813  13.275   9.788   4.509 -0.2216  0.2464  0.0665
 6630W        W22814   2.511  10.412  13.049 -0.1575 -0.0630 -0.2776
 6631W        W22815  11.213  14.988  12.282  0.1902  0.0275 -0.0722
 6632W        W22816   9.720  14.958  11.504 -0.0896  0.1005 -0.0114
 6633W        W22817   2.637   4.265  12.674 -0.0058 -0.0744 -0.0040
 6634W        W22818  17.688  18.347  14.757 -0.1395  0.1265 -0.0033
 6635W        W22819  16.523  11.954  11.252 -0.0557  0.0154  0.2158
 6636W        W22820   7.518  13.196  13.492  0.0702 -0.4493  0.1154
 6637W        W22821   8.992   9.281   4.435  0.4178  0.0835 -0.1668
 6638W        W22822  17.904  11.355   5.096  0.1375 -0.0105  0.1252
 6639W        W22823  18.743  17.539   4.764 -0.1709  0.1457 -0.2784
 6640W        W22824  13.104  14.836   0.012  0.0544 -0.0407  0.0621
 6641W        W22825  13.716  16.063   2.867  0.1086  0.1954 -0.5251
 6642W        W22826  11.004   7.938   2.586  0.1167 -0.0340  0.1020
 6643W        W22827   5.440   2.406  13.155  0.2266  0.0362 -0.1528
 6644W        W22828  10.338   6.343   4.109  0.2223  0.2810 -0.0856
 6645W        W22829   6.742   2.795   3.152  0.1171  0.2404  0.3764
 6646W        W22830   6.163  10.320   0.466 -0.3978  0.3979 -0.4865
 6647W        W22831  16.139   3.989   2.125 -0.0919  0.0491 -0.2814
 6648W        W22832  13.095   6.227  15.414  0.1687 -0.0774  0.1412
 6649W        W22833   9.993  14.642   3.051  0.5119  0.3124  0.2048
 6650W        W22834  16.826  14.313  13.821 -0.0624  0.0830  0.0137
 6651W        W22835   7.466  12.315   4.207 -0.2185  0.0559  0.2484
 6652W        W22836   2.654  18.500   3.250 -0.0448 -0.0124  0.0813
 6653W        W22837   3.369   2.815   9.908  0.0510 -0.0709  0.1723
 6654W        W22838  16.253   8.738   0.324  0.0652  0.1162  0.3936
 6655W        W22839  15.425   2.755  13.434  0.0079  0.2370 -0.0088
 6656W        W22840  12.586   1.073   1.694  0.0207  0.1867  0.0961
 6657W        W22841   5.158   0.775   4.442 -0.2819  0.0362  0.0570
 6658W        W22842   6.472   2.732  11.678  0.3490  0.1958 -0.0768
 6659W        W22843   0.889  10.646  13.279  0.1474  0.1365  0.0685
 6660W        W22844  15.981   3.542  15.406 -0.3054  0.4035 -0.2414
 6661W        W22845  10.867  12.666  12.716  0.0098 -0.2445 -0.3118
 6662W        W22846   0.378   8.111  14.260 -0.0944 -0.0996  0.2562
 6663W        W22847  11.879  18.179  12.785  0.1310  0.1514 -0.0425
 6664W        W22848   4.571  15.154  14.446  0.0331  0.0335 -0.0954
 6665W        W22849  18.352  15.737   3.634  0.0687  0.1572  0.0148
 6666W        W22850   9.626   9.732  14.368  0.0977 -0.1778 -0.1609
 6667W        W22851   6.542   8.427  14.024 -0.1871 -0.1699  0.3207
 6668W        W22852  13.132   2.340   0.595  0.3020 -0.1694 -0.1636
 6669W        W22853  15.172  17.285   1.408 -0.0858 -0.0050 -0.1514
 6670W        W22854   1.877   6.485   0.548  0.2464  0.0294  0.4926
 6671W        W22855  12.048  13.703   4.322  0.1489 -0.1298  0.1557
 6672W        W22856   1.027   0.764  11.272  0.1979  0.0367  0.0384
 6673W        W22857  15.830   0.283  14.697 -0.2342 -0.2428 -0.2663
 6674W        W22858  18.327   1.810  10.591  0.1348  0.0002  0.1572
 6675W        W22859  18.113  10.879   5.208  0.4659  0.0841 -0.1179
 6676W        W22860   2.215  13.435   5.453  0.3079 -0.1884 -0.2398
 6677W        W22861  17.978   8.602  10.825 -0.0299 -0.3770 -0.0697
 6678W        W22862  14.513   3.645   5.423 -0.0513 -0.1924  0.0982
 6679W        W22863   2.329   0.298  11.635 -0.0859  0.0138 -0.0976
 6680W        W22864  17.260   5.783   2.381 -0.1565  0.2982  0.0967
 6681W        W22865  17.899  17.395  12.729  0.2239 -0.5080 -0.1950
 6682W        W22866   8.059   9.847  12.640  0.1079  0.1698  0.3930
 6683W        W22867  18.430   1.475   3.408 -0.1009  0.1720  0.1752
 6684W        W22868  17.943   3.276  12.170 -0.0406 -0.0178 -0.1397
 6685W        W22869  15.129  18.789   1.475 -0.0624 -0.0103 -0.1127
 6686W        W22870  12.630  14.105  14.694  0.3141 -0.1453  0.0584
 6687W        W22871   2.494   6.174   1.248 -0.1718  0.1761 -0.3580
 6688W        W22872  17.588   4.611   3.758 -0.1576  0.0843  0.2037
 6689W        W22873   8.130   6.465   0.379  0.0362 -0.2926 -0.3838
 6690W        W22874  18.577  12.325   4.130 -0.0790 -0.4117 -0.0087
 6691W        W22875  11.066   8.269   5.423  0.4023 -0.4010 -0.1905
 6692W        W22876   7.523   1.442   1.334 -0.1010 -0.2904 -0.0602
 6693W        W22877  18.577   7.360   2.893 -0.1917 -0.0777  0.2701
 6694W        W22878  17.937   7.937   2.379 -0.2143  0.2645 -0.0481
 6695W        W22879  16.911   2.357   0.698  0.1110 -0.0329  0.3681
 6696W        W22880   8.768   9.473  13.541  0.1962 -0.0971 -0.1602
 6697W        W22881   5.761  14.966  14.987 -0.1468  0.0265 -0.3721
 6698W        W22882   1.704   2.429   2.295  0.0822  0.1918 -0.0936
 6699W        W22883   7.462   0.055  15.164 -0.1435  0.2150  0.0348
 6700W        W22884   6.612  11.205   0.380 -0.2577  0.0436 -0.1337
 6701W        W22885  11.214  17.946   2.181 -0.1061 -0.2166 -0.1972
 6702W        W22886  13.863   9.353  10.213 -0.0094  0.1610 -0.0340
 6703W        W22887   7.065  13.098  12.435  0.2864 -0.2229 -0.0588
 6704W        W22888   1.805  15.908   2.909  0.0022 -0.1516 -0.1969
 6705W        W22889  16.746  17.483   4.947 -0.0465  0.0584  0.2942
 6706W        W22890   6.799  16.614  11.985 -0.0360  0.1037 -0.0833
 6707W        W22891  10.625  17.144  13.391  0.0340 -0.0068  0.0710
 6708W        W22892   4.590   5.746  14.757 -0.0113 -0.0813  0.1822
 6709W        W22893  12.853   6.166   5.914  0.1378 -0.2755  0.1425
 6710W        W22894  13.319  17.154  14.807  0.0913  0.1050  0.0354
 6711W        W22895   8.774  14.774  11.158  0.2547  0.0963  0.1813
 6712W        W22896   5.017   4.687   0.153  0.0264 -0.0842 -0.0790
 6713W        W22897  14.837   9.633  12.623 -0.2545 -0.0195  0.0791
 6714W        W22898  12.586  11.734   3.699 -0.1383 -0.0738  0.2056
 6715W        W22899  11.629  15.645   0.603  0.0614 -0.2339  0.1502
 6716W        W22900   4.703  16.256  11.762  0.2046 -0.3166 -0.1846
 6717W        W22901   4.872   5.588  10.895  0.0887  0.2205  0.2506
 6718W        W22902  12.022  16.772  15.404  0.0811  0.1571  0.1526
 6719W        W22903  16.625   6.074  11.080  0.0268  0.2827  0.1391
 6720W        W22904  11.303  14.736   4.613 -0.1461 -0.0633  0.1567
 6721W        W22905   6.605  13.190   4.609  0.2882 -0.0813 -0.1591
 6722W        W22906  13.996   8.497   2.634  0.2244 -0.1529 -0.1748
 6723W        W22907  17.434   5.908   0.872 -0.1787  0.4470 -0.2527
 6724W        W22908   9.120   4.455   3.402  0.2635 -0.0668  0.2463
 6725W        W22909  10.065  18.605   2.959 -0.2851  0.3084 -0.0552
 6726W        W22910   1.499  15.093  14.540  0.2475  0.0168 -0.2283
 6727W        W22911   2.641  15.327   3.357 -0.1566  0.1034 -0.1480
 6728W        W22912  10.175  17.777  14.476  0.2422 -0.1549  0.0137
 6729W        W22913   0.392  11.900   4.654 -0.1422  0.0441  0.0399
 6730W        W22914  14.496   4.225  12.475  0.2132 -0.0565  0.0123
 6731W        W22915  12.825  15.199   4.527  0.0569 -0.2582  0.2859
 6732W        W22916   5.028   3.798  13.588  0.2469  0.0065 -0.0703
 6733W        W22917  12.264   5.080  13.245  0.1990 -0.1507  0.2497
 6734W        W22918   1.865  10.471   3.664 -0.0373 -0.1781 -0.2791
 6735W        W22919   9.433   3.593  10.821 -0.1138 -0.3858  0.2223
 6736W        W22920   7.208   2.462  12.998 -0.2685 -0.2748 -0.2733
 6737W        W22921  11.472  10.108   1.701  0.0401 -0.2147  0.0206
 6738W        W22922   5.650  12.874  14.447  0.0733  0.0416 -0.2174
 6739W        W22923   1.352   5.511   0.857  0.0168  0.0426  0.2376
 6740W        W22924   6.679   7.666   1.387 -0.3670 -0.2166  0.0642
 6741W        W22925   9.491   7.693   5.002 -0.0764 -0.1194  0.0392
 6742W        W22926   2.214  17.536   3.789  0.1449  0.3368  0.2346
 6743W        W22927   2.387  16.520   2.678  0.1172  0.0082  0.1089
 6744W        W22928  16.230   8.258   1.985 -0.0555 -0.1333 -0.1349
 6745W        W22929  10.006  10.234   5.743 -0.0042  0.0060 -0.1483
 6746W        W22930  15.360  11.983  15.363 -0.2064  0.0600 -0.3047
 6747W        W22931   1.256   6.544  13.321 -0.0861  0.0821  0.0497
 6748W        W22932   6.087  17.862   4.227  0.2454 -0.1721  0.0205
 6749W        W22933  11.268  11.456  10.478  0.0651 -0.0464  0.0939
 6750W        W22934   5.134   4.947   1.909  0.2070 -0.2936  0.0422
 6751W        W22935  11.016  17.028  13.774 -0.0453  0.2363  0.0824
 6752W        W22936   5.032   3.048  15.444 -0.0421 -0.2027 -0.0094
 6753W        W22937   2.357   2.357   1.129 -0.0062 -0.0854 -0.0944
 6754W        W22938  12.438  12.667  14.810 -0.1156  0.0593 -0.1748
 6755W        W22939  15.207  18.236   1.552 -0.1488 -0.0207 -0.0890
 6756W        W22940   0.947   7.175   3.729 -0.0028  0.1033  0.1772
 6757W        W22941   4.680   5.348   3.832 -0.1389  0.0202 -0.0580
 6758W        W22942   5.992   6.362   0.414  0.2515  0.1786 -0.4145
 6759W        W22943   9.132   5.674  15.115  0.1278  0.1527  0.0292
 6760W        W22944  10.441   2.222   4.815  0.1097  0.3122  0.2212
 6761W        W22945   8.215   0.070   2.410 -0.5346  0.2672 -0.1678
 6762W        W22946   2.257  18.425   4.107 -0.1778  0.1543  0.0347
 6763W        W22947   0.443   7.660   2.112 -0.1770 -0.0592  0.2368
 6764W        W22948   5.151   3.969  13.072  0.0110 -0.0869  0.3902
 6765W        W22949   8.926  15.931  14.819  0.0838 -0.1574  0.0743
 6766W        W22950   6.736   2.373  15.250 -0.2659  0.0508 -0.0411
 6767W        W22951   5.792  10.209   2.733 -0.2089 -0.0621  0.1283
 6768W        W22952  15.241   1.512   3.983  0.0211  0.1553  0.0122
 6769W        W22953  11.710   7.591  11.956 -0.0311 -0.0189  0.1108
 6770W        W22954   8.686   4.537   1.052  0.0502  0.0523 -0.1364
 6771W        W22955   0.528   5.639   2.570 -0.1521  0.0146  0.2907
 6772W        W22956  17.684   1.610  15.407 -0.0751  0.0626 -0.1627
 6773W        W22957   0.217  16.575   0.529 -0.0717  0.1387  0.1874
 6774W        W22958   8.875  13.402  13.686 -0.0985 -0.2503 -0.0001
 6775W        W22959  13.485   0.198  11.038 -0.1146 -0.1175  0.1676
 6776W        W22960   3.555  16.123  12.584 -0.0120  0.2802 -0.1237
 6777W        W22961  18.641   1.225  12.084  0.0783 -0.1071  0.1460
 6778W        W22962   5.651   3.105  14.702 -0.1078  0.2512 -0.2643
 6779W        W22963   6.059   2.438   5.367 -0.0253 -0.1990 -0.0752
 6780W        W22964  13.549  13.306   1.169  0.2066 -0.3315 -0.3540
 6781W        W22965  12.440   6.753  12.778 -0.0487 -0.0310 -0.1364
 6782W        W22966  18.086   1.061  13.303  0.1560  0.2002 -0.2133
 6783W        W22967  16.703   9.328  12.498  0.0293  0.3062 -0.0552
 6784W        W22968   7.240   8.474  12.668 -0.2216  0.1657  0.2126
 6785W        W22969  10.244  14.628  14.767 -0.2195 -0.0707  0.1589
 6786W        W22970  13.014   2.744  12.763 -0.0868  0.0466 -0.0365
 6787W        W22971   9.526   3.735   1.935  0.0729 -0.0623  0.4259
 6788W        W22972  18.739  11.477  13.300  0.2732 -0.1770 -0.2266
 6789W        W22973   8.460  13.664  10.739  0.0878  0.0821  0.0118
 6790W        W22974  11.685  10.390   3.212  0.2519 -0.0733  0.2516
 6791W        W22975   0.400   7.807  13.289 -0.1197  0.4997 -0.1577
 6792W        W22976   4.656   5.002   4.658 -0.0145 -0.0375  0.4025
 6793W        W22977  12.226   7.497   4.683 -0.0946  0.2688 -0.1939
 6794W        W22978   1.106   7.269  15.384 -0.2791 -0.0436 -0.1509
 6795W        W22979   0.570  14.740   1.099  0.1058  0.0760 -0.2521
 6796W        W22980  14.258  17.221  10.867  0.2535  0.0992 -0.3484
 6797W        W22981  12.616   0.514   3.215  0.3129 -0.4365  0.1570
 6798W        W22982   7.322   2.077   3.887 -0.2149  0.0313  0.0515
 6799W        W22983   8.155  15.807  12.921 -0.0704  0.0712  0.3729
 6800W        W22984  10.003   2.375  10.937 -0.3704  0.0446 -0.0036
 6801W        W22985  18.419  12.413   1.004  0.0169  0.2466 -0.0007
 6802W        W22986  17.915  16.635  15.402 -0.2159 -0.3204 -0.1743
 6803W        W22987   0.778   2.903   9.872 -0.1347  0.0533 -0.3844
 6804W        W22988  12.959   3.861   1.017 -0.2301  0.0071 -0.0953
 6805W        W22989  11.238   6.330   5.346 -0.0711 -0.1036  0.4626
 6806W        W22990   6.259  12.058   2.156 -0.2935  0.3413 -0.1082
 6807W        W22991   2.860   8.525   3.830  0.0524  0.0049  0.1898
 6808W        W22992   3.302   6.841  13.820 -0.0447  0.0651 -0.0066
 6809W        W22993   2.276  12.624  14.986 -0.1118 -0.1013  0.3109
 6810W        W22994  15.476   9.297   2.054 -0.3871  0.1232 -0.5501
 6811W        W22995   6.138   3.245  13.608  0.3462  0.3043 -0.0761
 6812W        W22996  13.834  15.826   0.674  0.0234 -0.0954  0.0806
 6813W        W22997   6.280   8.072   1.153 -0.0306 -0.0691 -0.0802
 6814W        W22998  12.964   9.547  14.922  0.3920 -0.0064  0.1344
 6815W        W22999  13.198   0.955  12.887 -0.1946 -0.1031  0.2973
 6816W        W23000  15.442   1.240  12.465 -0.2024 -0.0049 -0.1279
 6817W        W23001   8.311   4.609   1.966  0.0045  0.1760 -0.0355
 6818W        W23002  18.491   5.154  14.915  0.0928  0.2036  0.1217
 6819W        W23003   0.671   1.904   2.972 -0.4320  0.0175  0.0477
 6820W        W23004  10.909  11.298  11.205 -0.1348  0.2425  0.1405
 6821W        W23005   5.625  16.741   0.029 -0.0914  0.1287  0.0537
 6822W        W23006  10.303   6.075  12.970 -0.1623 -0.2169  0.0356
 6823W        W23007   8.574   4.758   2.885 -0.2590  0.1791  0.0402
 6824W        W23008   0.598  15.156   2.814 -0.0185  0.0396 -0.0958
 6825W        W23009   8.331  10.066  13.061 -0.1564  0.0673  0.2164
 6826W        W23010   0.439   0.874  13.252  0.0233  0.1549 -0.0577
 6827W        W23011   5.064   6.094   0.584 -0.1638  0.1040  0.1414
 6828W        W23012   4.596  13.106   0.493 -0.0321  0.1158 -0.0923
 6829W        W23013  16.564   5.495  11.931 -0.1316  0.2139  0.0918
 6830W        W23014  16.678   1.483  14.369  0.2448  0.1713  0.1516
 6831W        W23015  15.666   8.083  12.014  0.0095 -0.1540  0.0004
 6832W        W23016  13.804  12.442   0.995  0.0043  0.0934  0.1422
 6833W        W23017  15.748   9.698   1.291  0.2183  0.0608 -0.0096
 6834W        W23018   6.666  18.334   3.122  0.1358  0.0129 -0.0524
 6835W        W23019  17.646  10.824   4.479 -0.0312 -0.1296  0.0547
 6836W        W23020   4.371   1.092   2.982 -0.1831  0.2855 -0.1695
 6837W        W23021   9.722  12.884  12.477 -0.3236  0.1531  0.0430
 6838W        W23022  17.221  15.767   0.453  0.1455  0.0408  0.0348
 6839W        W23023  15.257   7.820   1.517 -0.1369 -0.0198  0.3326
 6840W        W23024   1.918  17.249  11.524 -0.0021  0.0472  0.1729
 6841W        W23025  17.594   4.385   1.921  0.3793  0.1551  0.2503
 6842W        W23026  13.161  14.537   2.718  0.2787  0.0336 -0.1855
 6843W        W23027   6.504  14.815   4.993 -0.1920 -0.3008  0.2245
 6844W        W23028   2.387  10.645   3.571  0.2438  0.0145 -0.0043
 6845W        W23029   0.290  16.001   1.891 -0.1110  0.1461 -0.1797
 6846W        W23030  16.617   7.187  11.469 -0.0953 -0.1899 -0.1013
 6847W        W23031   2.027  13.868   4.533 -0.3053  0.1085  0.2256
 6848W        W23032   6.234   0.551  10.003 -0.0519  0.4346  0.2031
 6849W        W23033   5.739  11.515  10.394  0.0765  0.0873  0.0333
 6850W        W23034  18.639  10.938   2.954 -0.2376  0.1823 -0.1499
 6851W        W23035  11.971  12.807   0.222 -0.0463  0.1061  0.1050
 6852W        W23036  18.312   2.121  13.370  0.1354 -0.3515 -0.6220
 6853W        W23037   3.124  13.949   5.089 -0.0712  0.0058 -0.0289
 6854W        W23038  11.737   3.321   1.280  0.2007 -0.1456 -0.1451
 6855W        W23039  15.125   5.106  12.652 -0.2001 -0.2058 -0.0077
 6856W        W23040   5.876   4.968   2.788 -0.0378  0.2709  0.3990
 6857W        W23041   5.978   3.047   3.835  0.1010  0.1334  0.0366
 6858W        W23042   2.335  15.778   1.379  0.0293 -0.1417 -0.0719
 6859W        W23043  16.123  12.538   1.886  0.0275 -0.1992 -0.1624
 6860W        W23044  14.547  11.078  11.571 -0.0913 -0.4088 -0.0985
 6861W        W23045  11.261  17.424   2.248 -0.1726 -0.1113  0.0444
 6862W        W23046   4.127   3.935  11.787 -0.2837 -0.3592  0.1011
 6863W        W23047  14.380  18.464  14.812  0.1967  0.0243  0.2764
 6864W        W23048  14.485   4.186   1.085 -0.0305 -0.1976 -0.1357
 6865W        W23049   0.698  14.103  11.623 -0.0743  0.0164  0.1896
 6866W        W23050   2.860  14.326   3.896  0.2056 -0.1826 -0.0791
 6867W        W23051   5.699   5.301  11.367 -0.1199  0.0123  0.0262
 6868W        W23052   5.282   7.053  12.843 -0.2129  0.6458 -0.0510
 6869W        W23053  13.390  11.802  12.914  0.1003  0.1561 -0.2945
 6870W        W23054  10.978   4.728  10.179 -0.0471  0.2095 -0.0968
 6871W        W23055   8.321   2.731  12.338  0.0317 -0.1650 -0.2014
 6872W        W23056   7.157   2.985  13.114  0.3211  0.1360 -0.2370
 6873W        W23057  14.526   6.271  12.833 -0.2985 -0.1757 -0.0887
 6874W        W23058   4.051  16.452   4.297  0.1686 -0.0271  0.1792
 6875W        W23059  10.080  16.904  15.132 -0.1541  0.2713  0.2471
 6876W        W23060  15.549  16.123  14.271 -0.2627 -0.0387  0.0014
 6877W        W23061   8.437   2.832  15.505 -0.2276  0.0371  0.0371
 6878W        W23062   2.685   2.382   0.774 -0.1318 -0.0242 -0.0781
 6879W        W23063   3.916  14.139   9.324 -0.2178  0.1650  0.0110
 6880W        W23064  12.578   6.335   1.382 -0.1309 -0.0110 -0.0374
 6881W        W23065  18.708   1.780   0.567 -0.2953 -0.2439 -0.1490
 6882W        W23066   9.052   8.793   5.512 -0.0861 -0.1363  0.0396
 6883W        W23067   2.553   0.788   0.777  0.0456  0.0019 -0.1740
 6884W        W23068  12.389  16.056  11.276  0.0018  0.1160 -0.1605
 6885W        W23069   5.409   2.071  11.613 -0.0722 -0.0048 -0.0157
 6886W        W23070   3.676  17.672   0.084  0.0078 -0.1128  0.1616
 6887W        W23071   6.535  11.717  10.322 -0.1089 -0.1754  0.1580
 6888W        W23072  14.162  12.051   5.102  0.2193  0.1182 -0.0635
 6889W        W23073  13.088  16.632  13.633 -0.0847  0.0366 -0.1768
 6890W        W23074   1.968   0.733   5.294 -0.3726 -0.2261  0.0486
 6891W        W23075  15.510  10.845   4.515 -0.0705 -0.3043 -0.2419
 6892W        W23076   7.525  12.823  11.045 -0.0008  0.1358  0.1833
 6893W        W23077  17.262   3.308  11.214 -0.2347 -0.2320 -0.0762
 6894W        W23078  13.466   4.269  13.751  0.0277  0.2714 -0.0736
 6895W        W23079   1.158   3.902  13.180  0.1464 -0.1624  0.2172
 6896W        W23080   8.944  11.737  10.766  0.3166  0.0944  0.1029
 6897W        W23081  18.354   4.403   5.194 -0.1508  0.3110  0.1011
 6898W        W23082   1.208  15.506   1.098 -0.0208  0.1092 -0.1008
 6899W        W23083   0.961  12.348  12.713  0.1988  0.0911  0.2526
 6900W        W23084   4.656   6.059   3.384 -0.0224  0.4311 -0.0453
 6901W        W23085  15.653   2.811   1.449  0.0345 -0.2567 -0.0521
 6902W        W23086  12.513   5.672  11.826  0.1985 -0.2861  0.1521
 6903W        W23087  18.815  15.360  15.209  0.2267  0.1190  0.2195
 6904W        W23088  14.619  12.117  15.405  0.0658 -0.0112 -0.3960
 6905W        W23089   7.924   5.236   2.477 -0.3086 -0.0226  0.1302
 6906W        W23090   2.425   8.401  15.380  0.0034  0.3191 -0.2260
 6907W        W23091  13.571   2.545   3.477 -0.5441  0.0423 -0.0987
 6908W        W23092   1.055   9.696  10.575 -0.0480  0.1234  0.3056
 6909W        W23093  13.632  15.409   4.162  0.2497 -0.0250  0.0871
 6910W        W23094   6.971   2.942  11.294 -0.0969  0.0735  0.0911
 6911W        W23095  18.644  10.282   1.649 -0.4009  0.3306 -0.1688
 6912W        W23096   1.678   7.910  14.791 -0.0335 -0.0918  0.2183
 6913W        W23097   6.372   0.762   3.623 -0.0320  0.1154 -0.2885
 6914W        W23098  11.156  11.798   1.413 -0.3230  0.3760  0.0688
 6915W        W23099  11.758  14.577   3.274  0.0583 -0.1988  0.0404
 6916W        W23100  14.089   6.344   2.816  0.1284  0.0838 -0.1716
 6917W        W23101   0.687  15.110  11.139 -0.3891 -0.1318 -0.2976
 6918W        W23102  10.448   9.418   4.102 -0.0322 -0.1075  0.0845
 6919W        W23103   0.830   6.981  12.770  0.0451 -0.0568 -0.2854
 6920W        W23104  14.048   9.811   4.246 -0.0305  0.0568 -0.1235
 6921W        W23105  18.555   4.968  14.429 -0.0903  0.2184  0.1120
 6922W        W23106  13.589   4.323   2.474 -0.1903  0.0015 -0.2897
 6923W        W23107   3.585   8.279   0.045  0.1053 -0.0374 -0.1636
 6924W        W23108   8.231  11.075   0.694  0.0029 -0.2655 -0.0088
 6925W        W23109   5.305   1.063  14.119  0.3133  0.0138 -0.3117
 6926W        W23110  15.552  17.342   0.070 -0.1351 -0.0881  0.4075
 6927W        W23111   9.325   6.034  15.453 -0.1238 -0.2153 -0.2665
 6928W        W23112   1.063  13.071   5.149  0.1190 -0.5462 -0.1375
 6929W        W23113   7.716  14.592  12.123  0.1807  0.1933 -0.1219
 6930W        W23114   2.420   8.293  14.622 -0.0201  0.2921 -0.1138
 6931W        W23115   2.841   6.996  10.838 -0.2879  0.1953 -0.0310
 6932W        W23116   0.701   8.974   4.190 -0.0380  0.2217  0.0456
 6933W        W23117  14.369   5.312  12.877 -0.2862  0.3486  0.0930
 6934W        W23118  14.064  11.768  13.503 -0.2201  0.0490 -0.1977
 6935W        W23119  17.765   0.350   1.756 -0.0836 -0.2850  0.3165
 6936W        W23120  14.498  18.161   5.390 -0.1664 -0.2145 -0.3611
 6937W        W23121  12.323  18.177   1.466 -0.1595 -0.1812 -0.1453
 6938W        W23122  18.852  11.688  13.941 -0.0163 -0.0809  0.0269
 6939W        W23123   5.986   6.213   2.997  0.1106  0.1120 -0.2074
 6940W        W23124   9.454  12.082  12.072  0.3602 -0.1202  0.2401
 6941W        W23125   2.986   8.154   2.880 -0.1023  0.2395  0.1802
 6942W        W23126  16.160   0.591   2.828 -0.0744  0.0371  0.1759
 6943W        W23127   9.938  18.437  11.214 -0.1106 -0.1808  0.2026
 6944W        W23128   9.626   1.684   4.058 -0.0448 -0.4586  0.2545
 6945W        W23129   1.115   4.113   5.844 -0.0017 -0.2710  0.1040
 6946W        W23130  17.443  17.237   4.868 -0.3699 -0.1372 -0.1251
 6947W        W23131  10.291  12.023  12.987 -0.3999 -0.1964 -0.0487
 6948W        W23132  15.046   4.969  10.721 -0.1332  0.1137  0.0310
 6949W        W23133   8.219  17.623  11.557 -0.0874 -0.0414  0.1779
 6950W        W23134  13.068  16.980  11.899 -0.0259  0.1949  0.0943
 6951W        W23135  14.167   5.253  11.941 -0.2837  0.0518 -0.0025
 6952W        W23136  10.432  14.321   0.166  0.1822  0.2244 -0.0628
 6953W        W23137  17.674  18.302   5.734  0.0068  0.0967 -0.0128
 6954W        W23138  13.328  14.572  13.121  0.0328 -0.1320  0.0056
 6955W        W23139   0.837   6.050   3.409 -0.3692  0.1019  0.0307
 6956W        W23140   9.923   7.011  12.900  0.0129 -0.1503  0.1671
 6957W        W23141   0.285   1.856   3.680 -0.3783  0.1329 -0.1622
 6958W        W23142  18.467   8.905  12.673 -0.1326 -0.1150  0.3746
 6959W        W23143   0.189  17.989  14.813 -0.1465 -0.0616 -0.0177
 6960W        W23144   0.058  13.650   2.770  0.0244  0.3339  0.1998
 6961W        W23145  14.788  13.006   3.574  0.0940 -0.2004 -0.1481
 6962W        W23146   5.182   7.167   3.273  0.0167 -0.0769 -0.4539
 6963W        W23147   8.301   5.587   1.433 -0.0544  0.2950 -0.0635
 6964W        W23148   8.171   6.415  11.091  0.1375  0.1315 -0.4668
 6965W        W23149   6.861   7.692   0.878  0.0879  0.0235  0.3583
 6966W        W23150   7.763   8.496  14.648 -0.0491  0.0363 -0.2219
 6967W        W23151   4.091  10.756   4.715 -0.1754  0.0241  0.2131
 6968W        W23152   8.192   4.774  12.515 -0.0035 -0.0105  0.0035
 6969W        W23153   2.855  16.364   3.978  0.0015 -0.3366  0.2061
 6970W        W23154  17.391   5.004  14.465  0.2754  0.2246 -0.0425
 6971W        W23155  11.637  16.320   4.143 -0.2425 -0.0987  0.1084
 6972W        W23156  16.556   3.170  11.075  0.3488 -0.0837 -0.2404
 6973W        W23157  13.583   0.643  14.207  0.2150 -0.2066 -0.1555
 6974W        W23158  12.639   0.815  12.964 -0.0999 -0.0069  0.1461
 6975W        W23159  17.449   7.132   0.673 -0.2782 -0.0529  0.1244
 6976W        W23160   3.212  17.651   3.317  0.1212 -0.2603 -0.0408
 6977W        W23161  10.165   6.231  12.503 -0.2177 -0.1152  0.1368
 6978W        W23162  12.641   6.090  10.160  0.1582 -0.1558  0.0041
 6979W        W23163   9.178   8.729   2.129  0.0139  0.1975 -0.1043
 6980W        W23164   2.067  13.801  12.791  0.1090  0.0167  0.0421
 6981W        W23165  18.441   7.987  13.641  0.0818 -0.0454  0.0042
 6982W        W23166   5.370   4.704  13.519 -0.4430 -0.1055 -0.0431
 6983W        W23167   2.937   7.235  12.676  0.1791 -0.0539  0.3722
 6984W        W23168  16.827  17.992   0.814 -0.2256 -0.2700 -0.1932
 6985W        W23169   8.169  13.065   3.049 -0.1546 -0.0757  0.0019
 6986W        W23170   4.991   7.690   5.385  0.0198 -0.0340  0.3396
 6987W        W23171   4.203   8.137   2.064 -0.2803 -0.0429  0.2507
 6988W        W23172   1.536  17.554   3.082 -0.3902 -0.0148  0.4713
 6989W        W23173  15.165   9.203   9.826 -0.1172 -0.2352  0.3044
 6990W        W23174  16.138  15.459   1.352 -0.1534  0.1265  0.0051
 6991W        W23175   6.341  17.597   3.427 -0.0286 -0.1555 -0.0407
 6992W        W23176   1.576  11.940  13.140  0.0141  0.2018  0.2759
 6993W        W23177  16.061  17.961  15.394  0.1405 -0.1088 -0.1397
 6994W        W23178   1.790  17.635  12.335  0.1127  0.1365  0.0872
 6995W        W23179  14.616  15.107  14.381 -0.2327  0.0536 -0.1291
 6996W        W23180   0.204   7.551  12.860  0.0044 -0.0896  0.0446
 6997W        W23181  10.393   4.155  10.117  0.0283  0.0013 -0.0912
 6998W        W23182   7.511   1.979  14.614 -0.1364 -0.1435 -0.3292
 6999W        W23183   1.145   7.224   4.146 -0.0236  0.0300 -0.0688
 7000W        W23184  15.187   9.813   5.302  0.1933  0.1124 -0.1016
 7001W        W23185   4.356   3.004   2.142 -0.3030  0.1424 -0.1242
 7002W        W23186  16.791   2.153   3.416  0.0608  0.1442  0.0886
 7003W        W23187  12.166  13.888   1.621  0.0255  0.4495  0.2160
 7004W        W23188   8.124  17.613  12.802  0.0353  0.1794 -0.1408
 7005W        W23189   1.036   2.940  11.800 -0.0924  0.1580  0.1557
 7006W        W23190  16.096   3.659  11.854  0.0832  0.0478 -0.2106
 7007W        W23191  10.465   8.702  15.229  0.1330 -0.1295 -0.1212
 7008W        W23192  16.697  12.142   4.027 -0.0841 -0.1560 -0.0993
 7009W        W23193   1.040  14.829  13.842 -0.1254 -0.2355  0.0420
 7010W        W23194   1.890  18.360   4.496  0.2231  0.1275 -0.2101
 7011W        W23195   8.495   2.853  12.772 -0.1919  0.0892  0.1814
 7012W        W23196   7.543  14.577   4.059 -0.0271 -0.2422  0.1807
 7013W        W23197   8.846   0.896  15.422 -0.0015 -0.1138 -0.0202
 7014W        W23198   2.267  10.497   5.910  0.0992 -0.3900  0.1186
 7015W        W23199   1.707  14.056   1.916  0.1048  0.2178 -0.0547
 7016W        W23200   5.311  13.284   3.607  0.2895 -0.0362 -0.0363
 7017W        W23201   3.556  10.098  11.176  0.3837  0.1584 -0.0185
 7018W        W23202   6.693   0.543  11.916  0.1758  0.1965 -0.3130
 7019W        W23203  17.340  17.989   1.333 -0.0768  0.2745 -0.2509
 7020W        W23204  11.586  16.487   0.038 -0.0228 -0.2200  0.1043
 7021W        W23205   5.968  15.830   3.146 -0.1590 -0.0868  0.3942
 7022W        W23206  12.977   3.270  13.983  0.0774 -0.1333 -0.1076
 7023W        W23207   0.422  16.144  13.201  0.1621  0.0170 -0.0089
 7024W        W23208  15.015  16.238  14.917  0.2696  0.1068 -0.1225
 7025W        W23209   8.098  15.443  11.610  0.0165  0.2449 -0.0974
 7026W        W23210  17.223  14.086  11.479  0.1715  0.1859 -0.1894
 7027W        W23211   5.061   5.813  11.805  0.2867 -0.4320  0.0321
 7028W        W23212  18.629  10.776  12.478  0.0657 -0.2651 -0.3005
 7029W        W23213  13.050  10.429   0.531 -0.0090  0.0821  0.2340
 7030W        W23214  16.082  17.923  13.113 -0.2814 -0.0507 -0.0596
 7031W        W23215   0.662  15.444   5.389  0.0935 -0.5203  0.1802
 7032W        W23216   6.506  17.373  14.070  0.1001 -0.1785  0.0995
 7033W        W23217  13.612   8.677  14.820  0.3893  0.2926 -0.1633
 7034W        W23218   4.286  13.538   2.779  0.1697 -0.1754 -0.2987
 7035W        W23219  15.454  12.503   0.187 -0.1207  0.1079  0.1542
 7036W        W23220  15.897   8.752   4.275 -0.1904 -0.0469 -0.4919
 7037W        W23221   8.640   4.245  13.574  0.1411 -0.1488  0.4945
 7038W        W23222   3.129  17.619  12.436  0.0845  0.1646 -0.2572
 7039W        W23223   4.757  17.141  12.325 -0.0967 -0.3114 -0.0572
 7040W        W23224  15.365   4.492   2.539  0.3103  0.0825 -0.0311
 7041W        W23225  10.577  13.567   0.253  0.0093 -0.1737 -0.2231
 7042W        W23226   7.293   6.082   0.234 -0.2343 -0.3570 -0.0696
 7043W        W23227   5.348   0.227  11.771  0.3499  0.2877  0.3128
 7044W        W23228  13.333   2.256  11.619  0.1616 -0.3253 -0.0502
 7045W        W23229   4.679  12.241  15.364  0.3055 -0.0571 -0.1616
 7046W        W23230   0.377  17.345   0.991  0.2606  0.0615 -0.0341
 7047W        W23231   1.417   4.396  10.818  0.3490 -0.3021 -0.1246
 7048W        W23232   4.895  18.135   3.383  0.1823 -0.3647  0.1338
 7049W        W23233  18.355  10.229   2.526 -0.4356  0.3029 -0.0324
 7050W        W23234   2.479   0.014  11.019  0.2126 -0.0169 -0.1324
 7051W        W23235  14.838  16.260   1.606 -0.0687  0.0899  0.0678
 7052W        W23236  17.850  14.685  12.612  0.3010  0.1601  0.0350
 7053W        W23237  15.795   1.339   0.673 -0.1320  0.2154 -0.0831
 7054W        W23238   9.765  11.116  13.993  0.3015 -0.1403 -0.2696
 7055W        W23239   7.609  10.222  14.363  0.0343 -0.0043 -0.0729
 7056W        W23240   5.530   1.937   9.972  0.1992  0.0133  0.1448
 7057W        W23241   6.209   4.231   0.291  0.0466  0.0033 -0.0521
 7058W        W23242  14.113  10.409   2.893 -0.0438  0.1838  0.0839
 7059W        W23243   8.725  11.923   3.959  0.3772  0.0827 -0.1921
 7060W        W23244  17.792   4.824   1.910  0.0129  0.0566  0.0336
 7061W        W23245   5.381   7.544   1.289 -0.0391  0.1753  0.1735
 7062W        W23246  12.265   5.790  15.009 -0.1115 -0.1674 -0.1084
 7063W        W23247  10.825  18.295   5.227  0.2587 -0.1691  0.3724
 7064W        W23248   5.468  16.364  13.404  0.1331  0.2731 -0.0358
 7065W        W23249  15.615   9.050  13.149  0.0280  0.2002  0.1786
 7066W        W23250  11.074  16.782   5.501  0.1198 -0.0524 -0.0900
 7067W        W23251  12.929  12.841  11.057 -0.2229  0.1251 -0.0197
 7068W        W23252   0.193   4.840   3.713 -0.2727 -0.0127  0.0417
 7069W        W23253   3.338  12.753   0.295  0.0613 -0.1157 -0.1225
 7070W        W23254   7.172  18.074   2.109 -0.3656 -0.2780 -0.2007
 7071W        W23255   8.958   6.316   4.470  0.2405 -0.1161 -0.0828
 7072W        W23256   6.290  11.966   3.363  0.1051  0.1128 -0.1004
 7073W        W23257  13.782  17.190   2.138 -0.0168  0.1483  0.0831
 7074W        W23258  10.671   0.865   5.429 -0.1205  0.0811 -0.2294
 7075W        W23259   7.753  15.289  14.103  0.3292 -0.0675 -0.0886
 7076W        W23260  11.910  15.059   4.193  0.2232 -0.1214 -0.0241
 7077W        W23261  11.219   0.537  13.208  0.0566  0.2225  0.0057
 7078W        W23262  14.020  10.210  11.762 -0.1279 -0.0407  0.0676
 7079W        W23263   7.214   1.559   0.345 -0.3003 -0.0052  0.4416
 7080W        W23264   0.160  11.060  11.517 -0.2072 -0.2599  0.3948
 7081W        W23265  12.307   9.880   3.205  0.1640  0.2190  0.1412
 7082W        W23266   6.234   5.657   2.165 -0.1430 -0.0645  0.0344
 7083W        W23267   0.519   9.636  12.606  0.2262  0.2696 -0.1318
 7084W        W23268   8.650  10.935  11.834  0.0780 -0.1438  0.0813
 7085W        W23269   0.046   0.870   2.295  0.1583 -0.0972 -0.1372
 7086W        W23270  18.060   2.217  14.510  0.1391 -0.2813  0.0631
 7087W        W23271  13.170   8.464   2.558 -0.1219 -0.1397  0.0351
 7088W        W23272  16.120  12.271  12.491 -0.0471  0.0478 -0.3665
 7089W        W23273   0.212   7.220   2.561 -0.0293  0.3780  0.1696
 7090W        W23274   6.443   0.785  12.641  0.1360 -0.0823  0.1993
 7091W        W23275  18.819   8.173   5.041 -0.3471  0.5565  0.2190
 7092W        W23276   7.303  10.850   4.075 -0.0053  0.1647  0.0334
 7093W        W23277   0.735   9.458   3.312  0.2094  0.2029 -0.0812
 7094W        W23278   7.110   9.107  15.262 -0.0982 -0.2062  0.3177
 7095W        W23279   1.837   9.101  13.190 -0.2566 -0.0467  0.1282
 7096W        W23280  16.045  10.614   2.287 -0.0474 -0.0655  0.1404
 7097W        W23281  11.187   5.536  14.118  0.0562  0.0558 -0.2136
 7098W        W23282   2.977  16.797  12.897 -0.1399 -0.1551  0.1297
 7099W        W23283  14.332   5.768   2.012 -0.0962  0.0445 -0.1195
 7100W        W23284   6.802  17.020   0.176 -0.4349 -0.0017  0.2529
 7101W        W23285  18.111   0.670  13.701  0.3322  0.0094 -0.2911
 7102W        W23286   8.074   7.788  12.438  0.1409  0.5253  0.1577
 7103W        W23287  13.027   1.421   2.412 -0.1183 -0.0754 -0.2306
 7104W        W23288   2.949  18.284   1.104 -0.2901  0.0867 -0.0863
 7105W        W23289   2.769  15.029   1.121  0.0305 -0.0391  0.1668
 7106W        W23290  10.565  14.931   3.947  0.2036  0.1919  0.0112
 7107W        W23291   3.159  12.536   1.136 -0.0792 -0.0922 -0.3176
 7108W        W23292  15.625   3.298  12.522  0.1629  0.0038  0.2933
 7109W        W23293   8.470  16.838  15.047 -0.1597 -0.2110 -0.2888
 7110W        W23294   6.529  18.609   1.228  0.0516  0.1871  0.2405
 7111W        W23295   5.801  13.960   0.630  0.0375  0.3232 -0.0739
 7112W        W23296  10.475  17.396   1.595  0.0350 -0.0158  0.1186
 7113W        W23297   9.117  14.403   1.703 -0.0869  0.4362 -0.1430
 7114W        W23298  18.112  12.013  13.402 -0.2533  0.0819 -0.1117
 7115W        W23299   2.079  13.733  11.992  0.0581 -0.0287 -0.4496
 7116W        W23300   5.898  13.005   1.071  0.1528  0.2334 -0.1202
 7117W        W23301  10.194   5.268   0.454 -0.1796  0.0759 -0.0187
 7118W        W23302   6.965  10.753   0.800  0.2849 -0.2802 -0.2440
 7119W        W23303   6.930  11.494   9.269 -0.0978 -0.3886 -0.0760
 7120W        W23304  18.435  14.504   5.132  0.0176 -0.1215 -0.1914
 7121W        W23305   4.346  15.965  10.426 -0.1388  0.1843  0.1668
 7122W        W23306  16.667  12.795   4.044 -0.0294 -0.0022 -0.3318
 7123W        W23307   4.402   6.864   5.191  0.1044  0.3762  0.1445
 7124W        W23308  17.966   1.209   4.596 -0.1519 -0.0043 -0.1419
 7125W        W23309   2.448  10.359  15.308 -0.2072 -0.1928  0.0563
 7126W        W23310  13.190  13.304   2.533 -0.1645 -0.0589 -0.1485
 7127W        W23311  12.401  15.686  14.964  0.1677  0.0755 -0.0531
 7128W        W23312  16.911  14.894   2.985 -0.0597  0.0730 -0.1809
 7129W        W23313   7.189  16.149  15.411 -0.2114  0.1578 -0.0087
 7130W        W23314  12.299   4.434   4.853  0.0096  0.1357 -0.1589
 7131W        W23315   4.479  14.803   3.662 -0.0103  0.3191 -0.2470
 7132W        W23316   7.690   6.701  12.896 -0.1276 -0.2415 -0.5216
 7133W        W23317  16.313   3.075   1.121 -0.0260 -0.1626 -0.0663
 7134W        W23318   6.464  14.920   3.366  0.0216  0.1842 -0.0137
 7135W        W23319  15.934   2.878   4.145 -0.0602 -0.3345 -0.1591
 7136W        W23320   3.753  16.230   4.995  0.2739  0.1034  0.0074
 7137W        W23321   8.447  14.268   4.557  0.1879  0.0204 -0.0765
 7138W        W23322  12.638   7.057   0.159 -0.0689 -0.1633  0.2774
 7139W        W23323   6.697  11.688  10.970 -0.2212  0.0749  0.0560
 7140W        W23324   1.789   8.373  13.995 -0.1094 -0.5266 -0.3154
 7141W        W23325  15.899   4.510  11.845 -0.0916  0.0792 -0.0352
 7142W        W23326  18.200  14.633   4.162  0.0952 -0.0978 -0.1390
 7143W        W23327  11.251   5.526  15.387 -0.0414 -0.2867  0.0849
 7144W        W23328   0.402   2.250  13.249 -0.0049 -0.1341 -0.0584
 7145W        W23329  13.170   9.979   0.874 -0.0271 -0.0341 -0.2720
 7146W        W23330  14.979   7.170   4.260 -0.1537  0.1135  0.0836
 7147W        W23331   2.605  13.327   0.747  0.0455  0.0164 -0.0468
 7148W        W23332   1.953  16.519   4.627  0.2822 -0.1426 -0.1906
 7149W        W23333   7.099   5.365  11.901 -0.0938  0.1228 -0.1552
 7150W        W23334  10.973  15.509   4.212 -0.4975 -0.1309  0.1642
 7151W        W23335  12.802   2.615   3.094  0.3140 -0.5534  0.1127
 7152W        W23336  12.700   4.512   4.404 -0.1559  0.0858 -0.0278
 7153W        W23337   6.972   5.322  14.877  0.3002  0.0882  0.2691
 7154W        W23338   5.046  18.172  11.807  0.0495  0.0286  0.0734
 7155W        W23339  10.254  18.178   2.674  0.0470  0.1862  0.1804
 7156W        W23340   7.680   6.018  15.144  0.0576 -0.0223  0.0282
 7157W        W23341   4.542   3.667   3.880 -0.0434 -0.1514 -0.0707
 7158W        W23342  13.299   1.006  10.885 -0.3572 -0.3938 -0.1997
 7159W        W23343  16.613   9.348   5.418  0.2089 -0.0454 -0.1556
 7160W        W23344   6.351  14.870  13.349 -0.2277  0.1427  0.0699
 7161W        W23345  14.178   3.189   2.979  0.0190 -0.1366 -0.2585
 7162W        W23346   6.343   6.135   1.991 -0.1537 -0.3565  0.0209
 7163W        W23347   5.782  14.432   5.631  0.0944 -0.1062  0.0687
 7164W        W23348   2.925   1.090   0.981 -0.5298  0.0472 -0.3113
 7165W        W23349  11.895  14.939   2.346 -0.1504 -0.0243 -0.1793
 7166W        W23350   7.894  12.725   1.825  0.0467 -0.1124  0.0892
 7167W        W23351   7.930  13.798   4.733  0.2355  0.1576 -0.1202
 7168W        W23352  10.621   5.229  12.365 -0.1155  0.1044 -0.2324
 7169W        W23353   6.710  13.722  11.637  0.1351 -0.2613 -0.1784
 7170W        W23354  15.416   4.498   4.239  0.1482 -0.2217  0.0392
 7171W        W23355  10.025  15.504  14.494 -0.0285  0.1162  0.0797
 7172W        W23356  14.216  11.608   4.662 -0.2432 -0.0194  0.1607
 7173W        W23357   1.616   9.087   1.260  0.1227 -0.0254 -0.2532
 7174W        W23358  18.252  14.444   1.240  0.1082 -0.0041 -0.0592
 7175W        W23359  11.281  15.749  11.793 -0.2902  0.0552  0.1527
 7176W        W23360   2.338  14.295   1.597  0.1152 -0.0187  0.0075
 7177W        W23361  15.815   4.440  12.377 -0.1312  0.0703  0.1492
 7178W        W23362  18.722   3.136  15.228 -0.2324  0.1192 -0.0769
 7179W        W23363  10.679   2.220  13.815  0.0445  0.1317  0.1025
 7180W        W23364  15.876  17.728   0.288 -0.0205 -0.0498 -0.0659
 7181W        W23365  16.466  15.685  14.113 -0.1073  0.4196  0.2707
 7182W        W23366   4.531   8.966   2.556 -0.0073 -0.0776  0.3683
 7183W        W23367   4.343  13.100  12.661  0.2902 -0.0334  0.1494
 7184W        W23368  13.963   8.474   0.216 -0.2546  0.1871 -0.1659
 7185W        W23369  13.737   0.101  14.991  0.3402 -0.3056  0.0057
 7186W        W23370  16.014   3.769   5.198 -0.1820  0.1381 -0.1490
 7187W        W23371   4.700   6.907  13.764  0.1111  0.0661 -0.0095
 7188W        W23372   5.690  16.896  11.854  0.2281  0.1577  0.1413
 7189W        W23373  18.418  13.187   0.919  0.0775  0.0488  0.2543
 7190W        W23374   5.660  16.445  11.567  0.3915  0.2135  0.0417
 7191W        W23375  13.940   8.894  12.327  0.4367  0.0365  0.1343
 7192W        W23376  18.368  18.838   4.845 -0.2183  0.1116  0.1661
 7193W        W23377  11.632   7.012  12.110 -0.1366 -0.1669 -0.3489
 7194W        W23378   4.218  12.327   0.898 -0.0691 -0.1890 -0.0792
 7195W        W23379  18.757  17.620   5.404 -0.0498 -0.1077  0.2079
 7196W        W23380  15.601  16.633   3.431 -0.4504  0.2785  0.0366
 7197W        W23381   1.789   6.372  12.256  0.2380  0.1024 -0.0214
 7198W        W23382  16.092  12.725   5.765  0.1997  0.0177 -0.1607
 7199W        W23383  12.623  10.468  11.852 -0.2600 -0.0452 -0.0001
 7200W        W23384  16.912   5.384   4.951  0.0032 -0.5151  0.2183
 7201W        W23385  13.275   6.390   3.825 -0.0317 -0.2360 -0.2059
 7202W        W23386  10.490   3.353  14.910  0.3583 -0.0596 -0.0718
 7203W        W23387  15.948  15.062  15.482 -0.2616  0.1982  0.1782
 7204W        W23388   3.775  12.001   3.741 -0.0010 -0.3559 -0.1074
 7205W        W23389  15.073   4.050   2.463 -0.1038  0.0193  0.0025
 7206W        W23390   1.333  14.347   3.424  0.1382  0.1023  0.1477
 7207W        W23391   0.173  17.035  13.309  0.1560  0.1178 -0.2333
 7208W        W23392   1.289   8.587  14.039 -0.2473  0.2291 -0.0065
 7209W        W23393   3.074   1.300  14.545  0.2900 -0.4049  0.5189
 7210W        W23394  11.209   8.258   4.608  0.0276  0.0311  0.1798
 7211W        W23395  17.898  16.640   2.536 -0.1536 -0.1045  0.2425
 7212W        W23396   4.222  10.117   2.449 -0.1465 -0.2727  0.3466
 7213W        W23397   8.819   3.981   0.345 -0.1720 -0.1828  0.1822
 7214W        W23398  18.287  18.797   3.864  0.0258 -0.3995 -0.1027
 7215W        W23399  10.450   3.132   1.779  0.0363 -0.0420 -0.0064
 7216W        W23400  18.254   8.187  15.197 -0.1058 -0.1064 -0.0732
 7217W        W23401   0.899  14.053   3.565 -0.2298  0.1200 -0.4715
 7218W        W23402   0.571  12.651   5.132 -0.3017  0.4369  0.0931
 7219W        W23403  10.345  14.482   4.607 -0.0866 -0.1659  0.0597
 7220W        W23404   4.460   8.510   4.577  0.0655  0.0638 -0.1250
 7221W        W23405   1.643   2.456   1.805 -0.1158  0.3267 -0.1474
 7222W        W23406  17.628   1.942   3.868 -0.0325 -0.1524  0.0264
 7223W        W23407   1.883   3.063   3.877 -0.0797 -0.1004  0.1311
 7224W        W23408   0.119   0.456  10.916  0.1460 -0.3242  0.0552
 7225W        W23409  10.219   5.856   3.892 -0.0107  0.1601 -0.3449
 7226W        W23410   5.285  10.317   1.620 -0.0316 -0.0408  0.1482
 7227W        W23411   8.856  18.800  11.881  0.1705  0.0458  0.0360
 7228W        W23412  15.557  18.571  13.949  0.0216  0.0182  0.2166
 7229W        W23413   5.538   6.238  14.479 -0.0536  0.4252 -0.0721
 7230W        W23414  10.482   9.707  13.579 -0.2167  0.3388  0.0845
 7231W        W23415  15.843  15.050   4.706  0.1453  0.1366  0.1166
 7232W        W23416  14.968   6.650  11.688  0.0676  0.0253 -0.2522
 7233W        W23417  15.137  17.292   0.364  0.0803 -0.2666 -0.1370
 7234W        W23418   8.260  13.975  13.005 -0.2726 -0.1102 -0.0097
 7235W        W23419  10.642  13.354   2.384 -0.1213 -0.2086  0.0213
 7236W        W23420   7.893  11.190  10.928  0.0914  0.1466  0.1123
 7237W        W23421   8.954  10.923  12.832 -0.0151 -0.0837  0.1700
 7238W        W23422  12.642   1.415  14.697  0.2124  0.1470  0.2355
 7239W        W23423   9.984  14.031   0.267 -0.3392 -0.3630  0.3298
 7240W        W23424   1.043   7.739   1.557  0.0856  0.1142 -0.1349
 7241W        W23425  14.673  14.829  13.919  0.0997 -0.2622  0.0724
 7242W        W23426  15.535  15.908   0.093 -0.1085 -0.0535 -0.0601
 7243W        W23427  12.555  16.013   4.786  0.0102  0.2328 -0.0228
 7244W        W23428  16.196   0.826   0.310 -0.1323  0.0227 -0.2712
 7245W        W23429   1.778  13.578  11.572 -0.2986 -0.4877 -0.0306
 7246W        W23430   0.239  10.960  12.335  0.1212  0.2134 -0.2904
 7247W        W23431  11.623  12.828  14.603 -0.1744 -0.2213 -0.0218
 7248W        W23432   4.568   7.449  13.374 -0.2170 -0.4770 -0.0208
 7249W        W23433  17.147   8.524  14.566 -0.5442 -0.0736  0.0057
 7250W        W23434   0.402   2.964  12.774  0.0796 -0.1069 -0.2211
 7251W        W23435  15.832  17.208   1.955  0.1073 -0.2832 -0.0101
 7252W        W23436  10.482   4.907  14.600 -0.1502  0.1130 -0.0959
 7253W        W23437  13.141   2.036  13.711 -0.1277  0.2630  0.0691
 7254W        W23438   7.041   6.788  12.974 -0.4386  0.0076 -0.0508
 7255W        W23439  15.390  12.836  12.845 -0.1631 -0.0109  0.1905
 7256W        W23440  10.749   6.664  13.533 -0.1111 -0.3522  0.1946
 7257W        W23441  11.851  12.556  12.620  0.0039 -0.1795  0.3636
 7258W        W23442   8.775   7.734   1.302  0.3590 -0.1901  0.4890
 7259W        W23443  14.430  17.906  12.168  0.3295 -0.1195  0.2027
 7260W        W23444   1.012   7.415  10.476 -0.1718 -0.0034  0.1598
 7261W        W23445  11.818  15.524  12.438  0.0994 -0.1063 -0.1421
 7262W        W23446  16.027   2.922  14.289  0.2786 -0.0255  0.0797
 7263W        W23447  15.488   7.432   1.203 -0.1257  0.1171 -0.0728
 7264W        W23448  16.620  18.370  13.704  0.2847 -0.0919  0.0012
 7265W        W23449   3.504   5.130  10.712  0.2739  0.1133  0.0980
 7266W        W23450  14.588  12.503  14.999  0.1248  0.1791 -0.3619
 7267W        W23451  12.962  14.940  12.692  0.5019 -0.2090  0.0097
 7268W        W23452  14.526  12.707  11.266  0.4656 -0.3495 -0.0525
 7269W        W23453  17.895   6.450  10.957 -0.1900  0.3550 -0.1787
 7270W        W23454   8.982   1.620  10.965  0.3120  0.1418 -0.1848
 7271W        W23455   7.004  10.844  12.216 -0.0281  0.0834  0.1742
 7272W        W23456  16.171   3.192  13.953 -0.4713 -0.1482 -0.0417
 7273W        W23457   5.197  10.860   2.416  0.3795  0.0764  0.2045
 7274W        W23458   8.739  13.482   4.778 -0.1269  0.1120  0.0710
 7275W        W23459   8.145   6.102   3.237 -0.1266  0.2766  0.3062
 7276W        W23460   5.206   8.793  13.009 -0.3854 -0.4204 -0.1346
 7277W        W23461   5.767   3.565   3.793  0.1594 -0.5294  0.2240
 7278W        W23462  13.342   9.580  15.274  0.0909  0.0035 -0.3910
 7279W        W23463  15.474   0.701  12.385 -0.0964  0.0978 -0.0841
 7280W        W23464  13.458   6.865   5.196 -0.1468 -0.0922 -0.1678
 7281W        W23465   2.280  16.562   2.064  0.0050  0.1402  0.2706
 7282W        W23466   5.070   4.221   2.793 -0.0419  0.1041 -0.1328
 7283W        W23467   4.571   1.368   0.108 -0.1379 -0.0229  0.1893
 7284W        W23468   9.903  15.526   3.669  0.1449  0.2106  0.0489
 7285W        W23469  11.601   8.421  11.401 -0.2193  0.0963 -0.1793
 7286W        W23470   6.103  17.066  14.830 -0.0182 -0.1232  0.1699
 7287W        W23471  15.832  10.099   3.602 -0.1879  0.0860  0.2430
 7288W        W23472  17.117   3.392   4.368 -0.0098 -0.2066 -0.1657
 7289W        W23473  18.807  10.758  13.913 -0.1596 -0.2042 -0.2007
 7290W        W23474  18.717  14.226   4.814  0.1657 -0.2090 -0.0945
 7291W        W23475   0.893   1.208  13.951 -0.0775 -0.1417 -0.0515
 7292W        W23476   1.698  18.547   4.047  0.1115  0.1337 -0.1484
 7293W        W23477   9.653   4.111   2.214  0.0972 -0.0415  0.1369
 7294W        W23478  15.770  16.928  15.216 -0.1433  0.2075  0.0669
 7295W        W23479   6.249  13.361   3.826  0.0099  0.0121 -0.2450
 7296W        W23480   7.848   6.625  11.377  0.0107  0.1128  0.3016
 7297W        W23481  17.683  14.498   2.902 -0.3289  0.1441 -0.0607
 7298W        W23482   7.862   3.453   2.161 -0.2710  0.1922  0.1106
 7299W        W23483   7.645  17.871  13.003 -0.0690 -0.1709  0.1102
 7300W        W23484   6.834   7.389   2.325  0.1703  0.1480  0.0262
 7301W        W23485   6.579   5.695  13.267 -0.5393 -0.2698 -0.0424
 7302W        W23486  11.023   0.793   6.143  0.2568  0.0812  0.1223
 7303W        W23487  17.337  17.925   2.109  0.2078 -0.0647 -0.0129
 7304W        W23488  18.504   5.553   4.820  0.1125  0.7170  0.2939
 7305W        W23489  18.584  12.107   6.118 -0.0567  0.1660  0.2735
 7306W        W23490  14.061   7.802  15.097 -0.1559 -0.1153  0.3202
 7307W        W23491  16.789   6.699  11.169  0.2890 -0.2057  0.2290
 7308W        W23492  18.287  10.803  13.865  0.0563  0.1001 -0.0391
 7309W        W23493  12.935   4.867  11.658  0.0905  0.0537 -0.0268
 7310W        W23494   6.645   0.067   5.205  0.0687 -0.4086  0.0004
 7311W        W23495  13.446   3.359   3.151  0.1749 -0.2059  0.3372
 7312W        W23496   4.248   8.566   0.537 -0.0047 -0.0515 -0.2166
 7313W        W23497   3.584   7.959   1.179  0.0257 -0.0190  0.1207
 7314W        W23498   3.948  13.057  11.121 -0.3239  0.0271  0.2895
 7315W        W23499  12.277  14.365   2.333 -0.0899 -0.0307 -0.1568
 7316W        W23500  11.140  10.864  11.430 -0.0536  0.3260 -0.1581
 7317W        W23501   7.100  16.749  12.770  0.2043 -0.0643  0.2554
 7318W        W23502  11.926   9.098   2.100 -0.1056 -0.1274  0.1634
 7319W        W23503   9.135   3.707  14.663 -0.3576  0.0596  0.0763
 7320W        W23504   5.084  12.932   2.679 -0.1425  0.1419  0.1395
 7321W        W23505  17.743   5.514   0.693 -0.2054  0.0656  0.0959
 7322W        W23506   4.165   6.332   0.453  0.4413  0.1868 -0.3729
 7323W        W23507  15.831  14.408   4.041 -0.0896 -0.0740 -0.3193
 7324W        W23508   5.719   9.915   3.613 -0.0966 -0.1063  0.0175
 7325W        W23509  16.817   3.605  12.297 -0.0605  0.0951 -0.1407
 7326W        W23510   7.741   4.538   2.648  0.2492  0.1325 -0.0266
 7327W        W23511   1.196   1.820  11.573 -0.0090  0.1009 -0.2761
 7328W        W23512   1.582   8.422  11.995 -0.2285  0.0049  0.1790
 7329W        W23513  17.603  17.587   2.536 -0.0090 -0.1071  0.0344
 7330W        W23514   5.157   1.219   2.422 -0.1410  0.1099  0.1052
 7331W        W23515   8.447   6.272  10.148 -0.0505 -0.1194 -0.1827
 7332W        W23516   7.206   2.142   0.539 -0.0222 -0.2094  0.1208
 7333W        W23517   2.022   4.228   4.326 -0.0609  0.0703  0.1903
 7334W        W23518  15.604  18.278   5.216 -0.0319 -0.2269 -0.2889
 7335W        W23519   4.774  14.992   4.152  0.1570 -0.0921  0.3585
 7336W        W23520   2.877  11.653  11.534 -0.1503  0.0063 -0.1011
 7337W        W23521   2.285   1.449  13.285 -0.1529 -0.1548 -0.3694
 7338W        W23522   8.941   6.201  13.278  0.1310 -0.1062  0.0800
 7339W        W23523   4.569   6.423  12.978  0.1588 -0.2818  0.0603
 7340W        W23524   7.927  17.613   4.389  0.0014 -0.1390  0.2243
 7341W        W23525   3.029   4.362   1.110  0.0609  0.2306 -0.0095
 7342W        W23526  15.507   2.707  10.376 -0.4164  0.1244 -0.0153
 7343W        W23527   2.361   4.850   3.131 -0.1658 -0.1795  0.2206
 7344W        W23528  15.128  16.803  10.806 -0.1244 -0.2828  0.0808
 7345W        W23529   4.430   4.140   3.635  0.1456  0.2610  0.0744
 7346W        W23530  13.115   6.925  15.008  0.0148  0.0019 -0.0176
 7347W        W23531   9.514  13.117  11.468 -0.1039  0.1036 -0.1598
 7348W        W23532   5.290   5.563   2.235 -0.2295 -0.2243 -0.0211
 7349W        W23533  10.532   3.770   0.239 -0.2569  0.0395 -0.1891
 7350W        W23534   1.052   3.417   3.760  0.0267  0.0678  0.3094
 7351W        W23535  10.880   8.646   5.090 -0.3660 -0.2641  0.0966
 7352W        W23536   5.374  11.170  13.628  0.0051 -0.2768  0.1666
 7353W        W23537  13.603   5.661  14.842 -0.1105  0.1566 -0.0035
 7354W        W23538   0.050  14.420  10.850  0.2066 -0.0334  0.0859
 7355W        W23539   7.807  11.789   3.417 -0.0690 -0.1334 -0.0533
 7356W        W23540  10.425   7.011   3.487 -0.2746  0.0259  0.1299
 7357W        W23541   2.340  12.062   2.901 -0.1086 -0.2050 -0.1578
 7358W        W23542   9.233   6.666   1.942  0.4054 -0.1823  0.0413
 7359W        W23543  16.751  10.324   2.721  0.1204 -0.0708 -0.1637
 7360W        W23544  12.182  18.472  15.148 -0.1742 -0.0251 -0.2991
 7361W        W23545  10.128   6.398   0.148  0.1362  0.2067 -0.3219
 7362W        W23546  15.859   7.852  14.045  0.2833  0.1089 -0.1034
 7363W        W23547   3.442   4.334   1.427 -0.1708  0.2477  0.0818
 7364W        W23548  14.305  11.824   3.502  0.0304  0.1763  0.2792
 7365W        W23549   0.592   5.115  14.030  0.1127  0.1542  0.1148
 7366W        W23550  13.723  15.405   2.551  0.1096 -0.0125  0.0754
 7367W        W23551   0.292   9.412  10.947  0.0370 -0.2770 -0.2146
 7368W        W23552  12.837   0.588   4.346  0.0140  0.1452 -0.0534
 7369W        W23553   0.634   7.881  11.810  0.0914 -0.2248  0.4600
 7370W        W23554   1.060  10.254  13.691 -0.0853 -0.1809  0.0727
 7371W        W23555  13.859   1.555   4.979  0.2257  0.4036 -0.0473
 7372W        W23556   1.657  12.567   2.300 -0.2146  0.1051 -0.0148
 7373W        W23557  17.314   3.040  13.614  0.1005  0.0631  0.0719
 7374W        W23558   8.362   2.747   5.096  0.3266  0.0395 -0.1909
 7375W        W23559   8.139   6.274   0.922  0.1760  0.3351  0.0854
 7376W        W23560   6.916  16.098   4.915  0.0057  0.0949 -0.0338
 7377W        W23561  10.154   7.699  12.106  0.0403  0.1503  0.0793
 7378W        W23562   0.752   9.329   2.271 -0.2788 -0.2812 -0.0130
 7379W        W23563   2.748  16.720   3.120 -0.2600 -0.0843 -0.0260
 7380W        W23564  16.682  15.676  12.601 -0.0977  0.2941 -0.0997
 7381W        W23565   8.484  13.999  15.238 -0.1421  0.1107  0.0508
 7382W        W23566   7.187   7.513   4.884 -0.0178  0.0697  0.2759
 7383W        W23567   5.395  15.367   2.532 -0.0558  0.2325  0.0512
 7384W        W23568   3.521   7.631   3.894 -0.1458 -0.0032  0.0932
 7385W        W23569  12.013   1.365   0.101 -0.2417  0.1630  0.4295
 7386W        W23570   0.035  16.012   3.113 -0.0430  0.1708  0.2678
 7387W        W23571  17.031   5.737   1.438 -0.0904  0.0123 -0.1322
 7388W        W23572   0.143   4.386   3.957  0.1933 -0.1193  0.0833
 7389W        W23573  12.028  12.570  14.506  0.2352  0.2317 -0.3411
 7390W        W23574  10.206   5.717  12.489  0.1483  0.1966 -0.1829
 7391W        W23575   6.398  15.720  13.171  0.1683  0.1597 -0.0473
 7392W        W23576   3.421   8.839   0.862  0.3361  0.1501  0.1614
 7393W        W23577  12.466  17.497   5.101  0.1857 -0.0986  0.0988
 7394W        W23578   9.575  11.722   0.088  0.0102 -0.1105 -0.1442
 7395W        W23579  10.759   8.323  11.770  0.0952  0.0316 -0.1420
 7396W        W23580   3.597  11.865  12.079  0.0805  0.1255  0.1406
 7397W        W23581   3.310  14.551  10.984 -0.2358 -0.0140 -0.3120
 7398W        W23582   7.701   2.254  11.838 -0.0476  0.2749  0.2388
 7399W        W23583   6.165   0.802  15.302 -0.1858  0.2004 -0.1155
 7400W        W23584   0.763   1.744  12.378 -0.0143 -0.1099 -0.1452
 7401W        W23585  12.434  16.243  12.580  0.0942  0.3790  0.1205
 7402W        W23586   5.852   0.353  15.470 -0.0549  0.0661  0.2664
 7403W        W23587  15.560  11.729  11.460 -0.7645  0.3966  0.1300
 7404W        W23588   6.627   1.602  13.069 -0.2041 -0.1453  0.4056
 7405W        W23589   9.743  14.148   4.813 -0.3137 -0.1866  0.2228
 7406W        W23590  13.971  15.849   4.973  0.0034  0.2397  0.2300
 7407W        W23591   3.643  16.558   2.870 -0.1420  0.0647 -0.2763
 7408W        W23592   1.742   6.163   2.055 -0.0825 -0.1931 -0.1307
 7409W        W23593  18.329  17.634  13.767  0.1946  0.0498  0.3135
 7410W        W23594  12.948   8.846  11.501  0.2338 -0.0632 -0.1357
 7411W        W23595   5.590   5.130   0.881  0.2051 -0.2756 -0.2259
 7412W        W23596   4.757  11.116   3.888  0.2289 -0.1382 -0.2225
 7413W        W23597   8.223  15.064  12.277  0.0792 -0.0496 -0.0715
 7414W        W23598  15.039   7.744  10.118  0.0164  0.4760  0.2120
 7415W        W23599   9.076  17.003   4.479  0.1787  0.1781 -0.2634
 7416W        W23600  15.019  13.954   3.690  0.0449  0.1567 -0.2896
 7417W        W23601  15.769   5.324  11.290 -0.0601  0.0855  0.0809
 7418W        W23602  11.364   5.304  13.504  0.0622 -0.1657 -0.2579
 7419W        W23603  16.970   6.281  13.074 -0.2015  0.3507 -0.1383
 7420W        W23604  12.127   8.779   1.327  0.0071  0.0405  0.0019
 7421W        W23605  12.008  10.089   3.536  0.1191 -0.0884 -0.0918
 7422W        W23606   3.307   1.593   4.235  0.4381 -0.2183 -0.1833
 7423W        W23607  17.369   4.776   2.318 -0.0236  0.0402 -0.0399
 7424W        W23608   2.726   9.061   0.984 -0.2502  0.2474 -0.1102
 7425W        W23609   2.659   4.513   5.828  0.1820  0.1742 -0.0630
 7426W        W23610   1.955  15.057  10.797  0.0816 -0.0442 -0.0115
 7427W        W23611   4.937  16.258   3.730 -0.1459  0.1503 -0.2956
 7428W        W23612  16.708   8.773  14.931 -0.2456 -0.3952 -0.1086
 7429W        W23613   3.682  12.342   9.693 -0.2640 -0.1853 -0.1381
 7430W        W23614   8.211  12.180  14.120  0.0652 -0.0638 -0.2466
 7431W        W23615   1.950   5.947   4.549  0.4019  0.3282 -0.1549
 7432W        W23616  13.905   6.424   0.329 -0.0036  0.3821  0.2332
 7433W        W23617   7.716  16.297  14.536  0.0305  0.1438  0.2005
 7434W        W23618   5.895   3.191   1.313 -0.1163 -0.1396  0.2466
 7435W        W23619  12.833  16.768   0.475  0.1463  0.3221  0.3122
 7436W        W23620  18.711   6.724  12.661 -0.1997 -0.1209  0.1039
 7437W        W23621   1.101  17.532   2.847  0.0218  0.2582  0.2221
 7438W        W23622   3.882   1.167  14.960  0.3348 -0.0074 -0.0236
 7439W        W23623  10.979  18.354  10.824  0.3101  0.0707 -0.2628
 7440W        W23624   3.732  12.588  11.062  0.1441 -0.1697  0.0988
 7441W        W23625  10.988  14.303   0.626  0.0580  0.0326  0.2211
 7442W        W23626  13.270  13.462   2.063  0.2140 -0.1987  0.2480
 7443W        W23627  15.115   4.753   3.347 -0.1435  0.1513 -0.1010
 7444W        W23628   1.981  18.818  11.262 -0.1205  0.2601 -0.1322
 7445W        W23629  13.746   4.160  13.326 -0.0302 -0.0369  0.1284
 7446W        W23630   2.093   1.055   2.351  0.0010 -0.1678  0.0908
 7447W        W23631  10.313  13.529   5.578  0.2292 -0.0081 -0.1462
 7448W        W23632   9.008   6.583  13.673 -0.3448  0.1187  0.0219
 7449W        W23633  14.715  12.275  11.631  0.0401  0.2241  0.0821
 7450W        W23634  15.721  18.308   0.476  0.0139 -0.0827  0.0400
 7451W        W23635  10.980  16.548   2.849  0.0956  0.0556  0.0621
 7452W        W23636   6.076   8.958   1.679  0.2352  0.1958 -0.1749
 7453W        W23637  11.128  18.054   2.953  0.2455 -0.1833 -0.0561
 7454W        W23638   2.175   6.061  12.167  0.1013  0.2697  0.0699
 7455W        W23639  15.949   6.254   4.224 -0.1079  0.2253  0.0463
 7456W        W23640  16.249   4.039   3.917 -0.2777 -0.2216 -0.0480
 7457W        W23641  13.412  12.682  15.272  0.0109  0.1526 -0.2073
 7458W        W23642  16.328  16.140  12.706 -0.0167  0.0992 -0.2603
 7459W        W23643  13.246  11.043   0.043 -0.3014  0.0053  0.0401
 7460W        W23644  14.937  13.860   5.219 -0.1390 -0.1591 -0.1460
 7461W        W23645  15.580  12.343  12.600  0.1457 -0.0818  0.3117
 7462W        W23646  15.177   2.933  13.929  0.0380 -0.3535 -0.1207
 7463W        W23647  14.302  17.666  13.595  0.0643  0.0189 -0.1835
 7464W        W23648  12.916   3.503  14.770 -0.1589 -0.0119  0.1566
 7465W        W23649   8.101   0.982   2.708 -0.2103  0.2649 -0.5178
 7466W        W23650  18.223  16.884  10.856  0.2413 -0.0555 -0.1109
 7467W        W23651   0.796  15.244   2.149  0.0505  0.1412  0.0216
 7468W        W23652   7.497  14.567   3.577 -0.1513 -0.2951  0.4516
 7469W        W23653  13.311   1.828  12.653 -0.2690  0.1362  0.0128
 7470W        W23654  12.192   9.777  11.380 -0.0978  0.0330 -0.0017
 7471W        W23655  14.561   9.747  12.196  0.0783  0.0085  0.1105
 7472W        W23656  13.844   2.393   0.615  0.1387  0.0494  0.1880
 7473W        W23657  11.327  11.108   4.932  0.0631  0.3003  0.2208
 7474W        W23658   7.490   1.997   3.417  0.0809  0.0092  0.0434
 7475W        W23659   0.251  17.571  11.485  0.0723 -0.1603  0.0378
 7476W        W23660  18.255  13.645  15.402 -0.0646  0.2055 -0.0247
 7477W        W23661   6.677  11.589   2.662  0.0164 -0.0282 -0.1640
 7478W        W23662   0.973  16.774   2.214  0.1688  0.1052 -0.0899
 7479W        W23663   5.366  11.741   3.464 -0.1156  0.0563  0.2836
 7480W        W23664   1.234   5.375  14.740  0.2789 -0.2157 -0.1455
 7481W        W23665  10.299   6.643  13.726  0.1655  0.2042 -0.0397
 7482W        W23666   7.552  11.952   2.395  0.3093  0.3460 -0.2076
 7483W        W23667  12.545   0.635   2.737 -0.1561  0.0715  0.1283
 7484W        W23668   9.103   4.729   4.375  0.1897  0.3145  0.2834
 7485W        W23669   8.813   5.829   4.812  0.1910 -0.0523 -0.2190
 7486W        W23670   8.223   4.488   4.596 -0.0058  0.0022 -0.2063
 7487W        W23671  12.686   4.713  13.246 -0.0796 -0.1428 -0.1861
 7488W        W23672  12.530  15.563   2.534 -0.2259  0.0950  0.3158
 7489W        W23673  12.756  10.225   2.308  0.1185  0.1152  0.0592
 7490W        W23674   3.292   4.768  11.812 -0.2354  0.0550 -0.2938
 7491W        W23675  11.405   1.342  11.424 -0.2318 -0.0506  0.1875
 7492W        W23676   6.978  17.824   3.946 -0.0410  0.2730  0.0535
 7493W        W23677  11.096  16.357  13.655  0.0978 -0.2636  0.1152
 7494W        W23678  15.558  18.098   1.875  0.1737 -0.1113 -0.1091
 7495W        W23679  11.581  13.586   2.945  0.2589  0.1699 -0.0830
 7496W        W23680  17.664  12.565  15.121  0.1588  0.0612 -0.0912
 7497W        W23681  18.700   2.439  11.670 -0.1890  0.0010 -0.1601
 7498W        W23682  18.174  16.084   2.121 -0.0767  0.0687  0.2440
 7499W        W23683  10.274  14.668   3.451 -0.2485 -0.3318 -0.2128
 7500W        W23684  15.916   7.617   4.070  0.0025  0.0664  0.4804
 7501W        W23685   9.933  10.861  13.552  0.2252  0.0806 -0.0096
 7502W        W23686   9.558  12.385   3.437  0.0255 -0.3060  0.6132
 7503W        W23687  17.531  14.063   3.718 -0.0837 -0.4337 -0.0215
 7504W        W23688   6.708   7.353  11.226  0.1009 -0.0040  0.1572
 7505W        W23689  12.464  18.416  13.359 -0.2133 -0.1706  0.1367
 7506W        W23690   3.897   4.787  14.787  0.2585 -0.1119 -0.2265
 7507W        W23691   8.727  18.201   1.763  0.0695 -0.2309 -0.0881
 7508W        W23692  12.378  18.664   6.006 -0.0435 -0.1534 -0.2247
 7509W        W23693  15.155   7.072   3.205  0.0112 -0.0138  0.1681
 7510W        W23694   1.822   1.346   0.946 -0.3029  0.1768  0.2200
 7511W        W23695  10.526   1.604  11.077  0.1427  0.2328 -0.0914
 7512W        W23696   6.658   6.115   3.564 -0.2678 -0.3761 -0.2293
 7513W        W23697  15.905   7.369   3.547  0.1381 -0.1897  0.2051
 7514W        W23698   2.103   5.472   0.475 -0.0048 -0.2104  0.0865
 7515W        W23699  11.735  14.039  11.618  0.0850  0.2716 -0.0280
 7516W        W23700  14.221  12.145  12.183  0.0109 -0.1400  0.3884
 7517W        W23701  12.299  11.129   1.186  0.1683  0.1177  0.0540
 7518W        W23702   0.798  12.191   5.364  0.0193 -0.1462  0.5047
 7519W        W23703  10.487  18.815   4.571 -0.3532 -0.1624  0.3163
 7520W        W23704   8.921  18.434   2.841 -0.2828 -0.1188  0.0786
 7521W        W23705  16.333   2.114  14.523 -0.0909 -0.0579  0.2529
 7522W        W23706  15.578  12.730  13.442  0.2039 -0.4344 -0.0431
 7523W        W23707   4.085  15.746  13.118 -0.0236 -0.1959  0.2752
 7524W        W23708   9.676  18.361   1.542  0.0710  0.2216 -0.1736
 7525W        W23709   4.199   1.373  10.621  0.4237 -0.2216 -0.0774
 7526W        W23710  10.447   7.866  12.992 -0.2445  0.4002 -0.0440
 7527W        W23711  13.855  17.816  13.468  0.1337 -0.2821  0.0968
 7528W        W23712   9.582  16.786   1.920  0.1303  0.4230  0.1157
 7529W        W23713  17.154   0.154  11.312 -0.3469 -0.2703 -0.0576
 7530W        W23714  14.638   6.246   0.512  0.0072  0.2828 -0.1325
 7531W        W23715  11.387   6.716  11.129  0.0009  0.4225  0.1616
 7532W        W23716  18.023   2.296  13.010  0.1557  0.0477  0.1373
 7533W        W23717  12.717   8.184   0.658 -0.2173 -0.3274 -0.3275
 7534W        W23718   1.222   7.145  14.618  0.0337 -0.1866 -0.1636
 7535W        W23719   4.381   1.562  12.998  0.2957 -0.0941 -0.2205
 7536W        W23720  17.094   3.674   1.941 -0.1775  0.0027 -0.0634
 7537W        W23721  11.697  10.745   2.891 -0.1213 -0.0221 -0.0066
 7538W        W23722  11.810   0.306  11.622  0.3101  0.3671 -0.0355
 7539W        W23723  10.034  18.337   5.204 -0.0529  0.1516  0.1831
 7540W        W23724   1.815   4.817   0.974 -0.1513  0.2769 -0.0875
 7541W        W23725  12.835   1.797  12.936 -0.2137  0.1980 -0.0026
 7542W        W23726  10.672   0.555  13.484 -0.2087 -0.0503  0.1370
 7543W        W23727   7.120  18.440  11.710 -0.0108 -0.1130 -0.0731
 7544W        W23728   8.662   3.900   3.527  0.1096 -0.1237 -0.3299
 7545W        W23729  17.679   9.693   0.863 -0.0721 -0.0918 -0.0209
 7546W        W23730  12.360   5.893   3.418  0.0598 -0.0012  0.0268
 7547W        W23731   9.979   3.114  15.017 -0.1716 -0.0425  0.0282
 7548W        W23732  13.758   5.862  10.961 -0.0406  0.0722  0.1440
 7549W        W23733   6.832   7.425   1.824 -0.1870 -0.2123 -0.0237
 7550W        W23734  16.929   4.124  11.615 -0.1972  0.3385 -0.4633
 7551W        W23735  11.143   2.019  13.713  0.4409 -0.0127 -0.2239
 7552W        W23736  10.615  12.066  15.333 -0.0439 -0.1938 -0.0009
 7553W        W23737   1.969   0.572  12.342 -0.1249 -0.1013 -0.0922
 7554W        W23738  16.888  12.649  12.054  0.0931 -0.0755 -0.4635
 7555W        W23739  16.122   4.619   0.344 -0.2675 -0.0533 -0.1553
 7556W        W23740   3.363   6.084  10.991 -0.0337 -0.1185 -0.0081
 7557W        W23741   1.916  15.551   0.465  0.1822  0.0331  0.1191
 7558W        W23742  12.133  11.536  11.901 -0.2842 -0.1271  0.0986
 7559W        W23743   4.634   2.620   1.872  0.1308  0.0126 -0.0425
 7560W        W23744  14.386   2.818   5.363 -0.3145 -0.2187 -0.0355
 7561W        W23745   6.361   1.958   3.646 -0.2682 -0.1465  0.1423
 7562W        W23746  10.407   2.658  11.202  0.3409  0.0443  0.1056
 7563W        W23747  16.814  10.080   3.529 -0.0464 -0.1560 -0.1066
 7564W        W23748   0.347   6.295   3.150 -0.1345  0.0009  0.3458
 7565W        W23749   5.088   0.958  15.023  0.0151  0.3413  0.1757
 7566W        W23750  11.147   7.424   2.735 -0.0540 -0.5542 -0.1993
 7567W        W23751  13.025  16.040   0.980  0.0256  0.2908 -0.3241
 7568W        W23752   7.969   9.221   0.113 -0.0880 -0.3228  0.2113
 7569W        W23753   4.599   5.156  11.013  0.0933  0.2359 -0.1814
 7570W        W23754   4.765  17.900  15.041  0.2332  0.1636 -0.1567
 7571W        W23755  16.059   1.988  14.075  0.3172 -0.0746  0.4794
 7572W        W23756   1.647   6.373   0.974 -0.1024 -0.3265 -0.0905
 7573W        W23757  15.025   8.230   5.965 -0.1310  0.0405  0.0365
 7574W        W23758   2.444  16.101   3.672 -0.0892 -0.0464 -0.0347
 7575W        W23759  13.099  14.962  10.749  0.0131  0.2436 -0.1705
 7576W        W23760  13.798   0.602   3.690  0.0586 -0.2596 -0.1145
 7577W        W23761  17.125   8.305  13.007  0.0797  0.1907 -0.0853
 7578W        W23762  16.636   2.752  12.029 -0.1544  0.0862 -0.0199
 7579W        W23763   3.168  10.321  14.678  0.0640  0.2592  0.1582
 7580W        W23764   8.571  18.837   2.939  0.1394 -0.1533  0.3217
 7581W        W23765  10.683  15.427  12.842  0.3355 -0.1315 -0.0096
 7582W        W23766   3.395   1.445   1.821  0.1306  0.0783  0.2541
 7583W        W23767  10.755   6.393  12.918 -0.3975 -0.0443  0.3115
 7584W        W23768  10.147  16.296   0.377  0.3096  0.0641  0.1857
 7585W        W23769   1.010  10.696  10.946  0.0981  0.1917  0.0710
 7586W        W23770  17.276   5.496   3.800  0.2140  0.1267 -0.2417
 7587W        W23771   3.385   2.015   4.589  0.2420  0.0060 -0.1664
 7588W        W23772   4.319  17.591  15.275 -0.0726 -0.1254 -0.1285
 7589W        W23773   0.102   7.910  11.913 -0.2180  0.1901 -0.1556
 7590W        W23774   7.558  13.199   1.980 -0.0746 -0.0372 -0.4531
 7591W        W23775   1.449   5.755   4.820 -0.0157 -0.0853  0.0438
 7592W        W23776   4.437   6.403   3.666  0.3063  0.2368  0.0908
 7593W        W23777   1.697   0.537   4.882 -0.1281 -0.0807  0.1468
 7594W        W23778   6.944  18.684   0.981 -0.1235  0.0571  0.0451
 7595W        W23779  16.742  13.298   3.719  0.0113 -0.0612 -0.1701
 7596W        W23780   6.095   4.747   5.183  0.2556  0.1217 -0.1270
 7597W        W23781  14.103   8.395   1.650 -0.2438 -0.1343  0.0395
 7598W        W23782  14.169  14.691  13.439  0.2632  0.2198 -0.1588
 7599W        W23783   0.002  13.138  15.116  0.0525  0.1918  0.0234
 7600W        W23784   8.586   6.248   0.697  0.1022 -0.1481 -0.0287
 7601W        W23785   3.599   7.303   1.622 -0.0403 -0.1854 -0.2893
 7602W        W23786   7.616   8.757  14.200 -0.0958 -0.1965 -0.1948
 7603W        W23787   9.627  16.791  12.014  0.2046 -0.1356 -0.2786
 7604W        W23788   6.382   2.290   1.877 -0.0276  0.1417  0.3180
 7605W        W23789  11.849  12.288   2.506 -0.1566 -0.0004  0.1132
 7606W        W23790  14.946   5.656   5.347 -0.0889 -0.4523  0.2277
 7607W        W23791   4.392  10.677  12.683  0.1236 -0.0927  0.2791
 7608W        W23792  15.351   9.724  13.737  0.2321 -0.0381  0.0919
 7609W        W23793   2.224   1.140   0.725  0.1539  0.0400  0.2862
 7610W        W23794  14.412  10.648  14.194 -0.2451 -0.0229 -0.3901
 7611W        W23795  11.802  18.239   0.690 -0.2110  0.0925 -0.0855
 7612W        W23796   0.752  14.531  14.095  0.0594  0.1040  0.1353
 7613W        W23797   4.322  11.839   0.858  0.0758 -0.1794 -0.0916
 7614W        W23798  12.589  17.755  12.258 -0.2402  0.3415  0.3595
 7615W        W23799  13.034   4.128   5.381  0.2667  0.0902  0.1491
 7616W        W23800   1.852  15.518  11.989  0.0537  0.4585  0.0875
 7617W        W23801  13.822   7.743  12.563  0.1702 -0.3219 -0.0299
 7618W        W23802   9.451  12.215  14.685 -0.1145  0.1428 -0.0476
 7619W        W23803   5.574  16.047  12.366  0.6246 -0.1088  0.2114
 7620W        W23804  15.473   7.746  13.825  0.2929  0.1085 -0.2304
 7621W        W23805   8.221   0.065   3.808 -0.2644  0.0073 -0.0671
 7622W        W23806   8.328   3.492  11.067 -0.3589  0.0343 -0.1217
 7623W        W23807  18.049  15.806  11.436  0.1897  0.1016 -0.0635
 7624W        W23808  18.578  10.634  11.089  0.2876  0.2499  0.1047
 7625W        W23809  18.519   7.880  10.879  0.2898  0.0048 -0.3725
 7626W        W23810   8.182   1.627  11.585 -0.0312  0.2026 -0.2649
 7627W        W23811  16.750  14.797   2.494 -0.1494 -0.0517  0.0951
 7628W        W23812  16.619   8.886   2.873  0.1554  0.1028 -0.0170
 7629W        W23813  10.987  11.510   2.709  0.2967  0.0895 -0.1135
 7630W        W23814  17.739   2.465  12.493 -0.0498 -0.0315 -0.1045
 7631W        W23815  12.334  10.284   4.466 -0.2652 -0.1378 -0.0214
 7632W        W23816   3.613  13.383  11.419  0.1734  0.3440 -0.2714
 7633W        W23817  12.159   9.313   0.029 -0.2449 -0.0885 -0.3561
 7634W        W23818   4.447  11.430  10.550  0.0616 -0.0349  0.3670
 7635W        W23819  14.128  17.988  13.938  0.0354 -0.3883 -0.2539
 7636W        W23820  18.685   4.097   3.673 -0.0416 -0.0575 -0.1019
 7637W        W23821  18.795   4.110   0.130 -0.1348 -0.0789 -0.2449
 7638W        W23822   0.687  15.038  14.196  0.0045  0.2924 -0.0831
 7639W        W23823  10.709  11.310  14.667 -0.0601 -0.1644  0.2325
 7640W        W23824  11.979  16.514   0.329 -0.3635  0.3543  0.1949
 7641W        W23825   6.799   3.266   4.323 -0.1506 -0.2997  0.0053
 7642W        W23826  18.544   6.073   2.584 -0.0546 -0.1763 -0.1301
 7643W        W23827  13.478   4.987   4.416 -0.0141 -0.3322  0.1710
 7644W        W23828  17.712  16.884   3.421  0.0070  0.2935 -0.1904
 7645W        W23829  13.530  15.427  13.369 -0.0935  0.1477 -0.1999
 7646W        W23830  18.767   1.448  15.215  0.0646  0.2936  0.3998
 7647W        W23831  14.464   8.763   4.278 -0.0257  0.1429 -0.3063
 7648W        W23832   3.490   9.881   3.487  0.0111 -0.0268 -0.1427
 7649W        W23833   7.000  18.303  12.727  0.0565 -0.1035  0.1884
 7650W        W23834  15.972  10.650  13.139 -0.0224  0.2522 -0.1001
 7651W        W23835   9.397   3.465   2.841  0.3402 -0.1848 -0.0088
 7652W        W23836   6.757   0.080   1.743  0.3824 -0.0485  0.2118
 7653W        W23837   3.882   1.700   1.775 -0.2213 -0.3119 -0.3118
 7654W        W23838  15.649  11.076  13.997  0.0758 -0.0385  0.0374
 7655W        W23839  17.396   0.538  13.272 -0.2993 -0.2208  0.2471
 7656W        W23840  11.720  10.003  12.746 -0.1957 -0.2289  0.4942
 7657W        W23841  14.874   2.666  13.719  0.0146  0.1683  0.4415
 7658W        W23842   3.445   4.614  10.639 -0.1184  0.2248 -0.0463
 7659W        W23843   8.406   6.465   1.332  0.0006 -0.0483  0.4002
 7660W        W23844  12.588   1.302   5.168  0.1505  0.3010 -0.2673
 7661W        W23845   3.507  11.418  15.450  0.0121  0.1858 -0.1779
 7662W        W23846  11.702  16.131   2.330  0.2019  0.0315 -0.1577
 7663W        W23847   7.191  11.712  12.533  0.0258  0.2594 -0.0896
 7664W        W23848   0.198  15.030  14.086 -0.2284 -0.2305  0.0473
 7665W        W23849   0.764   7.810  11.356  0.3933 -0.0680 -0.1665
 7666W        W23850  14.008  17.181   5.272  0.0171 -0.1687 -0.2832
 7667W        W23851  12.320   0.973  15.478  0.0545  0.1516 -0.0211
 7668W        W23852  12.409   4.295  12.654  0.0165 -0.1796 -0.1118
 7669W        W23853   6.996  14.166   4.921  0.0499 -0.2428  0.2670
 7670W        W23854   7.819   4.439  15.464 -0.1315 -0.3912 -0.0784
 7671W        W23855  17.640   6.093   2.453 -0.0654  0.1684  0.1563
 7672W        W23856  15.251  17.303  10.996  0.1840 -0.1800  0.1496
 7673W        W23857   5.310   2.725  13.552 -0.2429  0.0796  0.1360
 7674W        W23858   4.803   8.181  12.270 -0.0098 -0.1002  0.1234
 7675W        W23859   5.258   5.780   4.042  0.0935  0.1181 -0.2966
 7676W        W23860   5.880  14.012  13.519  0.1110 -0.1951  0.1309
 7677W        W23861   8.067   7.453  10.942 -0.2318 -0.2559 -0.1325
 7678W        W23862  15.510  14.393  11.219 -0.1296 -0.0073 -0.1937
 7679W        W23863   8.268   9.609  14.237 -0.1247  0.0795 -0.1273
 7680W        W23864   3.335  13.858   1.071 -0.0897  0.1989  0.0847
 7681W        W23865   8.366   9.207   0.926 -0.2401  0.0903  0.0883
 7682W        W23866  18.409   1.895   4.813  0.1308 -0.0472 -0.2177
 7683W        W23867  12.057   1.428   5.032  0.1441  0.0683 -0.4400
 7684W        W23868  12.866  16.428   3.972 -0.0310  0.0769  0.4348
 7685W        W23869   3.495   2.864  14.860 -0.2428 -0.0251  0.0559
 7686W        W23870  12.948  18.350  13.224 -0.0413  0.1760  0.3104
 7687W        W23871   2.017  15.046  14.376  0.0012 -0.1749 -0.0674
 7688W        W23872   8.725   8.782  13.080  0.1166  0.1476 -0.1923
 7689W        W23873   7.775   1.975   5.029 -0.0493  0.1057  0.1684
 7690W        W23874  17.692   3.662   0.035  0.0676  0.0483 -0.0482
 7691W        W23875   8.095   8.728   3.781 -0.2607  0.2697  0.0929
 7692W        W23876  13.216  16.524   0.234  0.5356 -0.3380 -0.0091
 7693W        W23877  12.507   7.074  12.073  0.0026 -0.1688 -0.0799
 7694W        W23878   9.187   3.257  12.293  0.1396  0.4497  0.0613
 7695W        W23879   2.451  17.182   4.787  0.1738 -0.0508 -0.1506
 7696W        W23880  14.791   0.466  14.739 -0.1233  0.0348 -0.2341
 7697W        W23881  11.296   6.355   2.517 -0.2516 -0.0462  0.2893
 7698W        W23882   4.712  13.164   1.942  0.3138 -0.3553  0.0449
 7699W        W23883  12.357  17.239  15.065 -0.1143  0.1063  0.4302
 7700W        W23884   0.966  13.942  11.134  0.1108 -0.1821  0.0296
 7701W        W23885   0.145   6.761   3.413 -0.2277  0.0174  0.1078
 7702W        W23886   7.315  12.946  11.628  0.0426  0.1474 -0.3468
 7703W        W23887  15.393   7.773   5.188  0.3600 -0.2237 -0.2880
 7704W        W23888  13.206  17.955  13.541  0.1780  0.1411 -0.3204
 7705W        W23889   5.376   1.717   0.342 -0.0151 -0.0177  0.3605
 7706W        W23890   7.745   9.210   2.822  0.0567 -0.0490 -0.0054
 7707W        W23891  18.696  16.998  15.393  0.2529 -0.0730  0.1283
 7708W        W23892   2.089   2.693  12.896 -0.0965  0.1809  0.2793
 7709W        W23893  10.934   0.627   3.530 -0.1822 -0.2395 -0.1827
 7710W        W23894   0.922   0.104  15.502 -0.0886 -0.0738  0.1026
 7711W        W23895   3.969   4.172   1.144 -0.0419 -0.1161 -0.1649
 7712W        W23896  17.281  11.595   4.118 -0.2135  0.1566  0.0837
 7713W        W23897   7.906  10.329  12.370  0.1020  0.0559 -0.0680
 7714W        W23898   3.839   1.421  14.232 -0.0691 -0.1534 -0.2970
 7715W        W23899   5.273  18.170  12.923 -0.1442  0.1848 -0.1490
 7716W        W23900   0.615   2.136  13.794 -0.3246  0.1328  0.1135
 7717W        W23901  14.954  12.071  13.180 -0.4829  0.0437  0.2253
 7718W        W23902   2.483   6.165   2.565 -0.3577 -0.1376  0.0179
 7719W        W23903   0.538   1.371  10.645  0.1275  0.0272 -0.0355
 7720W        W23904   8.999   7.442  11.365 -0.0331 -0.2571 -0.0527
 7721W        W23905   1.930   7.250  11.033 -0.1174 -0.0420  0.2278
 7722W        W23906  10.421  12.447  10.881 -0.1070 -0.1702  0.3653
 7723W        W23907   1.751   8.261  12.594  0.0611  0.0817 -0.0995
 7724W        W23908  11.145   7.324   3.700  0.2267 -0.0209 -0.0043
 7725W        W23909   9.402  10.102  12.738 -0.0917 -0.1401 -0.2084
 7726W        W23910   7.481   5.387   4.859 -0.0128 -0.1915  0.0648
 7727W        W23911  15.495   1.844   3.750  0.1016  0.2362 -0.1576
 7728W        W23912   9.725   9.128   1.073  0.4077 -0.0950  0.1987
 7729W        W23913   4.259  13.258  13.890  0.1928 -0.2206 -0.1920
 7730W        W23914   6.425  12.723  12.677 -0.1466 -0.2459 -0.0395
 7731W        W23915   4.646   9.823  14.402 -0.1920 -0.4500 -0.0655
 7732W        W23916   2.331  17.729  15.070 -0.0326  0.1166 -0.1977
 7733W        W23917   5.536   6.130  14.941 -0.0454 -0.1251 -0.0838
 7734W        W23918   9.993   3.185  12.422  0.2501  0.0049 -0.0224
 7735W        W23919   0.807  13.029   3.741 -0.1315 -0.3858 -0.1913
 7736W        W23920  12.611  11.310  12.189 -0.2538  0.0597 -0.0927
 7737W        W23921   6.568  16.950   3.839 -0.0650  0.1868  0.1761
 7738W        W23922  13.310   0.499   5.579 -0.0158  0.0765 -0.0733
 7739W        W23923  17.424  13.135  11.072  0.0400 -0.2808  0.1725
 7740W        W23924   5.370  13.734  14.118 -0.0741 -0.2599  0.1904
 7741W        W23925  12.860  14.080  12.353 -0.0168 -0.0982  0.1313
 7742W        W23926   0.925  11.635  13.636  0.2513  0.0912 -0.1520
 7743W        W23927   7.782   1.396   1.735  0.2510  0.3082 -0.4599
 7744W        W23928  14.042   6.253  11.273 -0.1158 -0.1138  0.2325
 7745W        W23929  13.525  10.777  14.283 -0.2198  0.3334 -0.1144
 7746W        W23930  11.812   8.565   0.120  0.2366  0.7039 -0.2018
 7747W        W23931   0.930  11.823   3.113 -0.1300  0.2546  0.1989
 7748W        W23932   2.266  17.484  14.535 -0.0541  0.1053 -0.2623
 7749W        W23933   8.163   1.838  14.848  0.1956  0.0436  0.0274
 7750W        W23934   0.166   6.045   2.738 -0.0021 -0.2167 -0.1945
 7751W        W23935   0.944  10.166  11.112  0.2186 -0.0997  0.0094
 7752W        W23936   5.726  16.745   3.254  0.0982  0.0324  0.1964
 7753W        W23937   4.058   1.870  11.320 -0.1434  0.0807 -0.0073
 7754W        W23938  10.853  13.834  14.776 -0.1981  0.2741  0.1959
 7755W        W23939   0.327   0.434  12.428  0.1320 -0.0303 -0.0019
 7756W        W23940  14.853   6.122  14.541  0.1979  0.1232  0.0676
 7757W        W23941   4.496   8.452   1.787  0.1208 -0.0421 -0.0772
 7758W        W23942   3.163  12.822  13.923 -0.0691 -0.0312 -0.1540
 7759W        W23943  16.128  16.506  11.949 -0.1496  0.1941 -0.0937
 7760W        W23944  13.585  11.352   2.893  0.1688 -0.1056 -0.0251
 7761W        W23945   1.523   8.429  10.655  0.0495  0.1866 -0.2657
 7762W        W23946   6.474  15.102   0.570  0.2548  0.0874  0.0528
 7763W        W23947  13.965  16.388  13.252 -0.0024 -0.3782  0.1294
 7764W        W23948  12.659   6.662   1.772  0.0777  0.1245  0.3934
 7765W        W23949  10.627  18.628  10.984  0.0378 -0.1569  0.2051
 7766W        W23950   5.952   7.624   3.086  0.1754  0.1100  0.0153
 7767W        W23951   0.629  14.647  12.697  0.2448 -0.0635 -0.3574
 7768W        W23952   0.765  12.538   0.669  0.5085  0.2241  0.1222
 7769W        W23953   8.328  14.439   3.028  0.1467 -0.2090  0.2027
 7770W        W23954   1.371  16.836   1.518 -0.2977  0.1027 -0.2430
 7771W        W23955   1.183   5.828  15.038  0.1784  0.0617 -0.0725
 7772W        W23956   0.534   3.794   2.996 -0.2190  0.2953  0.0907
 7773W        W23957   1.006   0.127  10.619  0.0964 -0.3112  0.1723
 7774W        W23958   0.828  15.659   5.803 -0.2518  0.0973  0.0931
 7775W        W23959  13.863   9.356   0.506 -0.0977 -0.3106  0.1464
 7776W        W23960  11.061   6.489   0.716  0.2146  0.2665  0.2305
 7777W        W23961   9.272  16.664  15.440  0.1008 -0.1540  0.1940
 7778W        W23962  16.001  16.974   3.766  0.0731  0.0828  0.1630
 7779W        W23963  10.853   5.459  11.456 -0.1352  0.2639  0.1004
 7780W        W23964   7.834   8.390   2.472  0.1285 -0.0166 -0.0699
 7781W        W23965   1.257  10.610   1.547 -0.5251  0.2696  0.0131
 7782W        W23966  12.426   6.769   4.459  0.2421 -0.0049  0.1464
 7783W        W23967   3.158   9.774  12.547  0.0586 -0.1221 -0.0093
 7784W        W23968   0.863  13.402   2.796  0.0260  0.1318  0.0503
 7785W        W23969   4.214   6.655   1.771 -0.0249 -0.1870 -0.1460
 7786W        W23970  10.706  12.297  13.078  0.0183 -0.1504 -0.2663
 7787W        W23971   6.262  12.656  10.202 -0.1766  0.0625  0.0132
 7788W        W23972  11.711   0.881   4.875 -0.0081 -0.0012 -0.1305
 7789W        W23973   7.857   7.135   1.481  0.0139  0.0623  0.1125
 7790W        W23974  18.194   9.902   5.074 -0.0722  0.1666 -0.1464
 7791W        W23975   0.916  16.406  10.895  0.0588 -0.1980 -0.1955
 7792W        W23976  16.644  14.433  14.295 -0.2022  0.0751  0.0807
 7793W        W23977   0.048  16.647  11.515  0.0779  0.1597 -0.0522
 7794W        W23978  10.497   3.038   2.426  0.0742  0.0696 -0.0575
 7795W        W23979  17.563  15.714  12.586 -0.1416  0.0433 -0.4027
 7796W        W23980   5.318  11.571  14.108  0.0633 -0.2914 -0.1061
 7797W        W23981   0.668   9.450   9.670 -0.0024  0.1710 -0.2474
 7798W        W23982   6.405  12.793   4.339  0.2360  0.1445  0.0233
 7799W        W23983   3.021   3.748  14.846  0.0696 -0.0907 -0.0441
 7800W        W23984   9.182   7.539  13.291  0.1538 -0.1745  0.1150
 7801W        W23985   0.363  14.564  11.818 -0.0307  0.1705 -0.1194
 7802W        W23986   3.740   4.009   2.955  0.0910 -0.1975 -0.2040
 7803W        W23987   7.039  12.742   3.779  0.1393 -0.0463  0.1257
 7804W        W23988  10.932  16.117   0.144 -0.1653 -0.4304 -0.3741
 7805W        W23989  16.119  11.063   3.058  0.0610 -0.1660 -0.1427
 7806W        W23990   5.993  18.213   1.763  0.0754 -0.1390  0.4308
 7807W        W23991  12.444  14.471   5.030  0.1476 -0.0942  0.1649
 7808W        W23992  18.614   6.259   0.443 -0.1307 -0.0905 -0.0337
 7809W        W23993   0.549   7.879  12.732  0.1951 -0.1061 -0.1137
 7810W        W23994  10.554   3.794   4.017  0.1119 -0.3317 -0.1881
 7811W        W23995   3.124  18.757   4.914 -0.3424  0.0886 -0.1235
 7812W        W23996   8.048  11.350  11.519 -0.0266  0.1661 -0.4294
 7813W        W23997   1.909  12.283  13.226 -0.0005 -0.0512  0.1508
 7814W        W23998  14.129   1.912  13.942 -0.1083  0.0425 -0.2038
 7815W        W23999  18.573   7.366   0.311  0.1516  0.2714 -0.1051
 7816W        W24000  14.286   4.901  13.174  0.0529  0.0437  0.1584
 7817W        W24001   5.264   8.238  13.260 -0.1901  0.0463 -0.1166
 7818W        W24002  15.374   4.282  11.752  0.1317  0.2045 -0.0099
 7819W        W24003  15.218   0.408  11.386  0.0062  0.0154 -0.2395
 7820W        W24004   2.438  15.044   4.255  0.1945 -0.2930 -0.2988
 7821W        W24005  15.833  17.815  13.571 -0.1145 -0.2803 -0.2802
 7822W        W24006   8.483  11.554  11.003  0.1491  0.0534  0.0902
 7823W        W24007  12.323  14.877  11.912  0.2059  0.0842  0.4081
 7824W        W24008   2.810  14.744   4.839  0.0788  0.2154  0.1752
 7825W        W24009   1.692   9.074   4.679 -0.1203 -0.0243  0.1616
 7826W        W24010  17.101  10.815  14.548 -0.0687  0.2122  0.0543
 7827W        W24011  12.918  12.723  12.195  0.2817  0.0504 -0.1100
 7828W        W24012   0.806   8.475   0.227 -0.3858  0.1283 -0.0682
 7829W        W24013  12.703  18.216  12.431 -0.1867 -0.3248 -0.0253
 7830W        W24014   0.491  16.226  15.172  0.1247 -0.0166 -0.2905
 7831W        W24015   5.333  18.659   5.770  0.4545  0.0205 -0.3979
 7832W        W24016   5.776   5.268  13.302 -0.3515 -0.1388  0.0435
 7833W        W24017   6.030  13.676   2.541  0.1392 -0.0248  0.0149
 7834W        W24018  12.064   0.694   1.451  0.0110  0.0187  0.1359
 7835W        W24019   6.386  18.757   4.800  0.2951 -0.0154  0.1219
 7836W        W24020  11.478  14.564  12.476 -0.1065 -0.1167 -0.4031
 7837W        W24021  14.765  14.005   0.361 -0.0646  0.0494 -0.1637
 7838W        W24022  12.015   7.090   4.460 -0.2807 -0.1934 -0.0263
 7839W        W24023   6.662   6.910  12.154  0.2106 -0.3117 -0.1530
 7840W        W24024  14.980  15.426   0.143  0.0258  0.2955 -0.2428
 7841W        W24025   1.091   7.606   4.740 -0.1435  0.1472  0.3387
 7842W        W24026   3.007   0.686  15.365 -0.1645  0.1533  0.1440
 7843W        W24027  12.300  16.725  14.365 -0.1862 -0.0821 -0.0990
 7844W        W24028  12.621  11.499   0.412  0.0653 -0.3712 -0.1441
 7845W        W24029  12.378  10.449  14.224  0.0953  0.0958  0.4245
 7846W        W24030   3.532   0.498   2.343  0.0653 -0.1837  0.1481
 7847W        W24031   7.295  16.443   1.082 -0.0557  0.1188 -0.1240
 7848W        W24032  13.618   4.145  14.581  0.1330 -0.3861  0.3813
 7849W        W24033   7.126  17.312  13.554 -0.3070 -0.1300  0.2169
 7850W        W24034   3.279  15.652   3.529  0.0482 -0.1599 -0.1267
 7851W        W24035   3.815   4.811  11.460  0.1295  0.0715  0.1534
 7852W        W24036   5.277  14.569  13.771  0.2112  0.0177  0.0144
 7853W        W24037  13.696  11.107  14.937 -0.4657  0.1996 -0.0053
 7854W        W24038   3.341   4.277   3.729 -0.4326 -0.1189  0.1683
 7855W        W24039  10.691   8.653   0.583  0.3050  0.3322 -0.1122
 7856W        W24040   8.823   5.888   1.568  0.0552 -0.4142  0.1971
 7857W        W24041   6.927   9.872   1.844 -0.0847 -0.1035  0.1343
 7858W        W24042  13.003  12.267  15.491 -0.1714 -0.1796  0.1924
 7859W        W24043  17.292   1.136   4.734 -0.1868  0.0090 -0.0402
 7860W        W24044  17.713   9.398   0.407 -0.1861 -0.2196 -0.2413
 7861W        W24045   3.671  13.853   1.512  0.2098  0.1840 -0.0227
 7862W        W24046  10.065  18.668   0.065 -0.0550  0.0517 -0.1105
 7863W        W24047   6.989   6.457  14.089 -0.2904 -0.1358  0.4705
 7864W        W24048   1.934  11.710   2.694 -0.0947  0.2455 -0.2478
 7865W        W24049  18.376   2.270   3.741  0.1624 -0.0668  0.2552
 7866W        W24050  10.371   3.404   1.385 -0.0496  0.1812 -0.2941
 7867W        W24051  16.496   9.330   1.054 -0.2462 -0.1277 -0.1111
 7868W        W24052  18.764   9.390   3.799  0.0949 -0.2084 -0.1992
 7869W        W24053  14.011   1.050   5.270  0.0733 -0.2596  0.0697
 7870W        W24054  15.881  17.678   1.269 -0.0096 -0.3644  0.2157
 7871W        W24055   3.678   7.805  11.702  0.0492  0.1402 -0.2017
 7872W        W24056  13.058   8.907  12.452  0.0091  0.1976 -0.0751
 7873W        W24057   1.507   0.975  11.423  0.1631  0.0621  0.0527
 7874W        W24058   4.673   3.614  14.007 -0.0106 -0.0429  0.3040
 7875W        W24059   8.221  10.689   5.304 -0.1645 -0.1817 -0.1057
 7876W        W24060  15.708   8.593   5.020 -0.1073  0.0977 -0.1332
 7877W        W24061  10.771   8.728  13.396 -0.1805  0.0359 -0.0197
 7878W        W24062   8.837   1.129  13.380 -0.0194 -0.1852  0.1008
 7879W        W24063   9.919   6.789   2.691  0.0481  0.2599 -0.3193
 7880W        W24064   8.084   7.316   9.544  0.1540 -0.1835 -0.1236
 7881W        W24065   6.952   8.916   3.183  0.1740 -0.0170 -0.1629
 7882W        W24066  13.266  12.018  11.314 -0.1177  0.1676 -0.3077
 7883W        W24067  13.240   1.140  12.118  0.0201  0.0398 -0.3282
 7884W        W24068   9.482   4.256  14.928 -0.1702  0.2669  0.0667
 7885W        W24069  13.606  11.429   3.883  0.1625  0.0542  0.1422
 7886W        W24070  13.516  12.776   3.563  0.0734 -0.0870 -0.0881
 7887W        W24071  10.084   2.873   2.055 -0.2678 -0.3292 -0.0265
 7888W        W24072  15.783  13.488  13.219  0.1889 -0.1921 -0.0090
 7889W        W24073  14.865   8.683   0.396 -0.0279 -0.2121  0.1617
 7890W        W24074   7.583   6.348  11.734 -0.0371 -0.1093 -0.1262
 7891W        W24075  11.434   5.265   1.133  0.0349  0.2745 -0.0397
 7892W        W24076   1.300  12.517   0.674 -0.3182  0.1027  0.1083
 7893W        W24077  17.596  15.366   4.853 -0.0459  0.2418 -0.0505
 7894W        W24078  17.111  12.459  15.085  0.1468  0.3099  0.1418
 7895W        W24079  18.146   8.759  14.281 -0.3357 -0.1366 -0.1482
 7896W        W24080   7.882   2.017  12.966  0.2427 -0.1485  0.2691
 7897W        W24081  10.613  16.533   0.304 -0.2230 -0.0635 -0.2731
 7898W        W24082   9.875  12.565  10.705 -0.0143 -0.0764 -0.0164
 7899W        W24083  17.034  11.118   2.965 -0.0263  0.4283  0.0385
 7900W        W24084  15.962   4.229   3.491 -0.3983  0.1872 -0.0980
 7901W        W24085   0.443  18.063   2.336 -0.2344 -0.1568  0.0428
 7902W        W24086  11.517   6.296   3.033 -0.3282 -0.0425  0.1369
 7903W        W24087  10.300   6.040   1.176 -0.0521 -0.2717  0.1734
 7904W        W24088   0.199  10.707   9.860 -0.3265 -0.0376 -0.0447
 7905W        W24089   3.162  10.994  10.955  0.0903  0.0964 -0.0418
 7906W        W24090  11.551   5.192   4.875 -0.1812  0.0083 -0.5652
 7907W        W24091   3.206   3.761  12.358  0.0282 -0.0692 -0.0381
 7908W        W24092  16.551  10.000   4.667  0.0792 -0.1926 -0.0358
 7909W        W24093   9.928  11.035  11.257  0.1533  0.1148 -0.0182
 7910W        W24094   9.459   9.929   3.497 -0.3408 -0.1397  0.0703
 7911W        W24095   3.566  16.311   3.454  0.0119 -0.1366 -0.2863
 7912W        W24096  12.113  14.436  14.557 -0.1125  0.2425 -0.1436
 7913W        W24097   5.562  10.146  11.051 -0.3548 -0.2955 -0.0796
 7914W        W24098   9.634   3.332  11.215 -0.3165  0.0549  0.1958
 7915W        W24099   7.501   0.672   2.930 -0.1151 -0.0871  0.0145
 7916W        W24100  17.790   2.114   3.048  0.1178 -0.2105 -0.2633
 7917W        W24101   6.594   3.252   0.009  0.0042  0.0492 -0.0835
 7918W        W24102   5.634   8.739  11.061  0.2883 -0.0053 -0.3180
 7919W        W24103   8.042  16.833  12.388 -0.0768 -0.1326 -0.0721
 7920W        W24104   6.118   0.545  11.453  0.0161 -0.0288 -0.2117
 7921W        W24105   4.915  18.318  11.204 -0.3021  0.2352  0.0883
 7922W        W24106  10.519  11.301   5.904  0.2960  0.2554 -0.2731
 7923W        W24107  18.750  13.743  11.382 -0.1112 -0.0558  0.3964
 7924W        W24108   1.962  11.182  10.457  0.2824 -0.1956 -0.0556
 7925W        W24109   2.904  11.586   0.872  0.0591  0.0205  0.2321
 7926W        W24110   0.571  17.368   4.201  0.1626  0.1184 -0.5004
 7927W        W24111   7.034  14.717   4.226 -0.4677  0.2717  0.1222
 7928W        W24112  12.281   3.760  12.232 -0.2462  0.0487 -0.2396
 7929W        W24113  18.424  12.481  13.542 -0.0921 -0.2553  0.0655
 7930W        W24114  14.849  14.338   4.805  0.2675  0.0191  0.0930
 7931W        W24115  15.759   9.593   4.101  0.2228  0.0203 -0.0957
 7932W        W24116   6.093   5.978   0.686 -0.0918  0.1326  0.3234
 7933W        W24117  16.504  16.227   2.349 -0.0880  0.0080 -0.0038
 7934W        W24118  11.311  12.166  10.903 -0.0832  0.0900  0.1717
 7935W        W24119   3.780   5.391  11.649 -0.1026  0.5407  0.0317
 7936W        W24120   7.428   2.963   3.739 -0.0619  0.0907 -0.1178
 7937W        W24121  17.357   9.280  15.492 -0.2108  0.4628  0.0835
 7938W        W24122  17.984  10.603  14.709  0.0994 -0.3561 -0.2308
 7939W        W24123   8.979   6.208   0.361 -0.0203  0.2840 -0.1881
 7940W        W24124   9.046   6.618  12.140 -0.0243 -0.1281  0.0510
 7941W        W24125  17.086   2.576   3.527 -0.2125  0.1357 -0.1075
 7942W        W24126  12.606   7.757   4.795  0.2969  0.1749 -0.0147
 7943W        W24127  14.806   4.000   4.710  0.2738 -0.0198 -0.3700
 7944W        W24128  10.597   5.859   2.258  0.2568  0.1062 -0.0455
 7945W        W24129  17.412   6.567   0.782  0.1979  0.2195  0.2804
 7946W        W24130   9.159   7.742   4.166 -0.2038 -0.0909 -0.2849
 7947W        W24131   3.687  14.768  14.993  0.1731  0.1576 -0.0325
 7948W        W24132  16.803   2.350   5.147  0.2957 -0.1863  0.0368
 7949W        W24133  12.608   7.523  13.928  0.0747  0.1703  0.0086
 7950W        W24134  17.600   9.373  13.208  0.1092 -0.0088  0.0366
 7951W        W24135  15.668  12.761   1.374  0.1375  0.1991 -0.0138
 7952W        W24136  16.726  10.632   3.748 -0.1571  0.2372 -0.0387
 7953W        W24137   8.909   0.629  13.746  0.0628  0.0509  0.0338
 7954W        W24138  17.165   9.280   2.293 -0.0973 -0.1803 -0.1872
 7955W        W24139   9.202   4.517   3.897 -0.0819  0.0759  0.1046
 7956W        W24140  15.952   5.415   1.003  0.0176  0.0312 -0.2213
 7957W        W24141  10.628   4.304  12.306 -0.1762 -0.0599 -0.0771
 7958W        W24142  15.408   7.308   5.495 -0.2267  0.0403  0.0546
 7959W        W24143   5.925  11.913   5.771 -0.1122  0.3203 -0.0835
 7960W        W24144   2.024   3.635  13.830  0.1578  0.1875  0.2131
 7961W        W24145   0.786   9.212   1.795 -0.0590  0.1916  0.2577
 7962W        W24146   2.581   5.230   1.717 -0.4352 -0.0539  0.3772
 7963W        W24147  13.409   4.975  12.979  0.0281 -0.4967 -0.1190
 7964W        W24148   1.696   8.836  12.753 -0.1881 -0.0846  0.2125
 7965W        W24149  18.725  17.972   1.379  0.2518  0.2103 -0.1346
 7966W        W24150  17.641  10.084   1.210  0.1443 -0.0517  0.4285
 7967W        W24151  17.434  16.382   1.247 -0.2443 -0.3831  0.2212
 7968W        W24152  12.134   6.954   1.364  0.0954  0.0064 -0.0834
 7969W        W24153  11.471   5.779   3.343  0.1714 -0.0392 -0.2216
 7970W        W24154   2.866  18.471  14.794  0.0025 -0.2361 -0.2620
 7971W        W24155  14.965   3.850   0.458 -0.2047  0.2842  0.0515
 7972W        W24156   8.154   7.488   3.313 -0.1350 -0.1424  0.0636
 7973W        W24157   1.105  15.196  12.531 -0.0278 -0.1535 -0.0079
 7974W        W24158  10.204   5.016  15.008  0.0464  0.2918 -0.0962
 7975W        W24159  13.737   6.499   4.251 -0.1239  0.1821  0.1456
 7976W        W24160   0.550  18.780  14.033 -0.1371 -0.0563  0.1003
 7977W        W24161   4.302   4.995  13.266  0.1345 -0.0870 -0.0242
 7978W        W24162  16.281   9.969  13.889 -0.0322 -0.0822  0.0061
 7979W        W24163   4.098   8.549   3.770 -0.0146  0.0442 -0.1546
 7980W        W24164  16.732  17.888  10.676 -0.0889  0.0658 -0.1318
 7981W        W24165   8.704   3.899   5.446  0.1891  0.1239  0.1569
 7982W        W24166  12.165   3.539  11.702  0.2451 -0.0354  0.1131
 7983W        W24167  10.290  14.232  12.421 -0.0431  0.0689 -0.0575
 7984W        W24168   1.484   9.635   1.730  0.0732  0.1261 -0.0855
 7985W        W24169  18.280   4.234   2.503  0.0235  0.2768 -0.2729
 7986W        W24170  18.497   4.118  14.147 -0.0711  0.1731 -0.1546
 7987W        W24171  13.359   0.291  12.630 -0.2273  0.0493  0.2002
 7988W        W24172  12.527   1.626   1.571  0.1557  0.1769 -0.0751
 7989W        W24173   4.729  18.797  15.397 -0.3544 -0.0713  0.3118
 7990W        W24174  18.141  12.380   5.919  0.0168  0.0282 -0.2929
 7991W        W24175   8.806  11.347  12.038  0.1532 -0.2552  0.1826
 7992W        W24176   5.761   7.037  11.007 -0.1910  0.2057  0.0363
 7993W        W24177  18.304  13.984   4.962  0.2526 -0.3186 -0.0313
 7994W        W24178   8.188   2.881  13.217  0.2050  0.2098  0.1303
 7995W        W24179  12.681  14.704   2.283 -0.0370 -0.3030 -0.0364
 7996W        W24180   3.526   0.786  15.109 -0.4448 -0.0630 -0.0060
 7997W        W24181  14.089   5.511  13.893 -0.0230 -0.0816 -0.2740
 7998W        W24182   1.902   2.555   0.995 -0.1588 -0.0147  0.1370
 7999W        W24183   8.019   3.040   1.163  0.1671  0.2205 -0.2347
 8000W        W24184   9.175   4.778  11.621 -0.1542  0.1365  0.0191
 8001W        W24185   9.605  11.867  12.478  0.3800 -0.0223 -0.2625
 8002W        W24186  16.773   1.500   2.088  0.0249  0.0006 -0.1021
 8003W        W24187  13.027  18.686  12.370  0.0603 -0.1650  0.3996
 8004W        W24188  18.590   5.198  11.094 -0.0640 -0.2387 -0.2273
 8005W        W24189  13.217   0.773  11.805 -0.1551 -0.0919 -0.2659
 8006W        W24190   7.939  12.042   2.795 -0.0166  0.0147 -0.1628
 8007W        W24191  17.040   6.008   3.663 -0.0375  0.1091  0.0726
 8008W        W24192   3.700  17.523  12.942  0.0601  0.2024  0.1662
 8009W        W24193  12.051  11.109   4.211 -0.3662 -0.1008  0.2495
 8010W        W24194   6.300   3.128  12.485  0.0369  0.0216  0.1177
 8011W        W24195  10.865   5.326  13.372 -0.0565  0.1523 -0.1916
 8012W        W24196  12.920  15.295  15.437  0.2767  0.0383 -0.1461
 8013W        W24197   5.703   1.350  14.070  0.1002 -0.0978  0.1896
 8014W        W24198  16.665   4.272   4.065  0.0322  0.0039 -0.0571
 8015W        W24199   5.959  15.350   2.924  0.1118 -0.0496  0.2867
 8016W        W24200  17.112   6.015   0.524 -0.0635 -0.0753 -0.1675
 8017W        W24201  14.188   2.221  13.394  0.2629 -0.0596 -0.1033
 8018W        W24202  16.957  12.442   2.287 -0.0957  0.1590 -0.3916
 8019W        W24203   6.712  17.200   4.249 -0.1367  0.0463 -0.0055
 8020W        W24204  13.082  16.284  11.415  0.0328 -0.0518 -0.0257
 8021W        W24205  12.857   6.170   4.208  0.0269  0.0098 -0.0574
 8022W        W24206   0.017  13.389   2.194  0.1163  0.0039 -0.3056
 8023W        W24207  10.684   4.395  11.635  0.1120 -0.0092 -0.1708
 8024W        W24208  16.608   0.654  12.668  0.0422  0.1208 -0.2933
 8025W        W24209   2.592  11.005  14.541 -0.0953  0.2686 -0.0544
 8026W        W24210   3.064  15.810  11.047  0.0639  0.0305  0.1085
 8027W        W24211   1.772  13.605  13.916  0.2884  0.0848  0.1587
 8028W        W24212   4.611   2.302  12.543 -0.3040 -0.1169 -0.0028
 8029W        W24213   9.451  10.986  13.514  0.1031  0.1045 -0.0799
 8030W        W24214  13.125  17.685   3.652 -0.0733  0.1016  0.2248
 8031W        W24215   3.460  16.600  15.487 -0.2592 -0.0370  0.0063
 8032W        W24216   7.503  11.817   3.014 -0.1222 -0.2630 -0.0934
 8033W        W24217  14.528   3.251   2.298 -0.2356 -0.1139 -0.1436
 8034W        W24218  17.273   5.342  12.796  0.0343  0.2563 -0.0342
 8035W        W24219   2.307   3.117  12.650  0.3069  0.1068  0.0984
 8036W        W24220  15.105   6.797  13.510  0.0099 -0.1973 -0.0318
 8037W        W24221   9.560  18.074   2.877 -0.1217  0.0901  0.3620
 8038W        W24222  11.219   2.961   3.336 -0.1238  0.1894  0.2078
 8039W        W24223  14.338   0.488   1.309 -0.0539  0.1114 -0.4159
 8040W        W24224  14.214   8.257  14.962  0.2080 -0.0890  0.0539
 8041W        W24225  11.772   4.049   0.847 -0.1152  0.2170  0.0598
 8042W        W24226  13.474   7.535   1.653  0.0555  0.1391  0.1672
 8043W        W24227   5.144   3.840  14.096  0.4768 -0.1843  0.2363
 8044W        W24228  13.366  17.258  12.173  0.0876  0.2221  0.1190
 8045W        W24229   0.553   9.671   1.879 -0.4223 -0.1638 -0.0860
 8046W        W24230  14.668  11.627   3.864  0.0477 -0.0042  0.2963
 8047W        W24231   6.141   1.864   1.096 -0.0485 -0.0435  0.4506
 8048W        W24232   8.607   9.472   2.861 -0.1905 -0.2392 -0.2385
 8049W        W24233  17.976  10.935  15.455 -0.0936  0.0619 -0.0433
 8050W        W24234  16.158   7.535  11.618  0.0108  0.1210  0.0101
 8051W        W24235   3.509  15.510   2.953 -0.1139 -0.1424 -0.0224
 8052W        W24236  17.980   6.211   4.823  0.0341  0.2576 -0.0451
 8053W        W24237   5.895  12.270   3.233 -0.1676 -0.2180 -0.0059
 8054W        W24238  11.600   8.512  14.751 -0.2511 -0.0326 -0.0554
 8055W        W24239   2.826   7.852   3.824 -0.0670 -0.3455  0.3819
 8056W        W24240   3.888   8.883   2.467  0.0953 -0.0430 -0.0145
 8057W        W24241  12.039  15.217   5.135 -0.1913 -0.1454  0.2341
 8058W        W24242   9.036   8.026   3.204  0.0451  0.3354 -0.0320
 8059W        W24243   2.008   3.758   4.039 -0.2248 -0.0099  0.0382
 8060W        W24244  15.350  14.493   3.884 -0.0495 -0.3449  0.0725
 8061W        W24245   3.995  10.066   5.473  0.1744 -0.0158 -0.0149
 8062W        W24246  18.539   4.202   3.048  0.1641 -0.1948  0.0455
 8063W        W24247  11.428  15.398  12.153  0.1540 -0.4644  0.2102
 8064W        W24248  14.066  15.595  11.793 -0.0345  0.0838  0.1198
 8065W        W24249   8.293   6.072  11.579 -0.1868 -0.2898 -0.1037
 8066W        W24250  12.853  14.277  15.116 -0.0647 -0.0538  0.0683
 8067W        W24251   4.044  16.742  13.887  0.1910 -0.0917 -0.0026
 8068W        W24252   2.636  13.529   3.507  0.2690  0.0369  0.0672
 8069W        W24253  15.397  15.616   0.475 -0.0293 -0.0607  0.3030
 8070W        W24254  10.260   6.589  12.070 -0.1121  0.1283 -0.0755
 8071W        W24255  13.377   2.401  11.021  0.1505 -0.1219 -0.1624
 8072W        W24256  17.803  14.952   3.976 -0.2433 -0.1490 -0.2204
 8073W        W24257   9.359   4.318  11.362  0.1596 -0.1548 -0.0582
 8074W        W24258   1.838   8.310  10.296  0.0529 -0.2060  0.0303
 8075W        W24259   5.298  17.067   4.580  0.0816  0.0432  0.0102
 8076W        W24260  17.741   1.390   1.806 -0.0551 -0.0150  0.2366
 8077W        W24261   5.118  13.095  13.444  0.3105  0.2099 -0.3833
 8078W        W24262  15.323   5.948  11.631 -0.0988 -0.2445 -0.0461
 8079W        W24263   7.026   2.185   2.559 -0.0177  0.2114  0.1308
 8080W        W24264   0.132  10.719   4.464 -0.1445 -0.0375  0.2795
 8081W        W24265  14.830  16.470  13.984 -0.0101 -0.0281  0.1730
 8082W        W24266   7.635   1.016  12.625  0.3662  0.0831 -0.2849
 8083W        W24267   0.165   9.960   1.537  0.1752  0.1749  0.1960
 8084W        W24268  10.516   9.666  15.234 -0.1051 -0.0973  0.1780
 8085W        W24269   1.447  14.102  14.595 -0.2270  0.1752 -0.2229
 8086W        W24270   2.250  18.297  15.163 -0.0487  0.0996  0.0019
 8087W        W24271  16.311   3.225   0.197  0.0423 -0.1022 -0.1663
 8088W        W24272   5.960   3.238  14.347  0.1287 -0.0551  0.0984
 8089W        W24273   3.135   8.989  15.268 -0.0115 -0.0001  0.2279
 8090W        W24274  17.294   2.378   5.233 -0.0793 -0.1778 -0.0027
 8091W        W24275  18.498  16.195  11.643 -0.1218  0.1111 -0.3309
 8092W        W24276   9.133  13.408   1.286 -0.0771  0.0122  0.1854
 8093W        W24277   5.048   9.761  15.293  0.2441  0.0283  0.0858
 8094W        W24278   3.591  15.008  11.892  0.0182  0.2764  0.1976
 8095W        W24279  13.966  18.207   3.721  0.1880  0.3198  0.3340
 8096W        W24280   9.278  14.320  15.396  0.1958 -0.1500  0.1383
 8097W        W24281  11.160  12.153   2.524  0.0441 -0.0906 -0.4572
 8098W        W24282   7.153  16.712   1.514 -0.1209 -0.1593  0.3512
 8099W        W24283   3.996  13.905   2.416  0.2425 -0.0580  0.0035
 8100W        W24284  14.943  12.690   1.624  0.2248 -0.1354 -0.0023
 8101W        W24285   8.299  14.537  11.927 -0.0216  0.2695  0.0984
 8102W        W24286  10.443   3.711   5.378  0.4132 -0.1577 -0.0388
 8103W        W24287   9.376  13.445  11.861 -0.2109  0.0763  0.0997
 8104W        W24288   0.814  18.577   4.142 -0.3652 -0.1400 -0.0172
 8105W        W24289  14.327  15.317  13.979 -0.3602 -0.2008  0.1844
 8106W        W24290   8.120  17.044   0.545  0.4089  0.0501  0.1218
 8107W        W24291  12.748  11.781  12.360  0.1566 -0.5349 -0.1273
 8108W        W24292   7.564  16.803   3.997  0.1853  0.1358  0.2146
 8109W        W24293   0.221   4.758   3.222  0.3971 -0.1655  0.0103
 8110W        W24294   8.428  15.197  13.457  0.0491  0.1007  0.0159
 8111W        W24295  17.919   4.153  12.017 -0.0863 -0.0895  0.1802
 8112W        W24296  13.626  12.359  12.631  0.2356  0.5008 -0.1831
 8113W        W24297   5.731   4.516   0.215  0.0307 -0.2495 -0.0540
 8114W        W24298   4.751   7.290   1.493 -0.0511  0.0013 -0.0654
 8115W        W24299  11.973  11.329   1.864  0.1301  0.0188 -0.0310
 8116W        W24300   6.966   2.835  15.205  0.1938 -0.2172 -0.0808
 8117W        W24301   1.738   1.972   2.015  0.0846 -0.1051 -0.1147
 8118W        W24302   0.873   2.579   1.862 -0.3524 -0.0665  0.0598
 8119W        W24303   7.082  12.987  10.708  0.1143  0.0361 -0.1741
 8120W        W24304   8.281  15.255   4.449  0.0163 -0.1784  0.2551
 8121W        W24305  10.321   8.610  11.967 -0.0278 -0.2215  0.3851
 8122W        W24306  17.686  14.908   4.491 -0.4858 -0.1519  0.1099
 8123W        W24307   4.919   6.428   3.654 -0.1745 -0.1160  0.1856
 8124W        W24308  18.544   5.406  11.569  0.1347  0.0848  0.0060
 8125W        W24309  16.712   5.144  12.910 -0.2040 -0.1902  0.1899
 8126W        W24310  10.836   3.505   2.836 -0.0856  0.0980 -0.0698
 8127W        W24311  16.266  18.236  10.844 -0.2818 -0.0924 -0.3374
 8128W        W24312   6.265   3.552   1.637 -0.1124 -0.1321 -0.2225
 8129W        W24313  18.734  12.697   1.964 -0.2748  0.3522  0.0717
 8130W        W24314   2.771  15.307  14.734 -0.0208  0.0347 -0.5445
 8131W        W24315  13.779  10.120   1.986 -0.1430  0.0333 -0.0097
 8132W        W24316   1.582   9.434  13.633 -0.0401 -0.0606 -0.2043
 8133W        W24317  11.603   9.077   3.101  0.0479 -0.1996 -0.0493
 8134W        W24318  16.395  17.704  11.028  0.0328  0.4793 -0.1328
 8135W        W24319   4.187  13.177   3.055  0.1065 -0.0752 -0.0089
 8136W        W24320  13.111  13.554  13.047 -0.5078 -0.0983 -0.1691
 8137W        W24321   3.729  18.622  12.171 -0.0090 -0.0929 -0.0906
 8138W        W24322  18.737  15.472   2.240  0.0628 -0.0836  0.2216
 8139W        W24323   0.684   7.696   5.586 -0.2209  0.0940 -0.0271
 8140W        W24324   6.440   4.195  11.038  0.2994  0.2359 -0.4527
 8141W        W24325   9.217   1.287   1.550  0.0481  0.1141 -0.0713
 8142W        W24326  16.468   1.051  13.846 -0.0128  0.1377  0.3206
 8143W        W24327  11.368  13.942  13.030 -0.0269  0.3002 -0.1357
 8144W        W24328   7.978  14.950  11.880  0.1855 -0.0563  0.1035
 8145W        W24329  18.060   7.188  14.409  0.2766  0.1407  0.2495
 8146W        W24330  11.747   3.586   1.763  0.0749 -0.0048 -0.0000
 8147W        W24331   1.817   3.736  11.027 -0.0947  0.0014  0.0190
 8148W        W24332  10.864  15.856  12.588 -0.1346 -0.1836 -0.1516
 8149W        W24333   3.993   4.722   1.121  0.1145  0.2490 -0.3788
 8150W        W24334   3.791   9.484  13.855  0.3426  0.0949 -0.1199
 8151W        W24335   0.107   6.437   4.616  0.0452  0.1391  0.1171
 8152W        W24336  15.571  11.601  15.072 -0.0367 -0.0303 -0.0078
 8153W        W24337  12.604   3.760   3.387  0.1750  0.2217  0.0402
 8154W        W24338  13.995  13.929  14.980 -0.1493  0.0154  0.0133
 8155W        W24339   0.776   7.099  15.042 -0.0037 -0.0651 -0.0845
 8156W        W24340  17.832   5.869   3.103  0.1658  0.1086  0.3154
 8157W        W24341   2.810   1.384   5.217 -0.2482  0.4244 -0.0522
 8158W        W24342  10.135   4.532  14.038  0.1319  0.2608  0.0178
 8159W        W24343   2.897  15.623   2.227  0.1390 -0.2744 -0.3683
 8160W        W24344   2.657  13.825  13.379 -0.2084 -0.4369 -0.0567
 8161W        W24345  18.269   8.345   3.811 -0.2300 -0.2088  0.0231
 8162W        W24346   1.050  15.938  13.001  0.0263 -0.2703  0.2146
 8163W        W24347  15.379  15.205  11.633  0.2537  0.0460  0.0434
 8164W        W24348   6.154  17.066  15.338 -0.4774  0.3260 -0.3219
 8165W        W24349  14.729  18.029  13.071  0.2512  0.4082  0.0478
 8166W        W24350  18.790   1.253   3.096  0.1188  0.0251 -0.2831
 8167W        W24351   7.087   0.298   4.356  0.0407 -0.1534 -0.1661
 8168W        W24352  18.767   4.398  11.167 -0.1323  0.0068 -0.2153
 8169W        W24353   9.243   1.792  12.938  0.2699  0.0085 -0.0936
 8170W        W24354   3.754  11.776   4.732 -0.1263  0.0504  0.2414
 8171W        W24355  12.292   2.680  12.249 -0.3332 -0.0526 -0.1403
 8172W        W24356   3.346  17.857  12.081  0.0486 -0.1040 -0.1906
 8173W        W24357  13.673  14.187  13.120  0.1339  0.0921 -0.1934
 8174W        W24358  13.140  18.206  12.116  0.1365  0.1089 -0.0848
 8175W        W24359  16.412   2.023  15.078  0.1020 -0.1720  0.1487
 8176W        W24360   3.301   7.509  10.873  0.1298  0.0559 -0.0503
 8177W        W24361   1.113   6.291  14.971  0.1400 -0.3851  0.1738
 8178W        W24362   2.847   0.402   3.004 -0.0285 -0.0505 -0.3112
 8179W        W24363  17.786  12.348   5.579 -0.1492 -0.0452  0.3561
 8180W        W24364  15.283   8.363   0.207 -0.3518 -0.0141 -0.1112
 8181W        W24365   3.016  11.516   0.018 -0.2052 -0.0053  0.0144
 8182W        W24366   3.527  12.062   1.362 -0.1695 -0.1062  0.0104
 8183W        W24367   9.761  10.736  10.919  0.2304  0.0481 -0.3699
 8184W        W24368  14.203  17.620   2.773 -0.0161  0.1459  0.0303
 8185W        W24369  14.013   5.473  13.241 -0.2792  0.1388 -0.2475
 8186W        W24370  12.044   7.481   4.141  0.1175 -0.2291  0.0725
 8187W        W24371  14.805  17.628  13.487 -0.0688 -0.3785  0.2537
 8188W        W24372   7.679   0.237  14.208 -0.1378  0.1696  0.6027
 8189W        W24373   8.364  15.891   1.894 -0.2047  0.0462  0.2725
 8190W        W24374   3.212  13.049  14.890 -0.2407 -0.0984 -0.0307
 8191W        W24375  11.219   3.715   0.800 -0.1008  0.4545 -0.3145
 8192W        W24376  17.114   4.421  13.725  0.3810  0.1743 -0.1582
 8193W        W24377  12.510   3.701   0.159  0.2341 -0.2419  0.1018
 8194W        W24378  18.028  10.998   1.906 -0.1092 -0.0208  0.0489
 8195W        W24379   4.841  10.524   5.169  0.0289  0.1234 -0.1607
 8196W        W24380  10.341   3.027  13.774  0.1242  0.2116  0.3484
 8197W        W24381   2.302  12.328  14.567 -0.0361  0.0968  0.2382
 8198W        W24382   3.516  11.706   0.338  0.0337  0.1640  0.0702
 8199W        W24383   7.168  11.698   3.853 -0.0784  0.2006  0.0842
 8200W        W24384   7.155   5.111   4.655 -0.2384  0.0181 -0.2047
 8201W        W24385   8.963   8.128   0.387 -0.2186  0.2341  0.0247
 8202W        W24386  14.450  18.383   4.546  0.1686  0.2269  0.2480
 8203W        W24387  18.309   6.680  11.421 -0.0811 -0.0395 -0.0568
 8204W        W24388  11.377  17.226   3.473 -0.1449 -0.3218 -0.0212
 8205W        W24389   7.132  15.120  12.507  0.1410  0.0359  0.1887
 8206W        W24390   1.068  11.181  10.791 -0.1529 -0.3681  0.2130
 8207W        W24391   9.750  18.448   3.339 -0.0705 -0.3847 -0.2507
 8208W        W24392  12.379   8.095   5.037  0.0231 -0.1223  0.1368
 8209W        W24393  16.561  17.946   3.669 -0.4107 -0.2819  0.0624
 8210W        W24394   8.344  14.420   0.988 -0.1244  0.0502  0.0846
 8211W        W24395  12.018   6.418   0.444  0.0523  0.0844 -0.0141
 8212W        W24396  12.824   1.247  10.969 -0.0614 -0.0616 -0.1314
 8213W        W24397  10.227   8.024  11.295 -0.1394 -0.1211 -0.1430
 8214W        W24398   3.282  17.932   2.879 -0.0570  0.0628 -0.0778
 8215W        W24399   3.502   8.384  14.565 -0.4083  0.0339  0.0098
 8216W        W24400  18.228  14.857   3.739 -0.4356 -0.0717  0.4693
 8217W        W24401   7.014   7.011  12.461 -0.3841  0.1934  0.0632
 8218W        W24402   5.032   0.596  11.686  0.1021 -0.0251  0.5321
 8219W        W24403   2.100  18.356  12.927  0.1457 -0.0864 -0.0551
 8220W        W24404   8.202   8.416   4.158 -0.1485  0.3436 -0.0673
 8221W        W24405   9.373  15.949   4.197  0.2094 -0.2503  0.2819
 8222W        W24406   6.850  15.516  12.270  0.0163  0.1987 -0.0322
 8223W        W24407  10.727   3.875   1.949 -0.0155 -0.0404  0.1749
 8224W        W24408   5.934  11.190   2.318 -0.3420  0.3457  0.0046
 8225W        W24409  12.882   8.332  13.171  0.4436 -0.0633  0.0627
 8226W        W24410   9.280   2.103   5.721 -0.0946  0.3765 -0.2426
 8227W        W24411  11.855   2.424  12.183 -0.0235  0.2576 -0.3117
 8228W        W24412   7.121   8.068  12.297  0.2975  0.0285  0.1634
 8229W        W24413   1.223   4.205  12.728 -0.0264  0.0885 -0.0201
 8230W        W24414  12.653   7.865  13.199 -0.1659 -0.3636 -0.0017
 8231W        W24415  13.327   9.988   5.443  0.4493 -0.0002  0.0105
 8232W        W24416   5.748  15.391   0.165  0.2227  0.1485  0.1278
 8233W        W24417  18.096   7.199   1.701  0.0520 -0.3010  0.2343
 8234W        W24418  13.294  14.066  12.822 -0.5148  0.1640  0.1407
 8235W        W24419  16.216   9.379  12.160 -0.0971  0.0196  0.1353
 8236W        W24420  14.277  14.836   3.783 -0.0769  0.2043  0.0885
 8237W        W24421   7.406  17.224  10.311 -0.2304 -0.0173  0.0179
 8238W        W24422  16.361   5.024   3.498  0.0350  0.1645 -0.0036
 8239W        W24423   6.967   5.835  12.201  0.2484  0.0242 -0.0561
 8240W        W24424  16.476   7.320   1.003  0.1880 -0.3674 -0.1566
 8241W        W24425   5.665  14.717  12.168 -0.1036  0.1196  0.1657
 8242W        W24426  10.874   5.304  10.951 -0.0167  0.0462  0.1722
 8243W        W24427   4.976  11.767   4.143 -0.4827 -0.0088  0.2449
 8244W        W24428   9.291  14.639  10.511 -0.0865  0.1880  0.6164
 8245W        W24429   0.281  12.958  13.121 -0.1085 -0.0969 -0.2984
 8246W        W24430  13.735  10.292   5.289 -0.0338 -0.0096  0.1168
 8247W        W24431   9.597   6.382   0.125 -0.2095 -0.1914 -0.4094
 8248W        W24432   9.016   5.785  11.721 -0.0697  0.2309 -0.4823
 8249W        W24433   2.472   2.992   2.067 -0.1774  0.2887  0.3324
 8250W        W24434   2.154   4.011   0.720 -0.0148  0.0423 -0.2549
 8251W        W24435   5.863  15.630   1.858  0.1008  0.1980  0.0067
 8252W        W24436   2.175  13.244  11.890  0.2158 -0.1800  0.1926
 8253W        W24437   5.318   7.531   2.367  0.2273 -0.2425  0.2470
 8254W        W24438  13.551  18.469   3.873  0.0543  0.2846 -0.5124
 8255W        W24439   5.571   6.236  13.969 -0.0328 -0.2247 -0.2042
 8256W        W24440   0.303  18.452   4.433 -0.1374  0.0668  0.4164
 8257W        W24441  15.347   3.018   9.714 -0.0595  0.1905 -0.1765
 8258W        W24442   0.962   2.407  14.061  0.4786 -0.0398 -0.2646
 8259W        W24443  12.037  14.745  11.044 -0.0446  0.0616 -0.2425
 8260W        W24444  15.199  17.682  11.928  0.2393  0.2403 -0.1372
 8261W        W24445  16.153   3.799  12.872 -0.2259  0.2617  0.2174
 8262W        W24446   3.034   7.506  14.716 -0.0354  0.1060  0.4152
 8263W        W24447  12.420   5.719   2.186  0.0858 -0.0704 -0.0500
 8264W        W24448   8.735  15.542  13.068  0.3576  0.0335 -0.4103
 8265W        W24449   7.391  14.954   0.302  0.1013 -0.2260  0.1079
 8266W        W24450  17.808  12.570  13.735 -0.1139 -0.2746  0.1288
 8267W        W24451   2.021   3.940   2.070 -0.1319 -0.1389  0.0621
 8268W        W24452  14.452   1.386   5.279 -0.1621 -0.3108  0.1393
 8269W        W24453  17.907  16.049  13.876  0.0063 -0.1886 -0.2135
 8270W        W24454   9.902   6.305   2.974  0.0050  0.0740 -0.0897
 8271W        W24455   6.776   0.711   2.210  0.1594 -0.0490 -0.4502
 8272W        W24456   9.137   3.659   5.593  0.0087 -0.0642  0.2071
 8273W        W24457  11.407  17.856   1.374  0.0751  0.2314 -0.1199
 8274W        W24458   5.364  15.994   3.703 -0.0285  0.2184  0.1987
 8275W        W24459  13.470   9.861   3.207  0.1298 -0.1616 -0.0919
 8276W        W24460  11.101   8.620  14.577 -0.1979 -0.1784  0.1852
 8277W        W24461   2.051   4.314   3.856 -0.1518  0.1508  0.1062
 8278W        W24462   8.736  12.393   1.876  0.3752 -0.0364 -0.0790
 8279W        W24463  13.489  13.557  12.107  0.0917  0.2661 -0.1219
 8280W        W24464   3.414  14.003  12.424  0.2972  0.2169  0.1940
 8281W        W24465   6.444  17.870  12.218  0.0621 -0.3793  0.2092
 8282W        W24466  12.190   6.847   2.048  0.0854  0.4522 -0.2896
 8283W        W24467  18.576   8.470   2.068  0.0531 -0.0721 -0.3086
 8284W        W24468   6.339  12.538   1.309 -0.1741 -0.1341 -0.3376
 8285W        W24469   7.671  18.799  14.673  0.0705  0.3344  0.2196
 8286W        W24470   0.434   8.553  10.682 -0.4129  0.1013  0.2102
 8287W        W24471  12.910  11.002   0.447 -0.1838  0.2295  0.0584
 8288W        W24472  13.415   0.526  11.360 -0.0676  0.2971 -0.0290
 8289W        W24473  15.140  11.811   4.030 -0.1398 -0.2955 -0.0654
 8290W        W24474   8.659   9.164  10.676  0.1870 -0.1490 -0.0083
 8291W        W24475   3.988   8.633  12.294 -0.1912 -0.1236 -0.2438
 8292W        W24476  12.785   1.291  13.007 -0.0791 -0.0598 -0.2095
 8293W        W24477   6.939  17.905  12.364  0.0706 -0.2683 -0.0213
 8294W        W24478  13.765  15.757  11.416 -0.0291 -0.0645  0.1147
 8295W        W24479   7.902   8.500   1.302  0.1238  0.1556 -0.3076
 8296W        W24480  10.876  11.502   3.246 -0.0232  0.2161 -0.0353
 8297W        W24481  11.438  14.399   3.752 -0.1639 -0.3371  0.3711
 8298W        W24482   2.941  18.191  13.540  0.0385 -0.0802 -0.0958
 8299W        W24483   8.336   2.365  13.115  0.1774  0.3606 -0.0026
 8300W        W24484   4.713   7.810   4.977  0.0588  0.0019 -0.0182
 8301W        W24485   8.586  10.034   2.076  0.0662 -0.1259 -0.0435
 8302W        W24486  18.611   7.369   4.573 -0.2077 -0.2688 -0.0110
 8303W        W24487  10.999   3.549  11.139  0.0615 -0.0164 -0.0198
 8304W        W24488  15.452   3.510   3.505 -0.1629 -0.0182 -0.4873
 8305W        W24489  11.622   4.659   0.081 -0.0675 -0.3715 -0.1263
 8306W        W24490   9.358  17.591   2.797 -0.0962 -0.3389 -0.2508
 8307W        W24491  18.700   8.212  15.458 -0.2943  0.2339 -0.0031
 8308W        W24492   4.579   5.571  12.345  0.3716 -0.1996  0.0485
 8309W        W24493  13.621  14.038  15.365 -0.3129  0.1180  0.1145
 8310W        W24494  10.541   3.297   3.685 -0.2405 -0.1017  0.2900
 8311W        W24495  10.596  18.592   0.120 -0.1367  0.0354  0.1569
 8312W        W24496   3.249  12.269   1.906  0.0265  0.1055  0.1376
 8313W        W24497  17.033  10.534  11.989 -0.1206 -0.2671  0.0258
 8314W        W24498  11.046  11.332  12.557 -0.1492  0.0634  0.0961
 8315W        W24499  13.930   8.391   0.711  0.3665  0.1858 -0.1209
 8316W        W24500   5.298  10.417  14.489 -0.1773  0.0977  0.0382
 8317W        W24501   2.704   5.511   0.181  0.1255 -0.2802 -0.0447
 8318W        W24502  11.958   9.441  13.890 -0.3436 -0.1975 -0.0570
 8319W        W24503  18.780   3.572   0.020 -0.0351 -0.1076  0.1001
 8320W        W24504  17.939  13.468  15.092 -0.0473 -0.0886  0.1600
 8321W        W24505   2.992   6.553  14.657  0.0299  0.0320 -0.0817
 8322W        W24506   3.668   3.928  12.540 -0.1012  0.0014 -0.0892
 8323W        W24507   5.169   6.474   1.023  0.3497 -0.3690  0.4003
 8324W        W24508   1.254   8.222   0.962 -0.1328  0.1023 -0.1420
 8325W        W24509  17.125  15.300  11.225  0.0003 -0.0389  0.0182
 8326W        W24510   1.855   7.756   3.675  0.0483  0.0823  0.2078
 8327W        W24511  18.263   5.272   2.773 -0.0480 -0.1216  0.0694
 8328W        W24512   0.244   4.494  10.772  0.1228  0.1325  0.2010
 8329W        W24513   5.110  18.030   4.747 -0.2260 -0.1408  0.0447
 8330W        W24514  12.802   7.805  10.883 -0.2293 -0.0520  0.1559
 8331W        W24515  13.345   5.495   2.160  0.1038  0.2248  0.0351
 8332W        W24516   5.641  17.196  10.998  0.2447 -0.0544 -0.1020
 8333W        W24517   9.507   4.231  15.421  0.0296  0.2750 -0.0707
 8334W        W24518   7.284   2.642   2.506 -0.6510  0.0796  0.1129
 8335W        W24519  11.385   0.868   3.405 -0.1368  0.0574 -0.1525
 8336W        W24520   6.677   6.954  10.750 -0.1495  0.2163  0.1242
 8337W        W24521  12.074   1.549   1.798 -0.3818 -0.0366  0.1017
 8338W        W24522   5.810  13.974   5.840 -0.3901 -0.1575 -0.0922
 8339W        W24523   9.004  11.547   5.004 -0.1008  0.1433 -0.2479
 8340W        W24524   9.464  17.021   5.632  0.1819  0.1130  0.1297
 8341W        W24525  12.902   5.774   2.169  0.0713 -0.1427  0.3366
 8342W        W24526  16.119   2.942   4.642 -0.0370 -0.0416 -0.2778
 8343W        W24527  18.301   6.498   5.158  0.1903  0.2182 -0.2111
 8344W        W24528  18.506  15.498   5.024  0.0285 -0.0171  0.4208
 8345W        W24529   1.703  12.264   0.828  0.3191  0.1933  0.1209
 8346W        W24530   0.052   8.112  13.414 -0.3139 -0.0351  0.1560
 8347W        W24531   7.558   1.584   2.169 -0.1590  0.2629  0.0288
 8348W        W24532   3.296  13.137  13.032  0.0193 -0.2174  0.0308
 8349W        W24533  10.946   2.669  14.929 -0.7330  0.3096 -0.2112
 8350W        W24534  13.554  12.550  14.677 -0.2768 -0.3478 -0.2292
 8351W        W24535  12.550   9.399   5.223  0.3595  0.2683 -0.3201
 8352W        W24536  13.318   1.187   5.847 -0.0637 -0.4075  0.2961
 8353W        W24537   2.602   4.804   0.777  0.2210  0.0259  0.0326
 8354W        W24538   8.445  13.328  12.837  0.6413 -0.1878 -0.1595
 8355W        W24539   0.687   3.212  13.492 -0.0518  0.0490  0.0701
 8356W        W24540  13.957   8.879   0.655  0.0279 -0.0936  0.1125
 8357W        W24541   9.296   5.953   1.681  0.1871 -0.3149  0.0325
 8358W        W24542  13.950  15.897   2.100 -0.3784 -0.0812 -0.1578
 8359W        W24543   4.839  14.298   4.953  0.0285  0.0268  0.2879
 8360W        W24544   7.173  15.596   3.110  0.2937  0.0213  0.2002
 8361W        W24545  12.684   0.936   4.758 -0.2358  0.0439  0.0002
 8362W        W24546  14.442   0.338   3.855  0.0490  0.0871  0.3845
 8363W        W24547   0.628  14.810   2.420 -0.2567  0.2286  0.1461
 8364W        W24548   6.855  18.774  14.407 -0.0540 -0.2483 -0.2480
 8365W        W24549  14.558  14.793  11.519  0.1092 -0.2312  0.0089
 8366W        W24550   6.721   9.406  13.308  0.0446  0.5341 -0.0269
 8367W        W24551   0.861   6.702   4.928 -0.0316 -0.1840  0.2576
 8368W        W24552  13.267   6.720  14.511  0.0311 -0.0218 -0.1115
 8369W        W24553  12.639  13.969  12.901 -0.0384  0.3978  0.0563
 8370W        W24554   2.416  17.836   4.097 -0.0871  0.2467  0.0981
 8371W        W24555   8.228   5.208  15.306  0.2076  0.1542  0.0265
 8372W        W24556   0.085  14.931   1.006  0.0055 -0.1448  0.2992
 8373W        W24557  16.577  15.801   3.191 -0.0188 -0.2574  0.1434
 8374W        W24558  16.195  15.038  14.830 -0.1418  0.1322 -0.1276
 8375W        W24559  11.969   0.283  12.562 -0.0021 -0.1130  0.1017
 8376W        W24560   0.615   2.126   5.787  0.2451 -0.4337 -0.0046
 8377W        W24561  11.334  10.731   2.492 -0.3244 -0.2463 -0.0514
 8378W        W24562  11.368  14.244  11.065 -0.1903  0.0405 -0.0686
 8379W        W24563  18.214   8.564   1.167 -0.1995 -0.0856  0.1211
 8380W        W24564   6.664   3.024  13.650 -0.2688  0.0436 -0.0425
 8381W        W24565   0.690   7.198   2.196  0.1184  0.0052  0.1583
 8382W        W24566   4.321   2.064   3.075  0.0212 -0.1483 -0.5059
 8383W        W24567  17.729   5.803  11.916  0.3746 -0.3055  0.0083
 8384W        W24568   9.541  13.939  14.493 -0.0965 -0.0115  0.0728
 8385W        W24569   4.657   4.421   4.586  0.2378  0.2471 -0.2063
 8386W        W24570  15.833   6.294   0.500 -0.0764 -0.3890  0.0728
 8387W        W24571   4.449  10.286  14.215 -0.1027 -0.2594 -0.2426
 8388W        W24572  11.669   9.731   0.652 -0.1345  0.1496  0.0759
 8389W        W24573   1.265   5.370   1.450 -0.1482 -0.3458  0.3107
 8390W        W24574   6.195  10.578   3.531  0.0951 -0.1926 -0.0920
 8391W        W24575   8.662  11.424   3.771  0.2790 -0.0772 -0.0210
 8392W        W24576   7.177  15.771  13.904 -0.2410 -0.5639  0.0257
 8393W        W24577   2.197   6.297   3.858  0.0095 -0.0953  0.2311
 8394W        W24578   8.683  10.322  15.245  0.1188 -0.3260 -0.1382
 8395W        W24579   7.281   8.597   1.750  0.0110 -0.4625  0.3729
 8396W        W24580  15.990  14.571   0.125 -0.4290  0.0565  0.0327
 8397W        W24581   6.064   6.602  15.526 -0.1038  0.4037  0.3175
 8398W        W24582   8.700   6.276  11.878  0.0317  0.1872  0.2047
 8399W        W24583   2.827   1.567  11.548  0.4694  0.0313  0.1488
 8400W        W24584  16.999   7.007   5.379 -0.1111 -0.3227 -0.2833
 8401W        W24585   8.617   4.124   1.593 -0.2325 -0.0928  0.0496
 8402W        W24586  16.647   7.545  11.044  0.1193 -0.1262 -0.0323
 8403W        W24587   8.765   5.288  11.512  0.1055 -0.1372 -0.1498
 8404W        W24588  17.810  15.483   0.560  0.3005  0.2647  0.3415
 8405W        W24589   3.263  10.252  12.798 -0.0298  0.1741 -0.2484
 8406W        W24590   0.640  13.055  12.221 -0.1182 -0.2474 -0.1210
 8407W        W24591   7.131   3.498  14.501 -0.0965  0.1450  0.2098
 8408W        W24592   2.248  12.667  14.124  0.0937 -0.1243 -0.1439
 8409W        W24593   4.013   2.422  14.897  0.0836 -0.0252 -0.0839
 8410W        W24594  13.923   2.063  12.180  0.0508  0.2194  0.0149
 8411W        W24595   3.237   0.878  10.988  0.0278 -0.2864 -0.3127
 8412W        W24596  14.527  17.447   0.181  0.1328 -0.4566  0.2736
 8413W        W24597  16.105   1.588  14.454 -0.1726 -0.0836  0.0334
 8414W        W24598   3.716   5.491   2.309  0.1739 -0.2185 -0.0183
 8415W        W24599  12.886  12.345  14.341  0.1066 -0.0572 -0.2019
 8416W        W24600   9.225  11.224   1.524 -0.0518  0.0948  0.1829
 8417W        W24601   0.338   3.369   1.621  0.0748  0.2504 -0.1670
 8418W        W24602  10.093   6.313   5.850 -0.0355 -0.0162 -0.1106
 8419W        W24603   1.856   5.532  14.512 -0.0396  0.1889 -0.1031
 8420W        W24604  17.269  18.411   1.587 -0.4218 -0.1239 -0.0292
 8421W        W24605  16.218   7.196   3.899  0.2438 -0.2886 -0.4426
 8422W        W24606  16.991   3.970   0.404  0.0639 -0.4024 -0.3162
 8423W        W24607  17.136   1.964   3.712  0.1467 -0.1441  0.0733
 8424W        W24608  16.004  16.468   4.970  0.0402 -0.1113  0.3369
 8425W        W24609  18.374   9.329  12.912  0.5580 -0.0784 -0.1196
 8426W        W24610  17.249   3.611   0.188 -0.1083 -0.0183 -0.3468
 8427W        W24611   0.622  13.084  14.269  0.1544 -0.2295  0.1303
 8428W        W24612  11.257  17.403   5.526 -0.1548 -0.2188 -0.1016
 8429W        W24613   7.140  11.569  14.307  0.0001 -0.1489  0.2320
 8430W        W24614   2.295  16.288   1.194 -0.0677 -0.1150  0.1934
 8431W        W24615  17.247   3.606  11.727  0.1154  0.2716 -0.1770
 8432W        W24616  16.345  16.429   1.673 -0.2993 -0.2105 -0.0177
 8433W        W24617   4.244   2.816   3.299  0.4199 -0.3560 -0.1067
 8434W        W24618   0.246   1.213   1.273 -0.0360 -0.0003  0.1060
 8435W        W24619  15.881  18.673  10.968 -0.1969 -0.2150  0.0584
 8436W        W24620  18.355   6.733  13.092  0.0266  0.0370  0.0067
 8437W        W24621   3.608   4.967  13.567 -0.2606 -0.0119 -0.2718
 8438W        W24622   2.708   0.530   1.730 -0.0519 -0.0662 -0.0301
 8439W        W24623  17.975   8.005  14.739 -0.2765  0.1486  0.3897
 8440W        W24624  13.133   3.126   4.136  0.0801 -0.4920 -0.0380
 8441W        W24625  10.894  13.096   0.485 -0.2261 -0.3108 -0.1048
 8442W        W24626   9.596  14.622  11.079  0.0868  0.1186  0.1802
 8443W        W24627  12.628   3.873  13.488 -0.2731 -0.0311 -0.1148
 8444W        W24628   7.578  18.250   1.093 -0.2733 -0.1605 -0.1108
 8445W        W24629   7.050   4.379  15.096  0.1377 -0.4204 -0.0677
 8446W        W24630   0.383  11.673  12.173  0.0491  0.3877  0.1355
 8447W        W24631   3.306   6.049   3.861 -0.2969 -0.3678  0.1272
 8448W        W24632   0.283  16.751   0.019  0.0420  0.1918 -0.3860
 8449W        W24633  11.702   2.973   3.120 -0.0611  0.1056  0.2875
 8450W        W24634  13.428   0.979   2.862  0.3094  0.0114 -0.2602
 8451W        W24635   0.667  16.481   5.893  0.0336 -0.0054  0.4099
 8452W        W24636   6.154   9.133  10.969 -0.2862 -0.0173  0.1357
 8453W        W24637  18.188  10.643  12.774  0.0460 -0.0408  0.0050
 8454W        W24638   9.885   7.073  14.031 -0.2328  0.0130  0.0401
 8455W        W24639  12.727  15.354   3.853  0.1722 -0.0268  0.1332
 8456W        W24640  15.493   1.820   3.260 -0.1527 -0.1649 -0.1809
 8457W        W24641  12.258  14.299   4.565  0.1003  0.1727 -0.3554
 8458W        W24642   0.829  17.239  11.403  0.2409 -0.1733  0.2129
 8459W        W24643  12.571  10.967  10.914  0.1631 -0.1224 -0.0548
 8460W        W24644  16.524   4.362   2.430 -0.3703  0.2809  0.0598
 8461W        W24645  13.675   3.711  11.165 -0.2792  0.1692 -0.2123
 8462W        W24646   6.612  13.556   4.132  0.0053 -0.0273 -0.1617
 8463W        W24647  13.414  10.263  15.150  0.0255  0.2825 -0.1881
 8464W        W24648  10.800  12.618   0.927 -0.3292  0.1792 -0.0053
 8465W        W24649   6.544   0.970   0.830 -0.3426 -0.2763 -0.1014
 8466W        W24650   9.258  15.695   0.181 -0.1388 -0.4478 -0.2814
 8467W        W24651  13.366  14.129   3.079  0.3036  0.0932 -0.4089
 8468W        W24652   9.680   8.574   0.165  0.1122 -0.0010 -0.1822
 8469W        W24653   8.144  10.026  14.039 -0.2014 -0.0121  0.2655
 8470W        W24654   7.345   6.666   2.455 -0.1140  0.0089 -0.1172
 8471W        W24655   5.019   4.603   3.142 -0.0737 -0.0303  0.1185
 8472W        W24656   7.656  18.395   2.016 -0.1133  0.2814 -0.0205
 8473W        W24657   7.529  11.971   0.162 -0.0482 -0.0903  0.2731
 8474W        W24658  16.851   7.148   1.353 -0.0029 -0.0841 -0.2859
 8475W        W24659   8.420   5.163   2.170 -0.4853  0.3042  0.1406
 8476W        W24660   9.640   5.762  11.750  0.1583  0.0265 -0.2190
 8477W        W24661  10.403  11.433   3.080 -0.2257  0.5358 -0.2932
 8478W        W24662  12.792  10.150  14.193 -0.1668  0.0477  0.0176
 8479W        W24663  16.181  15.657  14.839 -0.1361  0.2080 -0.1003
 8480W        W24664  16.135   8.287   0.576 -0.1963  0.1681 -0.0136
 8481W        W24665  17.493   0.153  12.843 -0.0852 -0.1374 -0.2206
 8482W        W24666  17.705  15.756  14.376  0.3850 -0.0498 -0.2024
 8483W        W24667   7.403  11.339  15.134 -0.1661  0.0655 -0.0809
 8484W        W24668   6.406   5.921  12.289  0.1235 -0.0019  0.2299
 8485W        W24669   5.862  16.776   0.602 -0.0615  0.1353  0.1172
 8486W        W24670  15.489  11.509   1.246  0.1330  0.1520 -0.5732
 8487W        W24671   6.826  15.966  12.952  0.3808 -0.0561  0.2171
 8488W        W24672   9.496  11.805   0.952 -0.3136  0.2382 -0.3128
 8489W        W24673  11.219  12.888   0.206 -0.1943  0.0727 -0.4942
 8490W        W24674  11.463  16.842  14.409 -0.3003  0.0706 -0.0245
 8491W        W24675  17.113  17.622  11.544 -0.1121  0.2490  0.0920
 8492W        W24676  18.553   5.875  14.123  0.0735  0.1509  0.0305
 8493W        W24677  14.520  10.159   0.336 -0.1563 -0.2436  0.0215
 8494W        W24678   3.752  18.056  12.275 -0.0430  0.0248  0.1278
 8495W        W24679  16.376   9.858  12.937 -0.2466 -0.0194 -0.1656
 8496W        W24680  15.964  16.272  13.989 -0.0342  0.2561  0.0730
 8497W        W24681  12.294  16.578  13.889 -0.0519  0.0256 -0.0734
 8498W        W24682  10.875   9.080  14.170 -0.1862  0.2431  0.0030
 8499W        W24683   9.286   0.694   0.706  0.0174 -0.2186 -0.3362
 8500W        W24684   5.939  13.904  11.548  0.0520 -0.0236  0.0327
 8501W        W24685   4.968  17.718   0.375  0.2297 -0.1924  0.2413
 8502W        W24686  10.942   2.441   0.621  0.1388  0.2261  0.0555
 8503W        W24687   1.532   5.301  13.628  0.0924  0.2378  0.1397
 8504W        W24688   8.050  18.842   2.914  0.3730  0.0053  0.0075
 8505W        W24689  11.693   4.068  15.489  0.5509 -0.1306  0.0925
 8506W        W24690   1.154  14.726  14.333  0.0599  0.1718 -0.1129
 8507W        W24691   8.242  12.497  12.868  0.1490 -0.0197 -0.2758
 8508W        W24692   2.090  17.311  14.106  0.2666  0.2205  0.0128
 8509W        W24693  18.242   0.300   3.473 -0.0973 -0.1682  0.2046
 8510W        W24694  13.858  16.760   1.690  0.0478 -0.1012 -0.0531
 8511W        W24695   6.082   5.487  12.963 -0.1410 -0.0823  0.0772
 8512W        W24696   3.129   5.496   2.545  0.2560  0.0289  0.1444
 8513W        W24697   1.054  10.009   0.913 -0.1692  0.1354 -0.2632
 8514W        W24698  14.316   3.495  13.956  0.2728 -0.4089 -0.3569
 8515W        W24699   8.136   1.376  12.615 -0.0606 -0.0767 -0.0438
 8516W        W24700  13.628  10.597   1.583  0.0565  0.0818 -0.1586
 8517W        W24701   1.792   2.481   3.027  0.5199 -0.1560  0.1030
 8518W        W24702  15.642   8.511  11.815  0.0855 -0.0962  0.1949
 8519W        W24703   5.584   1.021   4.251  0.4684 -0.1699 -0.2432
 8520W        W24704   0.303   2.196   5.255  0.2373 -0.0230 -0.0701
 8521W        W24705   9.097  17.852   4.054 -0.0947 -0.1692 -0.6523
 8522W        W24706   4.194   2.823  11.671 -0.0098 -0.1903  0.1647
 8523W        W24707   7.601   5.324  13.177  0.2352 -0.0417  0.4428
 8524W        W24708   6.522   3.051  15.036 -0.0819  0.0039 -0.1030
 8525W        W24709   3.111   8.924  11.063 -0.1272 -0.1138  0.0881
 8526W        W24710   4.700  10.833  11.259 -0.4006  0.0973  0.0347
 8527W        W24711   5.526  11.718   1.146 -0.2712  0.1998 -0.3687
 8528W        W24712  17.870  15.227  11.663  0.0587  0.0022 -0.0104
 8529W        W24713  14.083   0.134   2.637 -0.2986 -0.0129  0.2301
 8530W        W24714   7.630   4.683  12.470 -0.0487  0.1628  0.0551
 8531W        W24715   2.372  18.734  10.570 -0.1354  0.5966  0.3399
 8532W        W24716  12.630  10.814  12.251  0.3226 -0.2043 -0.1255
 8533W        W24717   2.052  15.010  13.795  0.2348  0.0155  0.1450
 8534W        W24718   6.766   3.081   2.652  0.3162  0.1641  0.1156
 8535W        W24719  14.471   2.095   0.656  0.1400 -0.1671 -0.0988
 8536W        W24720   6.258   1.855   4.926 -0.2087 -0.4441 -0.0436
 8537W        W24721   4.951  13.838  13.918  0.0432 -0.0574 -0.0366
 8538W        W24722   0.549  17.095   3.748  0.4775 -0.0567 -0.1813
 8539W        W24723   2.409   5.969   3.492  0.0387 -0.0200 -0.2101
 8540W        W24724   2.387   5.657   0.913  0.0817  0.3195  0.2775
 8541W        W24725  10.591  17.459  13.911  0.0811 -0.0485 -0.0725
 8542W        W24726  17.660   5.926  13.564  0.0429 -0.0785  0.1704
 8543W        W24727  14.548   7.178   0.118  0.1415 -0.0044  0.0169
 8544W        W24728  12.227   0.354   3.576  0.0151 -0.0908 -0.1050
 8545W        W24729   8.806   2.989   4.996 -0.0904 -0.2737  0.2773
 8546W        W24730   9.255   9.478   3.647  0.0991  0.2678 -0.1004
 8547W        W24731   9.497  14.302  11.432  0.1267 -0.2336  0.0563
 8548W        W24732  16.106  11.505   2.724 -0.1043 -0.1379  0.1256
 8549W        W24733  13.928   0.197  10.857 -0.3237 -0.1420  0.1521
 8550W        W24734   6.020   3.738  13.610  0.0325 -0.0218  0.0492
 8551W        W24735   5.554   1.577   2.758 -0.0774  0.1358  0.0179
 8552W        W24736   1.594   8.929  13.652  0.2871 -0.0543  0.2663
 8553W        W24737  13.205  11.141   4.048  0.0719 -0.0129  0.0075
 8554W        W24738  18.246   3.782   3.796 -0.3749  0.0417 -0.0530
 8555W        W24739  11.066   0.754  12.212 -0.2338 -0.2170 -0.1813
 8556W        W24740   7.601   5.717   4.497  0.1300 -0.0922  0.0530
 8557W        W24741  12.262  12.900  12.128  0.0983  0.3153  0.1128
 8558W        W24742  10.591  13.421   3.817  0.0882  0.0143  0.0296
 8559W        W24743  17.279  16.782   3.658  0.2177  0.0561  0.1072
 8560W        W24744  13.269  13.243  11.797  0.1144 -0.0173 -0.1510
 8561W        W24745  18.333   3.034   4.484 -0.2361 -0.0731 -0.0731
 8562W        W24746  10.376   2.520  13.038 -0.0994  0.0631 -0.2312
 8563W        W24747   2.790  16.025   0.160  0.2587  0.2439  0.0908
 8564W        W24748  12.594  13.379   4.057 -0.1969 -0.1829  0.2730
 8565W        W24749  10.751   9.104   5.373 -0.3393 -0.0475 -0.1471
 8566W        W24750  17.359  11.345   5.680 -0.0583 -0.3805  0.0196
 8567W        W24751   7.543  12.351   5.285  0.3039  0.1273  0.2605
 8568W        W24752   6.669   1.182  12.808  0.0566  0.0152 -0.0431
 8569W        W24753   3.419   1.348  10.628 -0.0049 -0.0234  0.0421
 8570W        W24754   9.148  17.883   1.606 -0.0154 -0.3180 -0.0327
 8571W        W24755  13.579  18.275   4.434  0.5042  0.1331  0.0259
 8572W        W24756  18.366  15.114  11.603 -0.1354  0.1991  0.1901
 8573W        W24757   5.177  12.891  12.455 -0.1918 -0.0679 -0.0460
 8574W        W24758   2.408  11.438   5.730  0.1940 -0.0864 -0.1671
 8575W        W24759  15.744   2.662   4.991  0.0098 -0.3322  0.1756
 8576W        W24760   4.427  16.265   0.016 -0.0655  0.0879 -0.1819
 8577W        W24761   4.667   1.145   2.507 -0.2578  0.0491 -0.0140
 8578W        W24762  14.458  11.075  12.186  0.3983  0.1413 -0.0224
 8579W        W24763   2.393  15.146   4.736  0.2022  0.0544  0.0788
 8580W        W24764  16.733   2.270  10.776  0.1312 -0.2452 -0.0588
 8581W        W24765   6.302  15.927  13.667  0.1106 -0.1666  0.2631
 8582W        W24766  17.436   5.504  14.687 -0.0157  0.2317 -0.4056
 8583W        W24767  13.795   3.657   2.926 -0.0637 -0.1815 -0.0725
 8584W        W24768  15.328  11.754   1.818  0.0036  0.1897 -0.1449
 8585W        W24769   7.749   5.109  11.550 -0.4151 -0.1145 -0.0661
 8586W        W24770  11.588   6.218  12.546 -0.1969 -0.0550  0.1373
 8587W        W24771   4.124   5.740  14.414 -0.0629 -0.1913  0.2831
 8588W        W24772  15.552   7.351   0.279 -0.1842  0.2385  0.0841
 8589W        W24773  18.627   0.494   4.794 -0.1857 -0.3293 -0.3689
 8590W        W24774  13.124   7.953   0.417 -0.0541  0.3777 -0.3020
 8591W        W24775   6.743   4.368  12.210  0.0151  0.5481 -0.1960
 8592W        W24776   9.627   4.837  15.022 -0.1685 -0.0671  0.0984
 8593W        W24777   0.400   9.456  14.325  0.1087  0.0997  0.5220
 8594W        W24778  16.340   3.982   1.067  0.1734  0.3222 -0.2964
 8595W        W24779  15.245  14.180  14.414 -0.0613 -0.0248  0.0026
 8596W        W24780  10.204  15.000   4.925 -0.0589  0.0039  0.1829
 8597W        W24781  12.715  10.079   0.093  0.0964 -0.2361 -0.1653
 8598W        W24782  13.385  12.286  14.089 -0.1875  0.0655  0.3113
 8599W        W24783   1.522   7.456  10.115 -0.5958 -0.0582  0.1161
 8600W        W24784   8.851   2.941   1.021  0.2241 -0.1143 -0.1556
 8601W        W24785   6.253   1.753   1.550 -0.4652 -0.3580  0.0521
 8602W        W24786  18.101  10.211   9.939  0.2641  0.1155 -0.0713
 8603W        W24787  16.020   8.061   0.998  0.5938  0.0966  0.0908
 8604W        W24788  14.656   8.394   3.931  0.2147 -0.3539 -0.3214
 8605W        W24789  14.447   9.434  12.957  0.3930  0.2861 -0.2302
 8606W        W24790  10.094  10.098   3.852 -0.0527 -0.0965 -0.0596
 8607W        W24791   3.252  15.215  13.186  0.1191  0.2374 -0.0070
 8608W        W24792   1.988  14.569  11.794 -0.1642  0.0462  0.4088
 8609W        W24793   4.529  11.527   4.118 -0.2047  0.0727  0.1954
 8610W        W24794  14.643  12.474   1.302  0.0955 -0.1999 -0.0109
 8611W        W24795  15.340   2.078  11.060 -0.2273 -0.1394  0.1889
 8612W        W24796   0.955   0.049   4.816 -0.0550  0.1030 -0.1069
 8613W        W24797  14.742  14.287  11.674  0.0324  0.1484  0.0027
 8614W        W24798   2.876   3.860   2.039  0.1974  0.1950 -0.4507
 8615W        W24799  10.062   0.374  11.979 -0.0551 -0.2038 -0.0612
 8616W        W24800   4.737   0.583  12.139 -0.0122  0.1071  0.1087
 8617W        W24801   4.041  14.456   4.532  0.0478 -0.1290 -0.1178
 8618W        W24802   2.539  18.368  10.989 -0.0444  0.0581 -0.1981
 8619W        W24803   0.986   7.326   2.851  0.1825 -0.2584  0.2346
 8620W        W24804  11.167  17.144   2.701  0.1669  0.0164 -0.1353
 8621W        W24805  11.979   9.262   0.961  0.1974 -0.0259 -0.0568
 8622W        W24806   9.365  16.080   1.244 -0.1043  0.3892 -0.0680
 8623W        W24807   8.285   8.817  10.708 -0.1213  0.0759 -0.1344
 8624W        W24808   0.900  16.833   4.036  0.0381 -0.2222 -0.1659
 8625W        W24809  10.057  18.255  13.549 -0.2640  0.1395 -0.0394
 8626W        W24810   5.618   0.319  13.947 -0.1366  0.0873 -0.0198
 8627W        W24811   9.113  11.944  12.704 -0.1503  0.2561  0.3212
 8628W        W24812  15.588  16.751   1.694 -0.1850  0.0789  0.1798
 8629W        W24813   3.387  18.744   0.832  0.1764 -0.0089  0.3935
 8630W        W24814   2.210  10.686   4.083  0.1200 -0.1250 -0.3175
 8631W        W24815  17.334   4.886   0.308 -0.0106  0.0937 -0.0071
 8632W        W24816  12.328   9.001  13.465  0.0785  0.4614  0.0945
 8633W        W24817  17.844   9.748  11.598 -0.2563 -0.0940  0.1165
 8634W        W24818   2.372   7.727   5.562  0.1760  0.5577  0.1411
 8635W        W24819   1.576  11.991   0.171  0.0572 -0.0761  0.1179
 8636W        W24820  14.095  11.337   3.698  0.0842 -0.0534 -0.1727
 8637W        W24821  15.096   3.268  15.213 -0.0790  0.3108  0.0261
 8638W        W24822   3.963  11.357  11.989  0.3467 -0.2412  0.4362
 8639W        W24823  16.127  16.263   1.184 -0.0676  0.1317  0.5017
 8640W        W24824   1.270   2.379  14.915  0.2130 -0.0545 -0.0128
 8641W        W24825  11.959   6.145   2.104  0.1036 -0.1731  0.3990
 8642W        W24826  11.460   1.369  10.719  0.1999 -0.0760  0.1442
 8643W        W24827  11.827   8.502  13.390  0.1194 -0.1929  0.0124
 8644W        W24828  13.154   1.490  15.483 -0.2179  0.3269 -0.0520
 8645W        W24829   1.339  14.320  10.821 -0.1189  0.1040  0.2298
 8646W        W24830  17.920  17.254  14.950  0.1059  0.1666 -0.0520
 8647W        W24831   6.393  17.337   1.007  0.0742 -0.1126 -0.4041
 8648W        W24832   6.382  14.239  14.256  0.2058 -0.0534 -0.1018
 8649W        W24833  14.478   4.330  11.923 -0.1641  0.2358 -0.0980
 8650W        W24834  13.277  12.726  12.618  0.1490 -0.2315 -0.1650
 8651W        W24835  15.812   5.285   2.760 -0.2680  0.2445 -0.1461
 8652W        W24836  17.851  14.340   1.917 -0.1485  0.0434 -0.1706
 8653W        W24837   8.889  15.285  12.641 -0.0976  0.0436  0.0018
 8654W        W24838   2.834   6.387   2.153 -0.0930 -0.2109 -0.0605
 8655W        W24839   7.352   4.077   4.231  0.0034  0.1621 -0.0660
 8656W        W24840  15.095   6.841   3.862  0.3707 -0.0090 -0.0212
 8657W        W24841   5.018   0.729   2.552 -0.0117  0.0547  0.2197
 8658W        W24842   6.428   4.380   5.702  0.2876  0.1986  0.1870
 8659W        W24843  16.142  14.816   3.271 -0.2625  0.3615  0.1446
 8660W        W24844  17.622   9.846   3.169  0.3841  0.2474  0.2974
 8661W        W24845  18.675   8.087  10.402  0.1235 -0.3502  0.0849
 8662W        W24846   7.218   9.294   2.971 -0.1097  0.1854 -0.0557
 8663W        W24847   2.597  10.057   3.664  0.2032 -0.0364 -0.2701
 8664W        W24848  18.440   3.343   9.904  0.1618 -0.0624 -0.0740
 8665W        W24849   3.829   9.614   0.192  0.3660  0.2366  0.2600
 8666W        W24850  11.407   3.962  13.883 -0.1299  0.3727  0.0356
 8667W        W24851   3.841   2.628   5.169  0.3117  0.0439  0.1249
 8668W        W24852   0.298  15.102  12.020 -0.0701  0.0902  0.0601
 8669W        W24853   2.440  14.648   0.360 -0.0193  0.0178 -0.1663
 8670W        W24854  13.154   7.738  14.430  0.0094 -0.3050 -0.2144
 8671W        W24855   5.045   6.998   1.047  0.0919 -0.1769  0.1116
 8672W        W24856   6.954  17.005  12.294 -0.1011 -0.2023 -0.0800
 8673W        W24857   1.565   3.530   3.110  0.1368 -0.2317 -0.5090
 8674W        W24858   3.748  13.002   0.398 -0.1787  0.0066  0.1093
 8675W        W24859  16.549   9.047  13.843  0.0781 -0.3298 -0.2603
 8676W        W24860   6.876  18.323   4.747 -0.0601 -0.0614  0.0741
 8677W        W24861   1.550  10.624   1.990  0.3845  0.0821  0.1985
 8678W        W24862  16.271   0.612   4.739 -0.2504  0.0531  0.0493
 8679W        W24863  18.742  16.096   2.139 -0.0647  0.2855 -0.4874
 8680W        W24864   0.928  11.457  14.676 -0.0448  0.3506  0.0669
 8681W        W24865  13.210   3.754   2.379  0.1314 -0.2556 -0.0415
 8682W        W24866   4.568   7.991  15.459  0.2513  0.1256 -0.0487
 8683W        W24867   8.765   2.434   0.086  0.0593 -0.2946 -0.0051
 8684W        W24868   4.619  18.810   2.453  0.2422  0.2112  0.2225
 8685W        W24869   4.798   0.815  12.831 -0.1225 -0.2903 -0.0441
 8686W        W24870  16.161   4.382  15.012  0.0956  0.1931 -0.2143
 8687W        W24871   5.113   0.607   3.113 -0.3344  0.1317 -0.1205
 8688W        W24872   1.733   5.503   4.475  0.0279  0.0914 -0.2400
 8689W        W24873   4.429   2.380   4.904 -0.2578 -0.0906  0.0797
 8690W        W24874   6.962   0.722   3.584 -0.3102 -0.4131  0.3065
 8691W        W24875  12.750   7.011   2.169 -0.0314  0.2236  0.0528
 8692W        W24876  17.212  13.955  10.635  0.0588 -0.2652 -0.4206
 8693W        W24877  14.683  17.608  14.517 -0.0554 -0.3774 -0.0560
 8694W        W24878   3.214   7.827   4.221  0.2252  0.1597 -0.0261
 8695W        W24879  18.814  11.483   3.055 -0.2509  0.0114 -0.0559
 8696W        W24880  16.377  11.742   4.153  0.4447 -0.1359  0.0643
 8697W        W24881   1.100   7.815   2.944 -0.2521  0.0265 -0.0503
 8698W        W24882  11.986  13.258   5.318 -0.3597  0.2373 -0.0614
 8699W        W24883   3.054  10.044  11.208  0.0094  0.0201  0.2641
 8700W        W24884  15.142   5.880   2.651 -0.0204 -0.1325  0.3714
 8701W        W24885   6.540  12.891   0.923  0.0449  0.3695  0.1064
 8702W        W24886   6.876  17.586   3.011  0.2886  0.1945  0.1555
 8703W        W24887   7.983   2.653  11.496 -0.0376  0.0265  0.0619
 8704W        W24888  12.046   0.989   5.326 -0.0816 -0.1432  0.0287
 8705W        W24889   1.732  16.515   1.543  0.0999  0.0822 -0.2335
 8706W        W24890  12.615   6.720   4.984 -0.1720 -0.2090 -0.1510
 8707W        W24891  15.056   1.750   3.572 -0.2853  0.2559  0.2408
 8708W        W24892  16.111  18.180   5.362  0.0209 -0.0679 -0.0219
 8709W        W24893  16.499   6.475   1.017 -0.3097  0.0081 -0.1414
 8710W        W24894  18.276  17.623   1.243 -0.0692  0.0119  0.2892
 8711W        W24895   8.534   9.086   3.269 -0.0460  0.2714  0.2612
 8712W        W24896  13.749   1.137  12.171 -0.2092 -0.1127 -0.3260
 8713W        W24897   0.354  15.591   2.316 -0.3077  0.0605  0.2570
 8714W        W24898   7.926  16.861  11.443  0.0006 -0.0843 -0.0226
 8715W        W24899   5.943  10.725   3.033  0.1162 -0.0163 -0.1830
 8716W        W24900   2.667  14.798  14.653 -0.0274  0.0050  0.0969
 8717W        W24901   9.283   2.391  15.465  0.0438 -0.1386  0.3283
 8718W        W24902   7.846   1.929   0.342  0.2827 -0.3424  0.2291
 8719W        W24903   9.063  15.143   3.912 -0.0534  0.1751 -0.0049
 8720W        W24904   5.590  12.725  11.025  0.0243  0.2692 -0.0367
 8721W        W24905  10.632  12.881   2.172  0.1884  0.3267  0.2443
 8722W        W24906   2.136  11.226  10.934  0.0575 -0.2196  0.3659
 8723W        W24907  11.085   9.880   4.932 -0.1730 -0.1949  0.1475
 8724W        W24908   1.606  15.621   3.292  0.1125 -0.0441 -0.2731
 8725W        W24909  18.506  12.469  12.048 -0.0325  0.0034 -0.0735
 8726W        W24910  16.587   3.749  11.851 -0.3531 -0.0577  0.2254
 8727W        W24911   3.314  14.249   3.284 -0.0227 -0.0174  0.0966
 8728W        W24912  14.737  15.303   2.079  0.2813  0.0268 -0.0573
 8729W        W24913   9.516  13.140  14.545 -0.0281 -0.2412  0.0721
 8730W        W24914   4.104   9.581  15.239  0.1250 -0.0769  0.1504
 8731W        W24915   2.342  16.064   2.210  0.0577 -0.0033  0.1517
 8732W        W24916   9.605   0.559  12.310  0.3638  0.0902  0.4100
 8733W        W24917   9.086   7.448  14.756 -0.2193 -0.1895  0.0505
 8734W        W24918   5.985  14.111   0.164 -0.0789 -0.0558 -0.1699
 8735W        W24919   5.588   3.405   2.875  0.0979 -0.0792  0.2716
 8736W        W24920  18.053  12.820  13.386 -0.0404 -0.3961  0.1144
 8737W        W24921   9.886  11.185  11.745 -0.0212  0.0529 -0.0669
 8738W        W24922   1.510  18.343   3.634  0.0301 -0.2647  0.1630
 8739W        W24923  18.660  10.988   2.144  0.0117 -0.0723 -0.2025
 8740W        W24924   6.735  10.228  10.225  0.0490 -0.0299  0.1403
 8741W        W24925   1.721   8.521   4.603 -0.1529 -0.2541 -0.0643
 8742W        W24926  12.771  18.817  12.952 -0.1272 -0.1279 -0.1125
 8743W        W24927   0.642   4.152  14.863  0.1458 -0.2232  0.2411
 8744W        W24928  18.653   2.300  13.015  0.0547  0.1354 -0.1994
 8745W        W24929  12.542  14.715  14.747  0.0668 -0.3815  0.1305
 8746W        W24930   3.604   8.564   1.544 -0.0122  0.0162 -0.1273
 8747W        W24931   8.904  16.513  12.250  0.2258  0.0029 -0.0205
 8748W        W24932  17.424   5.543   4.923  0.1882  0.2019  0.0318
 8749W        W24933  12.603   3.473  12.488  0.0163 -0.2658  0.0171
 8750W        W24934   5.016  17.034  13.835 -0.0061  0.1242 -0.1903
 8751W        W24935   6.497   9.494  14.659  0.1268  0.1331  0.1120
 8752W        W24936   4.776   3.197  15.001 -0.2016 -0.0421  0.0905
 8753W        W24937  16.301  10.242   2.571 -0.2494 -0.5464  0.2451
 8754W        W24938  15.184   0.173   0.992 -0.1580 -0.1213 -0.1035
 8755W        W24939   0.506   3.225  10.568 -0.0149 -0.2554 -0.2314
 8756W        W24940   6.637   7.406  11.777 -0.1572  0.4156  0.0753
 8757W        W24941   6.874   8.335   0.013 -0.0963 -0.2205 -0.3590
 8758W        W24942  14.811   3.384   3.568 -0.1716 -0.2838 -0.2963
 8759W        W24943   8.856   6.373   1.665 -0.2977 -0.0590 -0.0841
 8760W        W24944   8.872  16.760  11.790 -0.2243 -0.3413  0.2459
 8761W        W24945  12.991   1.035  10.531  0.2748  0.2352  0.2603
 8762W        W24946   5.752  15.629  12.030  0.0194 -0.0656 -0.3975
 8763W        W24947   1.203   3.845   2.055  0.2214  0.0002 -0.1410
 8764W        W24948   0.142  13.179  10.051 -0.3255  0.0708 -0.1786
 8765W        W24949   4.071   6.587  14.783 -0.0103 -0.0297  0.2079
 8766W        W24950   4.486  15.414  13.938 -0.0205  0.2513 -0.1083
 8767W        W24951   2.683   0.287  14.831  0.3127  0.0906 -0.3628
 8768W        W24952  15.248   9.257   5.736  0.2832 -0.5462  0.0492
 8769W        W24953   1.556  11.218  10.969  0.1178 -0.0688 -0.0683
 8770W        W24954   3.592  14.972  14.105  0.1031  0.0679 -0.2554
 8771W        W24955  17.532   7.967   3.356  0.0371 -0.0293  0.4687
 8772W        W24956   9.588   0.457   2.684 -0.0216  0.1424  0.2108
 8773W        W24957  11.787  14.182   0.388 -0.1018  0.3835 -0.3134
 8774W        W24958  17.223  14.398  10.972  0.3664  0.2415  0.5121
 8775W        W24959   5.001  11.921   1.222  0.0536 -0.0494 -0.0721
 8776W        W24960   5.312  17.215  11.616  0.1658  0.2433  0.0627
 8777W        W24961   2.673  11.861   3.222 -0.0136  0.1261 -0.0010
 8778W        W24962   1.819   3.971   2.769  0.1518 -0.0440  0.1574
 8779W        W24963  14.033   4.444   3.977 -0.0533 -0.1974  0.2390
 8780W        W24964   5.050   4.774  12.764  0.3294  0.0925 -0.0312
 8781W        W24965   6.869  11.160  11.842 -0.0921 -0.1753 -0.2158
 8782W        W24966   9.881   1.094  11.565 -0.2207 -0.1148  0.1824
 8783W        W24967  10.749  16.924  10.627 -0.0508 -0.0492  0.0950
 8784W        W24968  10.289   1.556   4.844 -0.2507 -0.1979 -0.0981
 8785W        W24969  12.913   8.291   0.158 -0.3279 -0.2537  0.0867
 8786W        W24970   3.296   0.019  14.198 -0.3320 -0.1990  0.1774
 8787W        W24971   8.957  15.802  12.714  0.2441  0.1795 -0.0100
 8788W        W24972   8.668   2.372   4.943  0.1875  0.1147  0.1391
 8789W        W24973   6.163   8.298   0.750 -0.2251 -0.2782 -0.0339
 8790W        W24974   6.510   6.449  11.443  0.0726  0.3133  0.0748
 8791W        W24975   2.989   0.949   3.381 -0.0667  0.0462  0.0429
 8792W        W24976   7.620   2.316  12.663 -0.1744  0.1751 -0.2134
 8793W        W24977   6.580  12.874   0.289  0.2682 -0.0402  0.2045
 8794W        W24978   9.800   9.061   4.983  0.1992  0.2333  0.1060
 8795W        W24979  12.142   3.097  14.336  0.1137  0.6217 -0.1584
 8796W        W24980   4.226   2.511  15.333 -0.0073  0.1439 -0.3202
 8797W        W24981  14.521  14.377   2.649  0.2907 -0.1400 -0.1843
 8798W        W24982  17.141  12.206  10.169 -0.0797  0.0784 -0.1121
 8799W        W24983  18.276   4.626  11.762  0.0106 -0.1225 -0.1290
 8800W        W24984  10.399  16.200  12.246  0.0600  0.0712 -0.1250
 8801W        W24985  18.242  11.140   2.410 -0.0302  0.0799  0.0815
 8802W        W24986   2.189  13.823   1.526 -0.0727 -0.1560 -0.1630
 8803W        W24987  17.620   5.321  11.281  0.2127 -0.0914  0.1131
 8804W        W24988  18.410  10.849  15.192  0.0580 -0.0662  0.1652
 8805W        W24989   7.139  12.252  13.718 -0.1001 -0.0612  0.0038
 8806W        W24990  18.523   4.606  10.759  0.0526  0.1640  0.0895
 8807W        W24991   4.978   7.785   1.699  0.0614  0.3066  0.0783
 8808W        W24992   3.932  16.973   5.049  0.0432  0.1938  0.0136
 8809W        W24993   2.697   1.437   3.320 -0.0419 -0.0397  0.3231
 8810W        W24994   0.442   8.398   2.658 -0.0483  0.0140  0.0494
 8811W        W24995  13.878   4.313   5.810  0.0862  0.0904 -0.2658
 8812W        W24996  12.559   8.080   2.772  0.1641 -0.1986  0.1828
 8813W        W24997   6.550   2.311  12.375  0.4102 -0.1898  0.1655
 8814W        W24998   7.173  11.553   2.501 -0.0705 -0.0913  0.5807
 8815W        W24999  13.120   6.378   1.592  0.0743  0.0620 -0.1463
 8816W        W25000  14.115   7.038   0.870  0.3913  0.4097  0.0572
 8817W        W25001   1.305  17.176   1.878  0.0572 -0.1844 -0.0227
 8818W        W25002   7.005  18.409   2.802 -0.0279  0.3843  0.1614
 8819W        W25003  11.312  10.060   4.547  0.2386 -0.1553 -0.1098
 8820W        W25004  13.898   9.212  13.759 -0.2340 -0.3378 -0.0458
 8821W        W25005   4.912  15.838   0.674  0.2916 -0.0340  0.1705
 8822W        W25006   7.233   3.289   2.778 -0.1495  0.1145 -0.0605
 8823W        W25007  17.812   5.538   4.020  0.3040  0.2117 -0.2365
 8824W        W25008  13.297  15.188  14.932  0.2233  0.1261  0.0177
 8825W        W25009  16.264   7.038   3.361  0.0760 -0.3353 -0.0256
 8826W        W25010  17.845   8.799   4.939  0.0821 -0.1891  0.0665
 8827W        W25011   0.510   9.503   1.364  0.2103 -0.3300  0.5088
 8828W        W25012  17.660  18.559  13.568 -0.0577 -0.0723 -0.2896
 8829W        W25013   3.094   2.618   0.983  0.0721  0.0179 -0.0782
 8830W        W25014  15.155  13.274  14.595  0.0388 -0.0871  0.0406
 8831W        W25015   1.405  10.194   2.731 -0.0512  0.0054  0.1151
 8832W        W25016  15.483  15.346   3.185 -0.4443 -0.0509  0.3891
 8833W        W25017  13.949   9.131  12.821  0.0734  0.1338 -0.2755
 8834W        W25018   9.607   7.870  14.804 -0.1606  0.2996  0.1285
 8835W        W25019  12.017   9.890  13.624 -0.2625 -0.0128  0.1554
 8836W        W25020  12.843  14.398   1.579 -0.3254 -0.3930  0.1571
 8837W        W25021  13.851  14.973   0.958  0.1777 -0.0335 -0.2327
 8838W        W25022   6.029  10.131   3.948  0.2631 -0.1217  0.0301
 8839W        W25023   7.959   8.172   3.032  0.0052 -0.1794 -0.0286
 8840W        W25024   9.372  16.362  12.345  0.0555 -0.0677  0.1073
 8841W        W25025  10.844   4.911  11.470 -0.2858 -0.0012  0.0121
 8842W        W25026  18.476  12.290  13.083 -0.0805  0.0734 -0.0156
 8843W        W25027  15.006   4.658  12.821  0.3651  0.1077  0.3333
 8844W        W25028   5.802  12.069   1.877  0.3213  0.0436  0.0659
 8845W        W25029  11.079   9.742  13.989  0.0306  0.1107 -0.4750
 8846W        W25030   6.255  16.585  15.038 -0.5985 -0.1821 -0.0731
 8847W        W25031   3.394   0.388   0.444  0.0854  0.0042 -0.4200
 8848W        W25032  14.301   2.015  12.533  0.0566  0.0241 -0.1592
 8849W        W25033   0.502   5.428   4.521 -0.2155  0.1021 -0.1399
 8850W        W25034   6.533  15.606   3.388 -0.1005  0.2194 -0.0052
 8851W        W25035   2.936  15.364  12.819 -0.0034 -0.4756 -0.0555
 8852W        W25036   4.114   7.093   5.852 -0.2291  0.1480 -0.2422
 8853W        W25037  10.061   0.210  13.001 -0.0620  0.2035 -0.2802
 8854W        W25038  10.167  16.631   1.112 -0.2268  0.1120  0.0053
 8855W        W25039   6.774   1.777   0.446  0.0150  0.0653 -0.0591
 8856W        W25040   3.765   5.320   3.681  0.0868 -0.1393 -0.2353
 8857W        W25041   6.357   8.135   2.803 -0.0117 -0.1235  0.2912
 8858W        W25042  17.197   1.845   1.350 -0.2950  0.2744  0.0034
 8859W        W25043  12.912  12.403   1.440 -0.3596 -0.0012  0.2355
 8860W        W25044   5.432  17.299   5.053  0.0153  0.1616 -0.0945
 8861W        W25045  10.733  15.646   0.084 -0.2456  0.2083  0.0953
 8862W        W25046  15.882   8.678  13.897  0.2552  0.1292 -0.2107
 8863W        W25047   8.797   7.959  13.188  0.0356  0.0092 -0.1708
 8864W        W25048  18.027  15.528   2.980  0.3613 -0.2467 -0.1504
 8865W        W25049  10.984  10.978   0.913  0.2665  0.2187 -0.1301
 8866W        W25050  12.032  11.578   4.499  0.2280 -0.1768 -0.1441
 8867W        W25051  18.090   6.536  11.845 -0.0750 -0.0677  0.0449
 8868W        W25052  11.777  16.650   3.143  0.1574  0.2032 -0.1913
 8869W        W25053   2.936   7.816   2.414  0.1319 -0.1652  0.4176
 8870W        W25054   5.206   7.553   0.338  0.0047  0.2050 -0.0843
 8871W        W25055   1.249  11.132  12.470  0.0312 -0.3350 -0.1874
 8872W        W25056   2.746  12.793   0.008 -0.2111  0.1137 -0.0364
 8873W        W25057  15.543  17.523  13.877  0.1129 -0.0426  0.0254
 8874W        W25058   2.727   2.257  13.491  0.0629  0.0157  0.3855
 8875W        W25059   3.381   1.351  14.952 -0.1184  0.0926 -0.1643
 8876W        W25060   6.004   9.770   3.235  0.1042  0.1115  0.1847
 8877W        W25061   6.916   3.389  14.983  0.2379  0.4079 -0.2644
 8878W        W25062   3.903  14.519  14.106 -0.3937 -0.0466 -0.0660
 8879W        W25063   0.970  17.222  13.509 -0.2599 -0.1510 -0.0254
 8880W        W25064  14.436  16.170   1.217  0.1504  0.0031 -0.0182
 8881W        W25065  15.398  10.903   0.316 -0.1453  0.0807  0.0897
 8882W        W25066  10.131   3.982   1.991 -0.1528  0.0813 -0.0028
 8883W        W25067   2.048   8.930  13.955  0.1000  0.2673  0.2798
 8884W        W25068   2.852   7.744   1.579 -0.0641  0.0466 -0.0760
 8885W        W25069  11.165  10.810  15.431 -0.1077  0.0498  0.2098
 8886W        W25070  11.765  13.810  11.147  0.2875  0.0007 -0.0155
 8887W        W25071  17.710  11.302  12.287 -0.1711 -0.1181  0.3803
 8888W        W25072  10.172  11.724  11.717  0.1411  0.1706  0.1194
 8889W        W25073  15.963  11.435   4.364  0.0029 -0.0138 -0.2252
 8890W        W25074  10.205  13.210   2.088 -0.1967  0.4949 -0.1986
 8891W        W25075   0.612  10.370  15.421 -0.0094 -0.1077  0.0046
 8892W        W25076   2.407   7.439  14.346 -0.3215 -0.0020  0.0822
 8893W        W25077  15.204   8.217   1.909  0.3204  0.2919 -0.3912
 8894W        W25078   4.419   1.251   3.536 -0.0152 -0.3933  0.3099
 8895W        W25079   6.210   3.675   0.228  0.2774 -0.1061  0.2233
 8896W        W25080   7.716  18.381   3.610  0.1735  0.1832  0.0239
 8897W        W25081  13.950   9.655  13.978 -0.0775 -0.0681  0.0142
 8898W        W25082   4.643  13.631  12.831  0.0398  0.0786  0.1612
 8899W        W25083   2.083  12.291   1.108 -0.3002 -0.1011 -0.0165
 8900W        W25084  11.703   7.745   5.842  0.1422 -0.1487 -0.0425
 8901W        W25085  18.082  18.256  15.064 -0.2662 -0.0190 -0.2323
 8902W        W25086  17.253  14.229   4.091  0.2378 -0.2999  0.0664
 8903W        W25087   2.017   7.212   1.372  0.0063 -0.1229 -0.1314
 8904W        W25088   7.583   4.456   4.014 -0.2621 -0.0807  0.0581
 8905W        W25089   7.187   2.346  14.392 -0.1852  0.0020 -0.1764
 8906W        W25090   9.006   3.319   1.366  0.3075 -0.0354 -0.1922
 8907W        W25091   0.707   9.277  15.526 -0.1233 -0.0387 -0.0285
 8908W        W25092   7.701   6.179   0.588  0.1008 -0.4545  0.1708
 8909W        W25093   1.555   2.174   4.484  0.1319  0.1343 -0.0709
 8910W        W25094  10.589  10.454  11.900  0.1677  0.1441 -0.1186
 8911W        W25095  16.270   2.307  12.712 -0.2507 -0.3073  0.2001
 8912W        W25096   6.580   0.209   2.238 -0.1101 -0.0008 -0.0801
 8913W        W25097  18.418   0.028   1.518 -0.1737 -0.1476 -0.1914
 8914W        W25098  12.597  16.916  13.622 -0.0099 -0.0448  0.0059
 8915W        W25099  15.266   5.866   3.136 -0.2841  0.1865  0.3556
 8916W        W25100   5.087   1.433  13.073 -0.1014 -0.0167 -0.0554
 8917W        W25101   0.411   1.268  14.236 -0.0275 -0.0493 -0.2938
 8918W        W25102  17.509   2.219  10.763  0.0659 -0.0856 -0.2142
 8919W        W25103  17.737   2.710  12.986 -0.1655 -0.0396  0.0291
 8920W        W25104  18.388   8.074   4.230 -0.1571 -0.1165  0.1201
 8921W        W25105   2.704   3.556  12.552 -0.0394  0.3000 -0.0024
 8922W        W25106   5.794  14.173   2.980 -0.1954 -0.2504  0.2057
 8923W        W25107  10.389   9.386  13.203  0.1868 -0.2949  0.0220
 8924W        W25108   2.939  13.524   1.146 -0.2050  0.3512 -0.0153
 8925W        W25109  10.320  15.557   2.032 -0.2271 -0.1170 -0.0640
 8926W        W25110   1.126   8.647  14.941  0.2680 -0.2459 -0.0132
 8927W        W25111  17.676  13.275  12.571 -0.1357 -0.0658 -0.1132
 8928W        W25112  17.267  11.080   4.336 -0.2703  0.2087  0.1696
 8929W        W25113   5.568  16.514   1.521  0.1577 -0.0774  0.3008
 8930W        W25114  16.582   6.996  13.789 -0.0255 -0.0098  0.0509
 8931W        W25115  10.799   9.790   2.883  0.0293 -0.1103  0.4270
 8932W        W25116  11.826   2.184  13.535  0.0911  0.0109 -0.0330
 8933W        W25117  10.981   7.729   0.557  0.2244  0.0657 -0.0858
 8934W        W25118   6.108  13.856   5.055  0.0400 -0.3218 -0.0669
 8935W        W25119  18.386   0.694   4.390 -0.2328 -0.0746  0.1335
 8936W        W25120  11.554  15.084  12.719 -0.0960 -0.2202  0.0417
 8937W        W25121   2.628  15.976  12.681  0.2059 -0.3113 -0.2561
 8938W        W25122   6.276  17.546   5.574  0.0117  0.0668  0.1099
 8939W        W25123   5.046   2.743  13.091  0.1455  0.6287  0.3358
 8940W        W25124  17.042   7.160  13.902  0.0774  0.0535 -0.1112
 8941W        W25125   9.068   8.237   2.332  0.0192  0.1355 -0.2117
 8942W        W25126  10.223  10.808  11.936  0.0651 -0.1172  0.1102
 8943W        W25127  14.481   1.105   0.538 -0.1896 -0.2396  0.0456
 8944W        W25128   9.585   5.911   2.784  0.2396 -0.2381 -0.0488
 8945W        W25129   5.317  18.443  15.271  0.3070  0.0361  0.0361
 8946W        W25130   3.175   6.955   3.802 -0.1524  0.1693  0.3635
 8947W        W25131  16.255  14.918  12.384 -0.1893 -0.1933  0.1066
 8948W        W25132   0.686   0.173   0.411 -0.0620 -0.2166  0.3626
 8949W        W25133  17.491  16.941   9.741 -0.0439  0.2006  0.1614
 8950W        W25134   0.644   9.752   5.941 -0.1191  0.1117 -0.1260
 8951W        W25135   1.352   0.489  11.629 -0.3454 -0.3958 -0.2462
 8952W        W25136   9.639   4.619  10.962  0.1992  0.0400 -0.0231
 8953W        W25137   0.073  15.686   4.694  0.1119  0.0255  0.0747
 8954W        W25138  11.813   7.919   4.299 -0.2127  0.1172  0.1051
 8955W        W25139   9.959   4.017   5.487 -0.0709  0.4368  0.3515
 8956W        W25140   5.308  13.463  10.675 -0.1383 -0.2910  0.1836
 8957W        W25141  14.915  13.680  12.857  0.2261  0.2052 -0.1224
 8958W        W25142  10.307  13.992   1.217 -0.0332 -0.1364 -0.3451
 8959W        W25143   9.295   2.112   1.016  0.2849  0.1555 -0.0414
 8960W        W25144  18.364  10.170  10.772  0.0362 -0.2617  0.0305
 8961W        W25145  12.333   1.819   2.847 -0.0525  0.1029 -0.1087
 8962W        W25146   5.423   4.378  14.250  0.2616 -0.0403  0.0215
 8963W        W25147  17.631   7.523  13.899  0.2421  0.1405  0.0155
 8964W        W25148  10.012   2.955  12.893  0.3168  0.2803  0.0767
 8965W        W25149   2.310   1.395   4.344  0.0340 -0.0132 -0.0274
 8966W        W25150   1.421   0.252   2.905 -0.0781  0.1695 -0.2002
 8967W        W25151   0.276  12.340   2.067 -0.3340  0.1175 -0.0316
 8968W        W25152  13.556   4.355  12.046 -0.3295  0.1465  0.5416
 8969W        W25153  18.278  11.546  14.713 -0.3425 -0.1032  0.0791
 8970W        W25154  11.937  10.845   9.489 -0.0105  0.3091 -0.1796
 8971W        W25155  18.716  17.476   1.035 -0.1217  0.3653  0.0229
 8972W        W25156  11.771   4.463   0.540 -0.0621 -0.0067  0.0054
 8973W        W25157   5.562  10.010  13.974 -0.0868  0.1395 -0.0395
 8974W        W25158   4.936  18.522   3.020  0.0999  0.0803 -0.0348
 8975W        W25159   7.814   8.509   1.851  0.1043  0.1385 -0.0017
 8976W        W25160   8.094   9.066  15.187 -0.1724  0.2820 -0.2700
 8977W        W25161   1.706   3.190   1.450  0.1730  0.3305 -0.1049
 8978W        W25162   0.103  18.511  12.879  0.2793 -0.2338  0.1892
 8979W        W25163  11.093  10.565   4.301 -0.1603 -0.1610  0.0214
 8980W        W25164  15.474  11.429   0.561  0.0286  0.0157  0.0364
 8981W        W25165  16.731   6.865  14.259  0.2021 -0.1887  0.0298
 8982W        W25166  16.443  14.068   1.236 -0.1070 -0.3384 -0.2794
 8983W        W25167  13.787  17.339   0.908  0.1988 -0.1695  0.0307
 8984W        W25168   3.871   2.219   1.834 -0.0408 -0.1515 -0.0125
 8985W        W25169   0.568   3.430  12.945 -0.3908  0.1137  0.1770
 8986W        W25170   8.300   4.103   1.192 -0.0321 -0.0637 -0.4581
 8987W        W25171  16.955  17.986  13.266  0.2935 -0.1220  0.0822
 8988W        W25172   2.753   5.057  14.287 -0.0953 -0.2274 -0.0642
 8989W        W25173  16.552   3.048  11.571 -0.0256  0.1245  0.0296
 8990W        W25174  16.988  13.135  10.835  0.0807  0.2759  0.1093
 8991W        W25175  14.814   2.107  14.206 -0.2058  0.1776 -0.0568
 8992W        W25176   3.095   4.846   5.983  0.4300  0.0127 -0.0635
 8993W        W25177  15.500   9.251  11.781  0.1449 -0.2666 -0.2330
 8994W        W25178  15.819  13.988  13.108 -0.1287  0.1940 -0.0474
 8995W        W25179   0.215   4.933  14.597  0.0050  0.1010  0.1178
 8996W        W25180   7.223   7.626   9.383 -0.0628 -0.0343 -0.0333
 8997W        W25181   6.565   1.731  14.220 -0.0854  0.1765 -0.2635
 8998W        W25182  16.786  13.107   0.112  0.1664  0.0583 -0.1516
 8999W        W25183   4.030   9.003  10.967 -0.1785  0.2221  0.2600
 9000W        W25184  17.039   8.445  11.433 -0.0722  0.3030 -0.1540
 9001W        W25185  18.615   7.136  12.369 -0.0019  0.3345 -0.0994
 9002W        W25186   1.534  13.634   2.141  0.0743 -0.0823 -0.1105
 9003W        W25187  18.474  11.065  13.077 -0.3843  0.1380 -0.0357
 9004W        W25188  16.591   9.340   2.934 -0.3520  0.0066 -0.0704
 9005W        W25189   3.085  14.227  14.032 -0.1292 -0.0310  0.0964
 9006W        W25190  10.429  17.347   2.109  0.1426  0.0763 -0.0014
 9007W        W25191  15.677   9.453   2.820  0.0963 -0.0807  0.1781
 9008W        W25192   8.238   3.139   2.506 -0.1638  0.1031  0.1481
 9009W        W25193   2.149  15.744   3.550 -0.3622  0.1149 -0.0088
 9010W        W25194  13.017   4.609   5.589  0.2253 -0.0268  0.0173
 9011W        W25195   0.726   2.935  12.372  0.1724  0.2772  0.2550
 9012W        W25196  16.439   8.566  13.063 -0.1707 -0.2203 -0.1539
 9013W        W25197  17.828   8.847   2.760 -0.2524  0.1903 -0.0322
 9014W        W25198  16.687  13.253   1.944 -0.0474  0.0778  0.2541
 9015W        W25199   2.448   4.491   0.423 -0.3612  0.2793 -0.0529
 9016W        W25200   8.292   6.067  12.093  0.0530 -0.1175  0.0286
 9017W        W25201  10.064  17.079   4.641  0.0389  0.2532 -0.0574
 9018W        W25202  10.975   7.240   6.270  0.0270 -0.3903 -0.1357
 9019W        W25203  14.413  17.443  14.981  0.0198 -0.0292  0.0780
 9020W        W25204  14.926   4.351   0.801  0.1268  0.0372 -0.1470
 9021W        W25205   4.767   1.706   4.965  0.0969  0.0352  0.0191
 9022W        W25206   4.421  16.347   3.639  0.0371  0.3656 -0.1851
 9023W        W25207   4.641  12.991  13.669 -0.3049  0.2498 -0.4266
 9024W        W25208   4.606   6.462  11.024 -0.1345 -0.0727 -0.2675
 9025W        W25209  15.544  11.411  13.093  0.1436 -0.1052  0.1666
 9026W        W25210  18.665   8.095   3.554  0.1187  0.2244 -0.2238
 9027W        W25211  12.368  16.747  11.996 -0.2936  0.3472  0.0489
 9028W        W25212   6.467  12.145   4.360  0.2259 -0.1275 -0.0797
 9029W        W25213  14.109   3.095   4.331 -0.6476  0.0355 -0.0897
 9030W        W25214  10.114  12.947  12.109  0.2013  0.1811 -0.1142
 9031W        W25215  10.582   7.158   4.921 -0.1230 -0.0853  0.0057
 9032W        W25216  13.366   9.389   3.369 -0.1903 -0.0236  0.1150
 9033W        W25217   7.686   7.867   4.171  0.3947 -0.5145  0.2005
 9034W        W25218   5.146   2.379  15.230 -0.2362  0.0502  0.2310
 9035W        W25219   8.233   1.521  12.182 -0.0510  0.1141  0.1114
 9036W        W25220   3.593   1.234  13.420 -0.2184  0.0974 -0.0940
 9037W        W25221   2.338  12.186  13.551 -0.1273 -0.0314 -0.0505
 9038W        W25222  14.460   2.184   0.136  0.1074  0.1458 -0.1251
 9039W        W25223  16.567  10.948   0.259 -0.0314  0.3768 -0.0962
 9040W        W25224  12.612   6.463   6.266 -0.0080 -0.1350  0.2395
 9041W        W25225  16.415   6.410   1.521  0.1614 -0.0937  0.1869
 9042W        W25226  13.261   6.649   4.258 -0.2587 -0.0957 -0.0434
 9043W        W25227  18.643  10.038   2.921 -0.1532  0.0752 -0.0171
 9044W        W25228   8.638   7.429   4.294 -0.1126  0.1209 -0.0217
 9045W        W25229   4.347   4.761  10.340  0.0741 -0.3083  0.0018
 9046W        W25230   6.011   4.023   1.624 -0.0906  0.0482  0.2006
 9047W        W25231   6.979   8.458  10.444  0.2823  0.0173  0.1828
 9048W        W25232   7.185   0.024   1.423  0.0285 -0.1924 -0.1005
 9049W        W25233  15.327   7.377   1.770  0.0054  0.2819  0.1015
 9050W        W25234   3.997  17.986  11.356  0.1738  0.2200 -0.0017
 9051W        W25235   6.769  10.470  13.060 -0.1568  0.0939  0.0572
 9052W        W25236   5.491   8.453   2.614  0.1953 -0.1078  0.0130
 9053W        W25237   7.306  11.102   0.996  0.0771  0.2404  0.1011
 9054W        W25238  17.341  13.994   3.229  0.1309  0.2743 -0.2716
 9055W        W25239   9.988   7.851  12.834  0.1690 -0.0720 -0.0522
 9056W        W25240  11.849  11.700  14.009  0.0771  0.0209  0.2378
 9057W        W25241   7.281   4.806  11.574 -0.2964  0.1273  0.0702
 9058W        W25242  12.874  15.988  11.044  0.0683 -0.0462  0.1873
 9059W        W25243  11.172   7.473   4.322  0.0402 -0.0746  0.0542
 9060W        W25244  15.005   8.135   0.657  0.0287 -0.1289 -0.2596
 9061W        W25245  10.800   3.468   0.568  0.1771  0.3893  0.0620
 9062W        W25246   6.704   6.460  10.861 -0.2067  0.1399 -0.3374
 9063W        W25247   6.206   3.848  12.754  0.0060 -0.0634 -0.2685
 9064W        W25248   9.993   3.659   4.138 -0.1312  0.0504  0.1225
 9065W        W25249  10.399   1.420   0.817  0.2815 -0.1442  0.0990
 9066W        W25250   2.280   7.753   2.256 -0.1502 -0.2175  0.5968
 9067W        W25251   2.933   8.267  14.562 -0.0375  0.1827  0.1325
 9068W        W25252   0.065   3.893  12.017  0.0935  0.1904  0.2506
 9069W        W25253   3.523  17.776  15.064 -0.1699  0.0492  0.0513
 9070W        W25254   6.856  16.258   4.418 -0.0320 -0.0780 -0.1115
 9071W        W25255   6.209  10.455  15.015 -0.1612  0.4257  0.1942
 9072W        W25256  13.278   5.630   4.750 -0.0305 -0.2611 -0.4932
 9073W        W25257   0.242   1.791  11.529 -0.2012 -0.0604 -0.1949
 9074W        W25258   1.759   6.866   9.919 -0.0053 -0.0244  0.3860
 9075W        W25259   7.326   1.108   2.252  0.1379 -0.1007  0.0334
 9076W        W25260  15.827   0.567  11.993  0.3026  0.0024 -0.2594
 9077W        W25261  12.032   7.207   5.465 -0.0508  0.0447  0.1574
 9078W        W25262  14.519  15.869   0.123 -0.0048 -0.1094 -0.3209
 9079W        W25263   2.347   8.898   2.743 -0.0245  0.4110  0.2719
 9080W        W25264   8.536  17.014  12.220 -0.2522 -0.2889 -0.0164
 9081W        W25265  11.673  16.740  10.891  0.0120  0.1609 -0.0049
 9082W        W25266   7.720   5.567   3.637 -0.2126  0.2541  0.1004
 9083W        W25267  18.367   3.707   4.406 -0.2001 -0.1235  0.0962
 9084W        W25268  11.261  15.892   5.073 -0.0866 -0.0139 -0.0852
 9085W        W25269  12.140   5.597  12.753 -0.0726 -0.1740  0.0877
 9086W        W25270  14.409  16.821  11.236 -0.2829  0.1647  0.3837
 9087W        W25271   6.543  18.063   4.479  0.0910 -0.0955 -0.1562
 9088W        W25272  12.209  11.187  11.504 -0.1363 -0.1572 -0.1711
 9089W        W25273  16.562   8.562  12.483  0.2193  0.0425  0.0673
 9090W        W25274   2.848  17.724   1.780 -0.3159 -0.0416  0.2216
 9091W        W25275  11.179  11.669  13.977  0.2151 -0.1676 -0.0691
 9092W        W25276  11.961   2.957   1.537  0.0471  0.1963 -0.1444
 9093W        W25277  15.001   7.089  11.411  0.5053  0.2136  0.0342
 9094W        W25278  16.942   3.422  13.435  0.3426  0.0425 -0.2489
 9095W        W25279   1.114   0.935  15.534 -0.2987  0.1987 -0.1667
 9096W        W25280  18.693   8.867  10.916 -0.1352  0.1233  0.3039
 9097W        W25281   8.354   9.298  11.491  0.0957  0.2307  0.0163
 9098W        W25282  12.351   0.440  15.379 -0.1745  0.1048  0.1132
 9099W        W25283  18.208   8.946   4.609  0.0214 -0.0929  0.1104
 9100W        W25284   8.321   3.850  13.500  0.0196 -0.0382 -0.2136
 9101W        W25285  10.897   1.672   0.357 -0.3226  0.0078  0.1094
 9102W        W25286   4.466  13.257  10.378  0.0050  0.1613  0.1169
 9103W        W25287   8.235   2.032   4.145 -0.3940  0.1477  0.1667
 9104W        W25288   7.717   3.315  11.887 -0.2503  0.2922  0.5102
 9105W        W25289   7.230  10.703  11.260  0.2079  0.1525  0.0265
 9106W        W25290  15.860  16.040  15.232  0.2524 -0.1448 -0.0524
 9107W        W25291  17.984  17.921  12.578 -0.0116  0.1912  0.0415
 9108W        W25292   9.809   1.778  15.037 -0.2099  0.2291  0.2115
 9109W        W25293   6.801   2.805   4.238  0.1639  0.3313  0.1773
 9110W        W25294   9.098   3.886   5.123  0.0046  0.1595  0.3156
 9111W        W25295   6.770   6.806  11.202 -0.0878 -0.2167 -0.2655
 9112W        W25296   0.738   9.903  15.500  0.2063 -0.0815 -0.1043
 9113W        W25297   1.529   7.724   0.636  0.2094 -0.0731 -0.0911
 9114W        W25298   3.227   5.923  14.285 -0.3616 -0.2015 -0.2907
 9115W        W25299   1.508  12.928  13.708 -0.0561 -0.3224 -0.0695
 9116W        W25300  17.430  15.625   5.400 -0.0169 -0.2713 -0.3760
 9117W        W25301   4.661   2.861   4.564 -0.2812 -0.0439  0.2696
 9118W        W25302  11.402   2.004   2.190  0.0742  0.0057  0.2140
 9119W        W25303   6.650  10.702   3.234  0.0680  0.2377  0.0967
 9120W        W25304  10.056  13.952  15.007  0.1515  0.0393 -0.0885
 9121W        W25305  12.884   0.315  12.516 -0.0009 -0.3064  0.1720
 9122W        W25306   9.406   2.410   1.441 -0.6043  0.2636 -0.0187
 9123W        W25307  13.940  13.156   0.930 -0.3300  0.1680  0.0741
 9124W        W25308   1.093  12.115   0.898  0.2829  0.0657 -0.1474
 9125W        W25309  15.720  14.907   2.327  0.0841 -0.1714 -0.0532
 9126W        W25310  16.560  13.925  13.961 -0.0544 -0.1406  0.0397
 9127W        W25311   6.168  17.216   2.497  0.0617  0.4043 -0.2006
 9128W        W25312   7.789  13.343  10.292  0.0906 -0.3342 -0.1071
 9129W        W25313   6.987   9.313  14.390 -0.1410  0.1634 -0.0132
 9130W        W25314  18.008   6.106  12.349 -0.1935  0.1342 -0.0973
 9131W        W25315   0.148  17.209  13.746  0.0770  0.1001 -0.2006
 9132W        W25316   6.895  16.599   2.612  0.0567 -0.1072  0.0363
 9133W        W25317  11.353  14.263   4.417  0.0923 -0.3512 -0.1392
 9134W        W25318   3.281  12.203  13.165 -0.2767  0.0456 -0.0436
 9135W        W25319  17.746  10.382  13.328 -0.0732  0.0178 -0.5070
 9136W        W25320   7.005   7.937  14.529 -0.0494  0.0931  0.0382
 9137W        W25321   9.136   6.762   4.879 -0.0318  0.1669  0.2589
 9138W        W25322  17.709   7.492  12.833 -0.1509 -0.3002 -0.0257
 9139W        W25323  11.420   2.665   3.680 -0.1545 -0.1898 -0.0348
 9140W        W25324   5.060   1.535   2.753 -0.1860 -0.1085  0.1002
 9141W        W25325  13.994   7.635   5.338 -0.0259  0.1968  0.0579
 9142W        W25326   1.770   7.316   3.437  0.1665  0.0292  0.1406
 9143W        W25327   9.823  11.266  13.127  0.1919 -0.1348  0.3506
 9144W        W25328  13.861  15.089   4.744 -0.0087 -0.0905  0.0876
 9145W        W25329   1.353   1.475   1.255 -0.1179 -0.0480 -0.2989
 9146W        W25330   7.281  10.515   2.413 -0.6166 -0.0707  0.1209
 9147W        W25331  18.502  14.692   0.900 -0.1114 -0.0743 -0.0401
 9148W        W25332  17.267  15.840   4.262 -0.2638 -0.0522 -0.0108
 9149W        W25333   0.274   7.288  13.445 -0.2041  0.0764  0.2556
 9150W        W25334  13.740  17.812   3.492  0.1031 -0.2533  0.2321
 9151W        W25335  10.798  14.581   4.205  0.0091 -0.3416 -0.2328
 9152W        W25336  16.115  17.335  14.543 -0.3409 -0.1580 -0.0635
 9153W        W25337   1.053   2.886   4.482 -0.0302 -0.1409 -0.0391
 9154W        W25338   0.843   9.921   3.090  0.1063 -0.0380 -0.1562
 9155W        W25339   4.307   9.083  15.257  0.4469 -0.1736  0.1103
 9156W        W25340   2.655   6.947  12.360 -0.0939 -0.1105  0.1965
 9157W        W25341  15.526  17.611  12.779  0.3351  0.1188  0.1104
 9158W        W25342  14.735   7.530  13.982 -0.0603 -0.1671 -0.1892
 9159W        W25343   9.865   6.776   1.665 -0.0251  0.1804  0.1312
 9160W        W25344  11.480  17.735  11.439 -0.1040 -0.0864  0.0468
 9161W        W25345   3.830   6.451  11.924 -0.2485  0.0034 -0.2737
 9162W        W25346  17.607  15.006   0.895 -0.0154 -0.4421 -0.2778
 9163W        W25347  14.386   6.157   4.618 -0.1189  0.0475  0.0288
 9164W        W25348   5.721   5.458   4.076  0.1533 -0.2238  0.0117
 9165W        W25349  11.077   5.278   4.746  0.0940 -0.3028 -0.2349
 9166W        W25350  13.662  15.828  15.454 -0.2907 -0.1777  0.2368
 9167W        W25351  11.080  18.787  15.437  0.1483  0.2391  0.3461
 9168W        W25352   3.633   8.663  11.497  0.1187  0.0964  0.1728
 9169W        W25353  18.810   1.755  10.949 -0.1085 -0.1391  0.3800
 9170W        W25354  11.570  18.447   3.471  0.1051  0.0336 -0.1213
 9171W        W25355  16.053  12.474  15.366  0.4239 -0.0875  0.1275
 9172W        W25356   0.067  11.043  14.933  0.0639  0.2770 -0.1733
 9173W        W25357  17.557   1.710  12.041  0.0721 -0.0027 -0.1994
 9174W        W25358   3.826   5.585  10.679  0.1688 -0.0232  0.1195
 9175W        W25359  13.929  13.427  14.811  0.2694 -0.0091 -0.0409
 9176W        W25360   3.650   4.174  10.374  0.1295  0.1018 -0.0848
 9177W        W25361   2.158   2.272   3.996 -0.1687 -0.2121 -0.1111
 9178W        W25362  12.706   1.636   3.108 -0.0530 -0.0431  0.1525
 9179W        W25363   6.876   9.930  13.811  0.1997 -0.2231 -0.0675
 9180W        W25364  16.067  12.847   2.531  0.0560 -0.0406 -0.2811
 9181W        W25365  13.096   3.365  12.833  0.0124 -0.1754  0.3472
 9182W        W25366   4.275   4.085   0.406  0.0657 -0.0568  0.0454
 9183W        W25367  11.800  13.235   4.436  0.2861  0.1939 -0.1027
 9184W        W25368  13.018  12.883   3.623  0.3169  0.1506  0.2187
 9185W        W25369  12.009  15.302   2.706 -0.0580 -0.0272 -0.0084
 9186W        W25370  16.442  13.675   5.104  0.2251 -0.2568 -0.0406
 9187W        W25371   7.911  14.763  15.223  0.1210 -0.0234 -0.1731
 9188W        W25372   2.399   9.922  11.933 -0.1416  0.0347  0.1647
 9189W        W25373   0.628   7.074  10.693  0.2597  0.0789 -0.0149
 9190W        W25374   4.735  10.758   0.032  0.5108  0.1242  0.0175
 9191W        W25375  16.996  16.116   2.267 -0.1563  0.0534  0.1597
 9192W        W25376   3.210  10.342   0.000 -0.1837  0.1497 -0.0981
 9193W        W25377   3.800   0.505  12.724  0.1921  0.1117  0.2143
 9194W        W25378  10.392  17.179  12.621 -0.1061 -0.1342  0.4877
 9195W        W25379  11.644  15.792  12.886  0.1764 -0.0156 -0.0536
 9196W        W25380  10.218  10.544   3.261 -0.1384  0.2647 -0.2214
 9197W        W25381  13.110  10.501   0.016 -0.1603  0.0552  0.2311
 9198W        W25382  15.999  17.392  15.430  0.0227  0.1392 -0.0771
 9199W        W25383  11.837   6.823  15.432  0.1851  0.0350 -0.1115
 9200W        W25384   5.095  10.459  11.065  0.2110  0.0984  0.1268
 9201W        W25385   9.781   6.569   3.988  0.2740  0.0968  0.0307
 9202W        W25386   4.104  17.682  14.432 -0.0029 -0.0518 -0.0922
 9203W        W25387   2.234  12.871  15.456  0.1219  0.1371  0.2672
 9204W        W25388  17.553  11.300   4.714  0.0589  0.1870  0.1156
 9205W        W25389   5.736   4.222   3.707 -0.0881  0.0281  0.1396
 9206W        W25390   8.213   5.840  11.040 -0.0418  0.0940  0.1092
 9207W        W25391   8.798   0.921   4.368  0.0700  0.1296 -0.3238
 9208W        W25392  10.660   5.773   4.704 -0.1729 -0.0968  0.2319
 9209W        W25393   3.302  10.685   1.340  0.0855  0.2057 -0.1738
 9210W        W25394   2.365  11.157  13.668  0.2559 -0.1795 -0.2464
 9211W        W25395  13.145   2.092   4.144  0.0358 -0.0175 -0.1069
 9212W        W25396   9.734  15.282   0.160 -0.0461 -0.0729 -0.2213
 9213W        W25397   8.583  16.074  12.090  0.2174  0.3583  0.0041
 9214W        W25398  10.938  16.942   0.512 -0.0649  0.2050 -0.0495
 9215W        W25399   6.188  13.038   0.607 -0.0219  0.0108  0.5238
 9216W        W25400  15.972  16.945   5.254  0.1767  0.1956  0.2855
 9217W        W25401   2.430  12.026   4.589 -0.1446  0.1843  0.1721
 9218W        W25402  18.502  11.160  14.148  0.0052 -0.3500  0.0330
 9219W        W25403  14.524   2.370  12.149 -0.0275 -0.0094 -0.1840
 9220W        W25404  15.546  16.649  11.139  0.1417 -0.0696  0.2929
 9221W        W25405  14.504   8.320   1.968 -0.2625 -0.0259  0.1855
 9222W        W25406   9.810  14.073  11.050 -0.1467 -0.3321  0.1756
 9223W        W25407  12.302  18.083  12.004 -0.6683  0.1613  0.0490
 9224W        W25408  14.118   4.876   0.909  0.2945 -0.1779 -0.2189
 9225W        W25409   7.344   3.394   0.279  0.0985 -0.1236 -0.2177
 9226W        W25410  12.221   5.443  11.359  0.1568  0.1474 -0.1062
 9227W        W25411  17.283  18.601   5.608  0.1303 -0.2511 -0.1478
 9228W        W25412  13.183   4.959  11.218 -0.2586  0.3039 -0.0221
 9229W        W25413   4.546  15.470  12.181 -0.2158 -0.0441  0.2279
 9230W        W25414  14.539   1.803  12.115  0.1938  0.0047 -0.1588
 9231W        W25415   2.161   9.447  10.812  0.0489 -0.0746  0.0120
 9232W        W25416  16.691  16.790   5.109  0.1142  0.3213 -0.1136
 9233W        W25417  17.252   8.965   1.891 -0.1213  0.1597  0.1060
 9234W        W25418   7.201   6.495   3.018  0.0000  0.1757  0.3189
 9235W        W25419   9.778   8.685  13.450 -0.1954  0.0347  0.2702
 9236W        W25420   5.901   4.455   4.261  0.3284 -0.1222 -0.3024
 9237W        W25421   9.336  18.352  11.944  0.2031  0.0497  0.1314
 9238W        W25422  12.068  12.391   4.165 -0.1829 -0.2657  0.2346
 9239W        W25423  14.497  12.008  13.464  0.0192  0.1150  0.2523
 9240W        W25424   0.398  16.898   6.117 -0.4771 -0.1517 -0.0972
 9241W        W25425   6.588   1.996   0.867  0.3051  0.0979  0.0802
 9242W        W25426  12.348   4.754   3.417  0.0535 -0.1102  0.3253
 9243W        W25427  14.348  17.515  11.785  0.1968 -0.3915 -0.1825
 9244W        W25428   7.938   9.571  13.837  0.1148 -0.1574  0.1087
 9245W        W25429  10.768  15.366  13.854  0.1498 -0.2132 -0.3939
 9246W        W25430  16.624   1.430  13.562 -0.0592  0.0137 -0.1138
 9247W        W25431   5.308   7.879   2.053 -0.1986 -0.0224  0.2283
 9248W        W25432  13.942  15.410  13.059 -0.1621  0.0453  0.1660
 9249W        W25433   2.835  15.598  13.232  0.1820 -0.0524  0.1300
 9250W        W25434  15.386   1.079   0.931 -0.2459 -0.0777 -0.1754
 9251W        W25435  15.504   7.121  13.355  0.6734  0.0058  0.4876
 9252W        W25436   7.941   7.666  13.573  0.2877  0.1198 -0.1097
 9253W        W25437  12.926   2.329  15.210  0.1442 -0.1760  0.1027
 9254W        W25438   0.304  10.779   1.273 -0.1542  0.2140 -0.0023
 9255W        W25439   2.833   2.655   4.169  0.0220  0.2789 -0.3566
 9256W        W25440   8.914  12.209  12.257  0.2043 -0.4049 -0.2597
 9257W        W25441   0.885   2.954  14.161  0.2053 -0.1232  0.4718
 9258W        W25442   3.298   8.999   1.675 -0.0054  0.1452 -0.0541
 9259W        W25443   2.514   3.828   3.752 -0.2184  0.2282  0.1789
 9260W        W25444   8.796   2.033  13.072 -0.1431 -0.2801 -0.3453
 9261W        W25445  14.277   6.097   0.186  0.0338 -0.0583  0.0660
 9262W        W25446  12.524   3.402   4.902 -0.1124 -0.5579  0.2461
 9263W        W25447   2.350  14.241   0.078 -0.5055  0.2751  0.0930
 9264W        W25448  10.376   6.648   0.769  0.2221  0.0273  0.4330
 9265W        W25449  12.225   6.140   0.077 -0.4387 -0.1145  0.2400
 9266W        W25450   8.691  15.750   5.272  0.2753  0.1931 -0.4485
 9267W        W25451  18.476   6.369   4.693  0.0751  0.0223 -0.2102
 9268W        W25452   2.688   5.701   4.017  0.1845  0.2052  0.1973
 9269W        W25453  10.375   4.737   0.373  0.5723  0.0208  0.0516
 9270W        W25454  13.007   8.518   1.079 -0.1841 -0.1536  0.1576
 9271W        W25455   3.997   4.125  12.199  0.2060  0.3537 -0.0320
 9272W        W25456   1.353  17.924  14.185 -0.0781  0.4106  0.3334
 9273W        W25457   4.349   5.290   5.639  0.2811 -0.1469 -0.1714
 9274W        W25458   7.945   0.161   0.987  0.0993  0.1795 -0.3449
 9275W        W25459   1.094  14.933  14.831 -0.0661  0.3264  0.1647
 9276W        W25460  12.104   1.017   1.860  0.1141 -0.2722 -0.0528
 9277W        W25461   1.992  12.728   2.645  0.0443  0.5946 -0.2836
 9278W        W25462   0.354   8.265  11.671  0.0508 -0.1180 -0.2871
 9279W        W25463   4.476   4.206  11.016  0.0146 -0.0443 -0.2499
 9280W        W25464  15.643   5.560  13.643 -0.1524 -0.0222  0.0440
 9281W        W25465   1.672   5.695  15.005 -0.3456 -0.1811  0.0597
 9282W        W25466   8.323   0.152  11.580  0.0052 -0.0828 -0.1282
 9283W        W25467   9.398  16.050  11.313  0.0630 -0.0204 -0.0899
 9284W        W25468  11.734   1.155   1.518 -0.0890  0.2009  0.1094
 9285W        W25469  14.227   3.277   3.868 -0.2150 -0.2074 -0.1141
 9286W        W25470   2.909  16.579   2.637  0.0319  0.1570 -0.3020
 9287W        W25471  11.739   6.214   3.734  0.0346 -0.1082  0.3236
 9288W        W25472  13.176   1.628  15.010 -0.1959  0.1571 -0.0469
 9289W        W25473  13.567  17.645  15.059 -0.0457  0.3414 -0.0644
 9290W        W25474  13.768  16.054  11.062 -0.0329  0.0678  0.1043
 9291W        W25475   9.692  18.031   0.970  0.0477  0.1381  0.0636
 9292W        W25476   1.445  18.205  15.271 -0.0158 -0.1274 -0.2188
 9293W        W25477   7.517   1.589   4.752  0.2617  0.2489  0.1532
 9294W        W25478  12.128   4.549  13.320  0.0837 -0.0594  0.3324
 9295W        W25479  16.304   6.869  12.230 -0.0236 -0.3832  0.1217
 9296W        W25480   3.996   3.925  14.560 -0.0705 -0.0616  0.1935
 9297W        W25481  14.664   2.979  12.641 -0.0719 -0.0283  0.3267
 9298W        W25482   8.523   4.308   0.066 -0.1174 -0.3319 -0.3039
 9299W        W25483   2.685  17.827  14.335  0.0896  0.0238 -0.2056
 9300W        W25484   9.841  17.014   3.439 -0.0131 -0.2737  0.1539
 9301W        W25485   0.490   6.087   1.545  0.0144 -0.1885 -0.0870
 9302W        W25486   2.755  10.114   3.157  0.2242 -0.4561 -0.2064
 9303W        W25487   5.091   5.033   0.858 -0.0148 -0.1433 -0.1946
 9304W        W25488   4.427  13.201   1.021  0.2201 -0.0401 -0.1791
 9305W        W25489   2.043   2.142   3.418 -0.0776 -0.1762  0.2071
 9306W        W25490  18.362  14.876  10.486 -0.1597 -0.1457  0.2235
 9307W        W25491   2.020  16.898   1.827  0.1720  0.0245  0.0686
 9308W        W25492  13.922   8.192  12.344 -0.0893 -0.0681  0.0531
 9309W        W25493  11.259  13.187  11.704 -0.3623  0.2740 -0.1032
 9310W        W25494   6.366  10.012  11.140  0.2502 -0.1139  0.2298
 9311W        W25495  13.596  14.486  11.074  0.0320 -0.3414 -0.0366
 9312W        W25496   3.772  15.107  12.337 -0.3164  0.0051 -0.1100
 9313W        W25497   7.717  13.373   5.137  0.2807  0.0692 -0.2004
 9314W        W25498   8.732  14.429  14.601  0.1895  0.1837  0.2310
 9315W        W25499  12.008  16.061   0.566 -0.0700 -0.0207  0.1243
 9316W        W25500  16.873   0.624  13.138 -0.0220 -0.2598  0.3827
 9317W        W25501   7.218   7.928   3.054  0.3161 -0.1166  0.2211
 9318W        W25502  15.359   4.754  11.090 -0.3183 -0.2239  0.0077
 9319W        W25503  16.245   2.302   0.344  0.1646  0.1469  0.1841
 9320W        W25504  11.526  14.407   0.973  0.2519  0.0165 -0.1230
 9321W        W25505  15.398  13.873   4.808 -0.3987  0.1581  0.1543
 9322W        W25506  13.573   7.027   1.515 -0.0695 -0.0544 -0.1692
 9323W        W25507   8.687   4.066  13.019 -0.1266  0.0905  0.1675
 9324W        W25508  18.770   4.506  14.379  0.0647  0.1445  0.1519
 9325W        W25509   4.815  17.241   4.493 -0.1421  0.1835  0.0584
 9326W        W25510   8.031  14.373   5.481  0.2496 -0.0869 -0.1418
 9327W        W25511  17.973   7.950  10.960  0.1499 -0.1989  0.3379
 9328W        W25512  16.683   4.281  12.874  0.0653 -0.2367 -0.1638
 9329W        W25513  17.503   7.721  15.124 -0.0700  0.1627 -0.2341
 9330W        W25514  12.709   2.109  13.344 -0.2022  0.0103 -0.1174
 9331W        W25515   0.121  11.286   0.880  0.1130 -0.0369 -0.0454
 9332W        W25516  10.575  11.083  15.089 -0.1826 -0.1123 -0.1796
 9333W        W25517   6.405  12.691   1.949 -0.0195  0.1144 -0.0205
 9334W        W25518  15.217  10.481   1.677  0.0479 -0.0738 -0.0978
 9335W        W25519  17.527  10.088  12.346  0.2619  0.1570  0.0648
 9336W        W25520  17.862   3.794   3.302 -0.4509  0.0245 -0.0267
 9337W        W25521  13.796  17.896   0.889  0.0203  0.4012  0.1681
 9338W        W25522   6.465   9.594  15.293 -0.1255  0.1588  0.1114
 9339W        W25523   8.585  16.151  12.606  0.1058  0.0806 -0.1208
 9340W        W25524  13.167  10.360  12.605 -0.0061  0.1599  0.0181
 9341W        W25525   8.321  14.909  10.996  0.2290 -0.0520 -0.3039
 9342W        W25526  13.044  13.786  15.152 -0.1122  0.1207  0.2420
 9343W        W25527   9.736  18.544   3.871 -0.1898 -0.0383  0.1675
 9344W        W25528   3.620  18.429   5.104 -0.0013 -0.1043  0.0618
 9345W        W25529  16.756   1.518  12.304  0.1372 -0.2177 -0.2343
 9346W        W25530   9.630   9.748  12.523 -0.1287  0.0140  0.0682
 9347W        W25531   0.674   4.862   0.491 -0.2970 -0.1095  0.1606
 9348W        W25532   9.291   1.269   2.045 -0.0296 -0.0423  0.0313
 9349W        W25533   3.936  13.727  11.570  0.0165 -0.1079  0.1596
 9350W        W25534  12.622  11.177  13.525 -0.0844 -0.0630  0.0897
 9351W        W25535  12.608  13.585  15.071 -0.0676 -0.0906  0.3609
 9352W        W25536   7.295   5.849  11.614  0.0460  0.3531 -0.2445
 9353W        W25537   6.455   1.583   4.000 -0.0233 -0.1200  0.1311
 9354W        W25538   4.515  14.558   0.301 -0.0450 -0.3251 -0.2436
 9355W        W25539   6.691   9.129  11.742  0.1791 -0.0129 -0.2138
 9356W        W25540  17.721   8.248   9.617 -0.1442  0.1229  0.0367
 9357W        W25541   3.736   6.188   2.957 -0.0262  0.1978 -0.2125
 9358W        W25542  10.893  17.170  14.254  0.0990  0.1625  0.0312
 9359W        W25543   7.016  13.891  15.338  0.2172 -0.4415  0.1023
 9360W        W25544  17.181  17.902   4.798  0.2111  0.0934  0.1264
 9361W        W25545  14.681  17.729   2.612 -0.0192 -0.1162  0.0278
 9362W        W25546  17.481   7.774  10.465  0.1195  0.4700 -0.0386
 9363W        W25547   3.240   2.250  13.530  0.0792  0.1206  0.1990
 9364W        W25548   9.869  15.394   2.301  0.0812 -0.0901 -0.0028
 9365W        W25549  14.742  15.866  13.966 -0.0019 -0.0730  0.0497
 9366W        W25550   8.771   4.800  15.529  0.0859 -0.0013 -0.3270
 9367W        W25551   3.282  16.601   0.617  0.2936 -0.0383 -0.0777
 9368W        W25552   3.148   2.039   2.661  0.1569 -0.0742 -0.3527
 9369W        W25553  14.677  12.918   1.970  0.0071 -0.1699 -0.1515
 9370W        W25554  15.259   8.172   4.904 -0.1638  0.2809 -0.0021
 9371W        W25555   6.309   4.018  13.216 -0.0567 -0.1079 -0.2149
 9372W        W25556   5.588   5.011  12.260 -0.1477 -0.1928 -0.3519
 9373W        W25557  17.651  17.336  13.272 -0.0266 -0.1351  0.0880
 9374W        W25558  12.048  17.583  13.463  0.0723 -0.1534  0.0241
 9375W        W25559  13.137   7.489  13.957 -0.0223  0.0238  0.0444
 9376W        W25560  12.323   7.888   2.407 -0.0012 -0.0143  0.1417
 9377W        W25561   1.565  14.216   0.922  0.2926 -0.4049 -0.2107
 9378W        W25562  16.761   9.790   0.980  0.1454 -0.0397 -0.4766
 9379W        W25563  13.708  16.714  14.380 -0.1435  0.0045 -0.1129
 9380W        W25564  12.520   7.459   5.928 -0.0373  0.2136  0.4709
 9381W        W25565   6.941  15.773   4.467 -0.0031 -0.0618 -0.2825
 9382W        W25566   0.935  12.357   2.472 -0.1367  0.1613 -0.0159
 9383W        W25567   4.398  11.997  12.357  0.2004 -0.1237 -0.0157
 9384W        W25568   6.162  16.915   1.851 -0.1303 -0.0116 -0.2220
 9385W        W25569   2.340  16.918  13.196  0.0278  0.2089 -0.1732
 9386W        W25570   3.713   7.047   4.720 -0.1090  0.1758  0.1128
 9387W        W25571   1.109   3.022   2.296 -0.4125  0.0157 -0.0406
 9388W        W25572   5.070   3.177   4.692 -0.0490 -0.3276 -0.1273
 9389W        W25573   9.303   0.547  11.033 -0.2246  0.0082 -0.3549
 9390W        W25574  12.775  11.926  14.752 -0.1416 -0.0031  0.2073
 9391W        W25575   9.306   8.362   1.230  0.1623 -0.0650 -0.1397
 9392W        W25576   7.317   3.858  11.301 -0.2642 -0.1871 -0.1709
 9393W        W25577   3.006   7.622   4.944 -0.1660 -0.0693 -0.1870
 9394W        W25578   8.187  11.028  12.098 -0.1142  0.1005 -0.2705
 9395W        W25579   0.001   5.902   3.952  0.5353  0.1981  0.0188
 9396W        W25580   2.966   2.688  13.533 -0.0064 -0.1697 -0.0895
 9397W        W25581   9.543  16.255   5.134  0.0305  0.0085 -0.1722
 9398W        W25582  11.369  18.161   0.914  0.1280  0.2399  0.0025
 9399W        W25583   2.997  12.156   3.085  0.1046  0.1265  0.2984
 9400W        W25584   4.498   1.587  13.572  0.1287 -0.0024  0.2924
 9401W        W25585   0.511  12.781   3.993  0.1320  0.0707 -0.4908
 9402W        W25586   0.630  18.419   9.948 -0.1733  0.1546 -0.0209
 9403W        W25587  14.241  12.606   0.306  0.0620  0.1011 -0.1638
 9404W        W25588   6.082  14.423  11.337  0.0469  0.0854  0.0438
 9405W        W25589   3.077   0.891  14.909  0.0091 -0.3852 -0.0299
 9406W        W25590   4.204  17.942   0.961 -0.1998 -0.2119  0.1407
 9407W        W25591  13.640   3.945  14.107 -0.0641  0.2233  0.0094
 9408W        W25592   4.452   5.319  14.547 -0.2225 -0.1454  0.1316
 9409W        W25593  10.894   5.728  15.080  0.0555 -0.0929 -0.0341
 9410W        W25594   1.697  15.833   3.777 -0.1892 -0.0438 -0.1804
 9411W        W25595   3.657  14.717   1.371 -0.0408 -0.0964 -0.1386
 9412W        W25596   8.631   9.547   3.495 -0.2339  0.1220 -0.0779
 9413W        W25597   5.768   8.024   4.974 -0.4704  0.1945  0.0445
 9414W        W25598  15.230  11.122   2.746 -0.2169  0.0025 -0.1683
 9415W        W25599   3.263  12.423   0.657  0.3720 -0.0306 -0.1774
 9416W        W25600  12.135   9.545   2.314  0.3151  0.2049  0.2689
 9417W        W25601   1.107   9.603   0.027  0.0811 -0.1749  0.0229
 9418W        W25602   5.937   5.616   5.254  0.3212  0.1198  0.2518
 9419W        W25603  13.455   0.103  14.344  0.0537 -0.0312  0.0786
 9420W        W25604   0.340   9.264  13.053 -0.0673  0.3892 -0.0775
 9421W        W25605   4.821  18.268  14.708  0.0012 -0.0260  0.0034
 9422W        W25606  15.563  13.313   3.163 -0.4687  0.1807  0.0847
 9423W        W25607   6.228   4.054  14.014  0.2235 -0.3642  0.0821
 9424W        W25608   3.004   1.943   2.190  0.0923 -0.2691  0.1726
 9425W        W25609  17.462  16.816   0.137 -0.2377  0.1558  0.0451
 9426W        W25610   7.716   5.588  11.332 -0.1777  0.1601  0.0693
 9427W        W25611   7.714  12.413  13.775 -0.3476  0.3061  0.0617
 9428W        W25612  16.008  10.068  11.404 -0.2214  0.2132  0.0498
 9429W        W25613   7.955  13.451   0.298 -0.1566  0.1167 -0.0722
 9430W        W25614   0.508   4.477   3.544  0.2424 -0.4130  0.0222
 9431W        W25615   0.539  11.096  14.769 -0.3351  0.2108  0.0921
 9432W        W25616   9.086   7.323  15.364  0.2335 -0.1147 -0.0293
 9433W        W25617  18.726  18.696   2.788 -0.3852 -0.2868  0.1913
 9434W        W25618   4.590  14.461  13.333 -0.1398  0.0806 -0.1259
 9435W        W25619  12.160  13.990  14.251 -0.3112 -0.1298 -0.1268
 9436W        W25620  12.602   4.197   1.055 -0.2748 -0.1836  0.1508
 9437W        W25621   4.008   7.881   4.682  0.0865 -0.1997  0.3930
 9438W        W25622   6.411   4.110  14.453 -0.1368 -0.0595  0.0090
 9439W        W25623  16.480   3.209  12.062 -0.3469  0.1744 -0.2646
 9440W        W25624   7.231  13.155   5.215 -0.1487 -0.0349  0.2317
 9441W        W25625   4.755   9.825  11.761 -0.2203 -0.0269  0.2439
 9442W        W25626  15.952   6.659   3.240 -0.1456  0.0229  0.0054
 9443W        W25627   3.679  13.740  14.448  0.1528 -0.1181  0.2048
 9444W        W25628  15.073   2.119   3.185  0.0405 -0.0836  0.2016
 9445W        W25629  10.661  10.371   1.044 -0.0763 -0.3049  0.1009
 9446W        W25630   1.993  13.894   0.240  0.0819 -0.0027 -0.0582
 9447W        W25631  18.822   7.678   3.801  0.1161 -0.2302 -0.3570
 9448W        W25632   8.301  12.939  14.541 -0.0396 -0.0492  0.1403
 9449W        W25633   3.793   1.504  12.941 -0.2879  0.2527 -0.1286
 9450W        W25634   2.344  14.252  15.098  0.1665 -0.0399 -0.0278
 9451W        W25635  11.756   8.025  13.261  0.0707 -0.4062  0.1690
 9452W        W25636  15.834  18.565   1.685 -0.1006  0.0255  0.0549
 9453W        W25637   1.662  13.305   0.315 -0.0577 -0.0295  0.3541
 9454W        W25638   2.754   6.799   0.228  0.0981  0.0400  0.1219
 9455W        W25639   1.057  15.994   1.988 -0.4292 -0.3528 -0.0314
 9456W        W25640   5.280   2.697   4.487  0.2935 -0.0436 -0.1150
 9457W        W25641   5.794   0.454   1.169 -0.0334 -0.0402  0.1183
 9458W        W25642  18.353   2.827  15.200 -0.0935 -0.0624 -0.2941
 9459W        W25643   5.323  12.204   5.808 -0.0648  0.3380 -0.0866
 9460W        W25644   5.382   7.825  11.314 -0.2277 -0.1806 -0.1339
 9461W        W25645  10.491  18.386   1.121  0.0473  0.1723  0.2619
 9462W        W25646  11.968   0.579   2.066  0.1217 -0.0050 -0.0059
 9463W        W25647   8.887   4.969   0.972 -0.2206 -0.0880 -0.1795
 9464W        W25648   7.934   4.078   0.826  0.0070 -0.1707  0.1260
 9465W        W25649   8.075  10.461   1.501 -0.3041 -0.0017  0.0059
 9466W        W25650  12.826  16.227   5.535  0.0288 -0.1809 -0.2489
 9467W        W25651   0.825   2.848  10.397  0.5018  0.1795  0.0665
 9468W        W25652   9.637   3.725   5.776  0.1765 -0.0926  0.2670
 9469W        W25653   4.005   3.559   3.449 -0.0219  0.0181 -0.2234
 9470W        W25654   1.005  16.738  10.554 -0.1059 -0.0230 -0.0371
 9471W        W25655   0.067   4.448   2.761  0.1260  0.0540  0.1094
 9472W        W25656   0.057   7.779   3.194 -0.3976  0.3007  0.2303
 9473W        W25657   1.575   6.271   4.947  0.1002  0.1933 -0.1837
 9474W        W25658   3.870   7.788   5.451  0.0678  0.1072 -0.0351
 9475W        W25659  11.475   6.369  10.744 -0.2163 -0.1447 -0.1684
 9476W        W25660  16.730   3.780  12.817  0.0142 -0.2508  0.1761
 9477W        W25661   8.780   3.807  11.799  0.0451 -0.1308  0.0163
 9478W        W25662  13.430  11.007   0.548 -0.2217 -0.1486  0.0026
 9479W        W25663   7.850  16.644   1.248 -0.0114  0.0092  0.2741
 9480W        W25664  18.120  14.751  14.171 -0.0566  0.0161  0.2872
 9481W        W25665  14.988  18.266   4.573  0.1132 -0.3518 -0.1067
 9482W        W25666  11.130   9.800   5.770  0.0838  0.1823  0.0100
 9483W        W25667   8.398   3.916  11.521  0.1452 -0.1612 -0.0382
 9484W        W25668   2.171   0.097   5.004  0.2240 -0.0939  0.0556
 9485W        W25669   2.009   7.777   1.395 -0.1758 -0.0315  0.2269
 9486W        W25670  11.359  16.345  14.621 -0.1292 -0.1853 -0.1986
 9487W        W25671  15.905  17.435  13.066  0.0691 -0.1998 -0.0680
 9488W        W25672  11.632  14.616  10.781 -0.0013 -0.2471  0.0777
 9489W        W25673  15.662  12.553  10.904 -0.2588  0.1111  0.1823
 9490W        W25674  10.955  17.832  11.465 -0.3108  0.0357 -0.4172
 9491W        W25675  16.921  11.288  12.099  0.1429 -0.1329  0.0855
 9492W        W25676   1.450   1.410  11.085 -0.4565  0.0382 -0.1945
 9493W        W25677   1.673   7.696  11.030  0.2816  0.1002  0.0612
 9494W        W25678   2.583   0.757  13.260 -0.1369 -0.0096 -0.1322
 9495W        W25679   6.809   6.608   2.642 -0.0894  0.0268 -0.0813
 9496W        W25680  18.372   4.027   1.569  0.3549 -0.0725 -0.3770
 9497W        W25681   7.874   0.645   5.850  0.0244  0.0044 -0.0510
 9498W        W25682  13.444  14.779  12.648  0.0807 -0.1882 -0.2864
 9499W        W25683   7.864  13.527   4.275 -0.2190  0.2481  0.2959
 9500W        W25684   1.443  13.758   1.115  0.1688  0.0518 -0.3099
 9501W        W25685  12.209   0.035  13.466  0.0582  0.1527  0.1695
 9502W        W25686   5.930   4.079   2.125 -0.2177 -0.1178  0.1521
 9503W        W25687  10.943  11.533  15.110  0.3257  0.2141  0.2524
 9504W        W25688   4.797   3.135   1.879  0.1316 -0.0259 -0.0315
 9505W        W25689   7.105  16.200   3.612 -0.0571 -0.2737 -0.1335
 9506W        W25690   3.490  17.416  10.892 -0.0477 -0.1447 -0.0825
 9507W        W25691  14.219  15.983  14.818 -0.0971 -0.2350  0.2406
 9508W        W25692   8.534   1.391   3.956 -0.0501  0.0699  0.1740
 9509W        W25693   6.940  11.060   2.374  0.2141  0.0330 -0.2743
 9510W        W25694  18.711   8.684  12.309 -0.2365  0.0104  0.0003
 9511W        W25695   1.883  17.583  12.866 -0.1069 -0.1226  0.1302
 9512W        W25696   4.611  13.757  13.288  0.1782  0.0121 -0.4331
 9513W        W25697  12.058  14.100  11.983  0.2265 -0.4707  0.1876
 9514W        W25698   1.530   3.733  11.816  0.0330 -0.0894 -0.0593
 9515W        W25699   5.910   4.024  12.421 -0.0158 -0.1695  0.2612
 9516W        W25700  16.662   1.681   3.469 -0.4808  0.0411  0.0942
 9517W        W25701   9.613   2.056   3.257  0.2725 -0.0027  0.2458
 9518W        W25702   7.026   5.017   9.796  0.1975  0.0373  0.1461
 9519W        W25703  11.247  12.081  13.510  0.2787  0.1510 -0.0387
 9520W        W25704   4.089  10.956  14.790  0.1421 -0.2210  0.3681
 9521W        W25705   3.590   5.850   3.301  0.2562 -0.1928 -0.2918
 9522W        W25706   4.576   6.038  11.696 -0.0461  0.0053  0.3026
 9523W        W25707  13.481   7.191  10.659 -0.0795 -0.1632  0.0565
 9524W        W25708   0.227   6.357  14.390 -0.1214 -0.1494 -0.4483
 9525W        W25709   9.269   0.772   4.683 -0.1699  0.2889  0.4009
 9526W        W25710   8.510   1.364   0.449 -0.1443  0.2359 -0.0559
 9527W        W25711   3.222   4.634   4.036  0.1039  0.0398  0.1848
 9528W        W25712   0.558  10.706  12.878 -0.1809 -0.0572  0.1346
 9529W        W25713  17.299  16.571  12.398  0.1517  0.1478  0.0034
 9530W        W25714  18.024  10.589   0.701 -0.0270 -0.4547  0.1060
 9531W        W25715  11.986  15.554   4.155 -0.1080 -0.4014  0.2298
 9532W        W25716  10.230   1.377  13.804  0.2131  0.1595  0.1971
 9533W        W25717   5.507  14.684   3.631  0.5333  0.4258  0.1079
 9534W        W25718  11.105   7.545  14.580 -0.4011  0.1005 -0.2447
 9535W        W25719  12.899  11.403  15.517  0.0622 -0.0973 -0.0191
 9536W        W25720  10.200  15.304   0.275 -0.1175 -0.3703 -0.0635
 9537W        W25721   4.097   0.998   1.144  0.1942  0.1013 -0.2950
 9538W        W25722  10.658   2.124  14.297  0.0848  0.1593  0.3267
 9539W        W25723   6.655   7.861   0.046  0.2657  0.0198 -0.3438
 9540W        W25724  12.304  17.645   1.369  0.4070  0.0320 -0.0792
 9541W        W25725  17.714  11.835  13.175  0.2535  0.0394 -0.0209
 9542W        W25726   7.607   0.937   1.633 -0.2743 -0.1368  0.1054
 9543W        W25727  16.126   5.323   4.618  0.1804  0.1365 -0.0004
 9544W        W25728   9.288   1.169   0.112  0.4542 -0.2365  0.2424
 9545W        W25729   9.361   5.480   3.543 -0.1539  0.2163 -0.0558
 9546W        W25730  14.027   1.241   4.222 -0.2176  0.0676  0.1481
 9547W        W25731  14.863   5.385  14.872 -0.0481  0.1194  0.0167
 9548W        W25732  12.765   2.946  15.469 -0.0440 -0.1702 -0.0584
 9549W        W25733  16.907  10.517   0.478 -0.0857 -0.3154  0.0947
 9550W        W25734  15.022  10.813   1.278 -0.2711 -0.1044  0.0106
 9551W        W25735  18.450  15.197   1.030 -0.1432  0.2628 -0.0179
 9552W        W25736   0.177   2.964   1.933  0.1421 -0.0938 -0.2079
 9553W        W25737   3.161  11.541   4.327 -0.2064  0.1013 -0.0373
 9554W        W25738   5.310  16.063   2.656 -0.1331  0.0401 -0.2254
 9555W        W25739  12.507   3.488  13.135 -0.1685 -0.2002  0.1635
 9556W        W25740   2.137  13.492  12.435 -0.0247  0.0833 -0.0373
 9557W        W25741   2.998   9.371   3.358  0.1251  0.0999  0.0985
 9558W        W25742   2.632  11.090  10.892 -0.3501 -0.2124  0.0980
 9559W        W25743   9.484   8.279  13.389 -0.0427 -0.0525  0.3903
 9560W        W25744  15.315  17.029  11.371  0.0704 -0.1443 -0.2509
 9561W        W25745   2.048  10.357   0.052 -0.0112 -0.1455 -0.0465
 9562W        W25746   0.670  12.392  13.529  0.0624  0.1115 -0.0558
 9563W        W25747   4.101   3.629   4.926  0.4039 -0.4417 -0.1147
 9564W        W25748   4.313   4.468   1.910  0.1362 -0.2953  0.0006
 9565W        W25749  11.871   0.027  14.231 -0.1707 -0.1834  0.3137
 9566W        W25750  13.466   3.109   1.180 -0.1266 -0.1349 -0.0020
 9567W        W25751  10.146  10.863  14.247 -0.0126 -0.0104  0.0210
 9568W        W25752   3.523   1.244  12.048  0.0313 -0.1369  0.0316
 9569W        W25753   3.847   8.190  11.430 -0.1661 -0.2040  0.1867
 9570W        W25754  14.283  18.194   0.634  0.0990 -0.0108  0.0170
 9571W        W25755  11.471   5.993   1.280  0.0723 -0.1538 -0.0792
 9572W        W25756   9.092   0.149  10.115 -0.3736  0.3890  0.0600
 9573W        W25757  17.445   9.891  13.675 -0.0573  0.0308  0.1538
 9574W        W25758  17.678  14.499   4.220  0.0149 -0.1183 -0.2257
 9575W        W25759  14.791   9.668   1.808  0.0295  0.0960  0.2906
 9576W        W25760  18.621   1.599  11.704 -0.1371 -0.2461 -0.1139
 9577W        W25761  10.444  13.242   9.693 -0.1020  0.0044  0.2797
 9578W        W25762  10.221   1.508  12.863 -0.1491 -0.0616  0.2081
 9579W        W25763   1.853  11.967  12.755  0.0542 -0.0518 -0.1824
 9580W        W25764   7.959   5.269   0.283  0.0829 -0.1408  0.0242
 9581W        W25765   9.557   5.947   5.410  0.1142 -0.0751  0.0733
 9582W        W25766   2.156   2.191  11.543  0.4267  0.0196  0.2011
 9583W        W25767   3.884   6.692   3.005 -0.1958 -0.0996 -0.1898
 9584W        W25768   4.425  14.469   1.107  0.4015  0.2835  0.0601
 9585W        W25769  13.419  10.981   1.417 -0.1077 -0.1493 -0.0452
 9586W        W25770   0.421   5.092  13.160 -0.3050 -0.1095 -0.0201
 9587W        W25771   1.833  18.135  13.676 -0.0184 -0.2687 -0.1888
 9588W        W25772   3.985  18.005  12.697 -0.3839  0.2742  0.0893
 9589W        W25773   0.246   7.773   2.619 -0.2948 -0.1349  0.0359
 9590W        W25774  16.022  16.113   0.134  0.3973  0.0327 -0.2853
 9591W        W25775  16.329   2.904   3.759  0.0968  0.2410  0.1312
 9592W        W25776   5.560  14.096   1.613 -0.0519 -0.1354  0.1553
 9593W        W25777   0.247   9.915   5.675 -0.0609  0.1916  0.0138
 9594W        W25778  16.177   0.292   0.445 -0.2346  0.0745 -0.0603
 9595W        W25779   6.956   5.303   5.626 -0.1096 -0.0060 -0.1236
 9596W        W25780   6.010  13.890   1.431  0.0864  0.2722 -0.0488
 9597W        W25781   8.515  17.497   1.491 -0.2453  0.1191 -0.0783
 9598W        W25782   8.169  11.024   2.092  0.0159  0.2905 -0.1003
 9599W        W25783   0.581   4.661  11.808 -0.0821 -0.1360 -0.2553
 9600W        W25784   4.403   6.467   2.275  0.1068 -0.0106  0.2135
 9601W        W25785  14.469  10.934  13.162  0.2551 -0.0679  0.0879
 9602W        W25786  10.385  11.076  11.471 -0.0352 -0.1663  0.0883
 9603W        W25787  11.488   9.504  13.352  0.2654  0.1144 -0.1119
 9604W        W25788   1.800  13.257  10.615 -0.2573  0.0428 -0.3976
 9605W        W25789   6.261   6.068  13.195  0.4369 -0.3213  0.0857
 9606W        W25790   1.291   5.672   3.452  0.0442  0.1105  0.1618
 9607W        W25791  16.165   9.828  13.381  0.1999 -0.0643  0.3573
 9608W        W25792  16.054   6.804  12.704  0.0790  0.2307 -0.3277
 9609W        W25793  17.768   9.713  14.524 -0.3066  0.0507  0.0124
 9610W        W25794  17.523   9.675   2.108  0.1505 -0.1431 -0.2490
 9611W        W25795  16.513  18.639   2.887  0.1190  0.0208  0.2358
 9612W        W25796   5.507   2.817  15.181  0.4620  0.2174 -0.1528
 9613W        W25797  17.474  15.345   2.142  0.0876  0.0304 -0.1951
 9614W        W25798   2.804   4.175  14.623  0.3186  0.0120  0.2158
 9615W        W25799   1.135   8.404   3.662  0.0724  0.0397 -0.0343
 9616W        W25800  15.021   4.438  11.345 -0.3820 -0.0972  0.0959
 9617W        W25801  14.239   4.988   2.270 -0.1650  0.0057  0.0235
 9618W        W25802   6.723   6.853  15.015 -0.0495  0.0699 -0.0198
 9619W        W25803   2.763  15.481   5.000 -0.2598  0.0613 -0.3705
 9620W        W25804  10.393  10.739  14.661  0.1032 -0.1740  0.0885
 9621W        W25805  12.202  18.791  11.987  0.3495  0.4400 -0.1483
 9622W        W25806   7.660  10.647   4.422 -0.0508 -0.0490  0.0836
 9623W        W25807  14.682   3.707   2.562 -0.0618  0.2180  0.1982
 9624W        W25808  18.649   9.976  13.375  0.2807 -0.0979 -0.3927
 9625W        W25809  14.969   1.010   0.233  0.2822  0.1939  0.2273
 9626W        W25810   3.821  12.487   1.885 -0.1074  0.1717 -0.0549
 9627W        W25811   7.880  15.567   3.436  0.1401  0.0261  0.0301
 9628W        W25812   6.153   3.376  10.692  0.2794 -0.3642 -0.1175
 9629W        W25813   5.980   4.869  15.161 -0.0328 -0.3310  0.0193
 9630W        W25814  11.450  15.350  11.158 -0.2235 -0.0160 -0.0737
 9631W        W25815   1.058   0.206  11.217  0.1415 -0.1367  0.2665
 9632W        W25816  15.088  14.686  11.703 -0.0695 -0.1004  0.1272
 9633W        W25817  11.535   0.148  14.751  0.0801  0.1787  0.3681
 9634W        W25818  18.705   3.326   1.520  0.0512 -0.0677  0.1885
 9635W        W25819   0.688  11.562   9.975 -0.0179 -0.0088 -0.2737
 9636W        W25820  14.656  15.219   1.578 -0.0776 -0.1659  0.1375
 9637W        W25821  15.518  12.009  14.827 -0.2345  0.0699  0.2704
 9638W        W25822   4.057   0.016  14.683 -0.1110  0.0231 -0.1599
 9639W        W25823  15.864  10.210  10.577 -0.0997  0.0644 -0.1161
 9640W        W25824  15.364  11.030  13.513 -0.0757 -0.2026 -0.2436
 9641W        W25825  17.478   1.811   1.744  0.1506 -0.3227 -0.1291
 9642W        W25826   8.668  10.638   4.088 -0.3194  0.3552  0.3970
 9643W        W25827   7.252   8.789   4.356  0.3556  0.0530 -0.4746
 9644W        W25828   6.835  11.902   3.456  0.0482  0.1343 -0.0715
 9645W        W25829   7.195   1.074  12.402 -0.2630 -0.1321  0.0606
 9646W        W25830  10.530   2.611   0.282 -0.1786  0.0185 -0.1813
 9647W        W25831  12.419  10.527  14.768  0.2909  0.2690  0.0007
 9648W        W25832   0.101   0.215   3.104  0.1705  0.2564  0.1352
 9649W        W25833   7.179   4.591   2.469 -0.1517 -0.2828  0.0040
 9650W        W25834   4.088  12.183  11.123 -0.0640  0.1791 -0.1197
 9651W        W25835  13.179   7.652   1.227  0.4246  0.3331 -0.2086
 9652W        W25836  15.596   6.640   4.055  0.2158  0.3863 -0.1503
 9653W        W25837   3.740   7.379  13.117 -0.0216  0.0435  0.0806
 9654W        W25838  11.634  17.385  14.539 -0.0413 -0.1132 -0.1509
 9655W        W25839  11.100   4.208  12.500 -0.2198 -0.1503  0.0308
 9656W        W25840  16.984  17.807   0.290 -0.2317  0.0389 -0.1182
 9657W        W25841  12.236   3.169   2.545 -0.2696 -0.3832 -0.1093
 9658W        W25842   1.352   1.321  14.556 -0.0606 -0.1802 -0.2616
 9659W        W25843  15.439   8.134  11.030  0.3469  0.1048 -0.2198
 9660W        W25844  17.155   0.744  13.974 -0.4601  0.1475 -0.1476
 9661W        W25845   6.503   4.190  15.117  0.0168 -0.2285 -0.0377
 9662W        W25846  13.749   8.624   3.722 -0.1921  0.0186 -0.2319
 9663W        W25847  11.251  17.575   0.974  0.1720  0.2661 -0.1113
 9664W        W25848  12.687   8.870   2.536 -0.0252 -0.0192  0.1414
 9665W        W25849  15.694   4.106  15.215 -0.0235  0.0778 -0.1898
 9666W        W25850   5.322   2.153   0.175 -0.0189 -0.0940  0.2824
 9667W        W25851  17.335  18.189   3.273 -0.1941  0.0098 -0.0013
 9668W        W25852   9.270   3.580   3.707  0.2179 -0.1684  0.5525
 9669W        W25853  10.982  14.460   6.112  0.0137  0.3816  0.2558
 9670W        W25854   3.449  17.436   2.853 -0.0393 -0.0766 -0.1288
 9671W        W25855   8.515   3.142   1.371 -0.3593  0.0268 -0.6385
 9672W        W25856   9.209   3.350   4.191 -0.0174  0.0057  0.3761
 9673W        W25857  10.109   8.494   1.950  0.1685  0.3293  0.0908
 9674W        W25858  15.443   4.726  13.439 -0.0427 -0.0415  0.2234
 9675W        W25859  12.833   3.079  11.145 -0.2624  0.1296  0.2067
 9676W        W25860  15.413   0.879  15.461  0.0713 -0.4301  0.3492
 9677W        W25861   8.154   7.007  13.092  0.2175  0.0055  0.0450
 9678W        W25862  17.071   5.872  13.354 -0.0877  0.2498  0.2926
 9679W        W25863  15.376   3.994   4.434  0.2993 -0.2072 -0.1779
 9680W        W25864  11.569  18.679   0.869  0.3182  0.2034  0.1339
 9681W        W25865  17.872  17.048   0.322  0.1989 -0.2014 -0.3415
 9682W        W25866  17.935  18.498   4.005  0.4351 -0.1846  0.0475
 9683W        W25867   8.247  10.840   2.602  0.2595 -0.1711 -0.2041
 9684W        W25868  14.072  13.633  11.803 -0.1407  0.3045  0.2338
 9685W        W25869  10.481   0.934  13.806 -0.0584  0.6078  0.0676
 9686W        W25870  10.554   5.067   3.401  0.3398 -0.0655  0.0548
 9687W        W25871   7.916   7.188   4.843  0.3170 -0.1195  0.2694
 9688W        W25872   1.123  11.101   1.745 -0.1006 -0.1461 -0.2223
 9689W        W25873   8.441  10.868  10.798  0.0108 -0.0642  0.4782
 9690W        W25874   2.408   7.560  13.852 -0.0388  0.1335  0.1908
 9691W        W25875  10.248   9.923   4.705 -0.0377  0.0975  0.0271
 9692W        W25876  14.525   5.848   3.745 -0.2010  0.0522  0.1205
 9693W        W25877  15.925   2.297  10.517  0.1159  0.3561  0.0077
 9694W        W25878  11.782   5.745  11.269 -0.0055 -0.0434 -0.0800
 9695W        W25879  18.393  10.640  14.372  0.1036  0.1138  0.4673
 9696W        W25880  14.912  11.841  11.767  0.0029  0.0957  0.0106
 9697W        W25881   1.823   4.223   1.668  0.2694  0.0718 -0.1430
 9698W        W25882  17.287  10.994  12.287  0.1542 -0.1254 -0.2506
 9699W        W25883   0.233   3.202   3.305 -0.1047  0.0289  0.0311
 9700W        W25884   0.271  15.414  14.846 -0.2584  0.0171 -0.0641
 9701W        W25885  15.092  11.955  14.419 -0.2372 -0.4356 -0.0140
 9702W        W25886   2.461  15.257   1.535  0.0291  0.0129  0.2844
 9703W        W25887   7.190  13.612  14.491  0.0357 -0.1188  0.2777
 9704W        W25888   4.567  12.104   5.050 -0.0327 -0.3777  0.4224
 9705W        W25889   3.474   1.669   0.957  0.0138 -0.0822  0.2483
 9706W        W25890   8.753  15.322  11.758  0.1456 -0.0776 -0.1466
 9707W        W25891   7.103   0.851   5.264  0.1167 -0.1745 -0.4379
 9708W        W25892   4.614  14.124  12.812  0.3288 -0.0197  0.0380
 9709W        W25893  12.625  11.116   3.213 -0.1074 -0.1213  0.1170
 9710W        W25894   1.815   6.907   0.872  0.1731 -0.1725  0.0230
 9711W        W25895   8.587   1.352  15.487 -0.0277 -0.1195  0.3142
 9712W        W25896  16.027   0.621  10.888 -0.0747  0.0109 -0.0415
 9713W        W25897   4.807  13.057   3.349  0.2238 -0.0973 -0.0892
 9714W        W25898  12.576  13.932  15.430 -0.2927 -0.0714  0.1192
 9715W        W25899   5.610   4.719   4.574 -0.1311 -0.1908  0.3310
 9716W        W25900  10.427   8.120  13.985  0.1175  0.0948 -0.1894
 9717W        W25901  15.652  15.949  13.614  0.5529  0.0784 -0.1330
 9718W        W25902  18.602  18.460   1.462 -0.0683  0.1041 -0.0749
 9719W        W25903   3.805  12.682   2.371  0.0378 -0.0132  0.0423
 9720W        W25904  16.373   5.570  15.479  0.0169 -0.1458  0.2699
 9721W        W25905   1.056  12.498  13.168 -0.0338 -0.0942  0.0366
 9722W        W25906  10.535   2.371  15.365 -0.0773  0.2021 -0.0615
 9723W        W25907   2.769  11.947   3.766 -0.0557 -0.0346 -0.0650
 9724W        W25908   9.865   9.876  12.017 -0.1244 -0.2353 -0.0716
 9725W        W25909   6.958  14.947  13.150  0.1298  0.1745  0.0705
 9726W        W25910  17.265   5.999  12.259  0.0092  0.0731 -0.0704
 9727W        W25911   3.087  15.105  13.976  0.4783  0.0770  0.1873
 9728W        W25912  17.449   2.465  13.371 -0.0447  0.0115  0.0151
 9729W        W25913  12.466  15.475   4.251  0.4464  0.2499 -0.1913
 9730W        W25914  10.060   0.884  14.102 -0.1595  0.2154  0.5192
 9731W        W25915   2.771   0.460  12.895 -0.1667 -0.0121 -0.2115
 9732W        W25916   1.949  12.721   1.765 -0.5027 -0.0532  0.6052
 9733W        W25917   4.264   7.045   3.018 -0.1429 -0.0352 -0.0038
 9734W        W25918   6.375  10.267  11.767  0.0121  0.0749 -0.0353
 9735W        W25919   9.571   4.653  11.788 -0.0946 -0.2360 -0.3198
 9736W        W25920  14.401   7.072  10.879  0.3164  0.3158 -0.0607
 9737W        W25921  16.840   6.491  14.599  0.2688 -0.1211  0.1536
 9738W        W25922  10.525   9.032   3.351 -0.0381  0.0273  0.1517
 9739W        W25923   1.385  10.391  11.114  0.0937 -0.1788 -0.1304
 9740W        W25924   6.491  18.121  12.653 -0.0192  0.1462 -0.0864
 9741W        W25925   9.008  16.115   2.948  0.1530 -0.2396  0.2902
 9742W        W25926   3.619   4.994   1.723 -0.0497  0.0875 -0.1447
 9743W        W25927   4.385  13.372   1.595  0.0361  0.0250 -0.0680
 9744W        W25928  12.043   5.267   5.000 -0.0469 -0.1625  0.1801
 9745W        W25929  14.445   8.623   2.653 -0.0497  0.1182  0.2242
 9746W        W25930   9.754  13.696  11.401 -0.0808 -0.0722 -0.0785
 9747W        W25931   3.675   0.741  11.731 -0.1356 -0.1815 -0.1600
 9748W        W25932   5.940  13.392  14.145  0.2729 -0.3190 -0.0230
 9749W        W25933   4.686   5.365  13.739  0.0196 -0.1765  0.0790
 9750W        W25934   3.334  18.178   4.721 -0.0163 -0.0787 -0.1152
 9751W        W25935  15.457   8.056  14.167  0.5844 -0.2768 -0.0284
 9752W        W25936  12.636   4.164  11.386 -0.0894  0.1260  0.1808
 9753W        W25937   4.989   3.685   3.409 -0.0576 -0.3780 -0.2253
 9754W        W25938  11.753  13.269   0.281 -0.0374  0.1828 -0.0651
 9755W        W25939  14.956   6.581   6.236 -0.3651 -0.0157  0.0576
 9756W        W25940   9.975   8.204   4.532  0.0021  0.1909  0.3459
 9757W        W25941   0.012   0.679  12.097  0.1247  0.1659 -0.1182
 9758W        W25942  12.876  16.178  12.286  0.0953  0.2614  0.0567
 9759W        W25943   0.619  10.099  12.681  0.0868  0.1695 -0.0106
 9760W        W25944   2.498   3.557   4.329 -0.0179 -0.0966  0.1476
 9761W        W25945  10.999   8.467   2.327 -0.0822 -0.1665  0.2172
 9762W        W25946   0.985   0.960  11.815  0.1551  0.1333  0.6316
 9763W        W25947  17.898  18.704   5.030  0.0014 -0.2736 -0.0318
 9764W        W25948  10.047   8.181   2.346 -0.0327 -0.1083 -0.0756
 9765W        W25949  15.609  17.285   5.017  0.2032  0.0046 -0.0447
 9766W        W25950  18.412   1.874  15.093 -0.0746  0.1168  0.0781
 9767W        W25951   4.103   9.572   4.647 -0.0400 -0.2054 -0.1988
 9768W        W25952  15.038  15.712  11.601 -0.0765 -0.0994  0.4226
 9769W        W25953   1.831   9.883  15.351  0.2100 -0.0499 -0.0415
 9770W        W25954  17.084   9.779  11.146  0.3317 -0.2955 -0.0697
 9771W        W25955  16.688  12.631   1.192 -0.0758 -0.1572 -0.5504
 9772W        W25956   5.414   9.561  14.943 -0.2359 -0.0065  0.1467
 9773W        W25957   8.445   6.531  15.391 -0.0709 -0.4250  0.0013
 9774W        W25958   6.026   5.950   4.793  0.0639 -0.0376  0.0327
 9775W        W25959  12.103  12.408  12.162 -0.2199 -0.0994  0.1257
 9776W        W25960  18.386   0.721   3.866  0.0744 -0.0199 -0.2222
 9777W        W25961  15.052  16.462  11.192 -0.1232  0.5474  0.1250
 9778W        W25962  11.163  14.578  14.402 -0.0384 -0.1749  0.0004
 9779W        W25963   0.720   7.709   3.339 -0.1203 -0.2668  0.0790
 9780W        W25964   0.456   3.715  11.763 -0.1006 -0.2522  0.1193
 9781W        W25965  14.714   7.799  11.223  0.1131 -0.1059  0.0906
 9782W        W25966   2.105   5.435   5.385  0.1037 -0.3714  0.1034
 9783W        W25967  12.571  18.330  12.887 -0.0212  0.1480 -0.2111
 9784W        W25968   3.977   4.430  14.344 -0.2856  0.1512  0.1392
 9785W        W25969  18.084  13.269  14.489  0.0897 -0.0112  0.2219
 9786W        W25970   1.738   3.141   4.967  0.3122  0.2191 -0.0111
 9787W        W25971  11.107  13.225   4.010  0.1013  0.0022  0.1246
 9788W        W25972  15.966   2.227   2.953  0.1869 -0.0045 -0.0571
 9789W        W25973  18.140   0.314  15.418 -0.0150  0.1787 -0.0919
 9790W        W25974  17.077   1.912   2.157  0.0149 -0.0002  0.2281
 9791W        W25975   8.312   7.366  12.481 -0.1287 -0.2080  0.1419
 9792W        W25976  10.361   1.878  10.736  0.1707  0.0965 -0.2038
 9793W        W25977   2.154   7.806  14.710 -0.2342 -0.2734 -0.2296
 9794W        W25978   2.354   6.451  10.510 -0.3026  0.0026  0.2158
 9795W        W25979   1.419  10.469   4.654  0.2781  0.0683 -0.2332
 9796W        W25980  14.687   4.886  14.089  0.0440  0.1929  0.0006
 9797W        W25981   7.072  13.259   2.033  0.1315 -0.0441  0.0377
 9798W        W25982  10.620  15.822   1.712  0.4149  0.0817  0.3779
 9799W        W25983   0.117   3.030  12.315 -0.0031  0.0964 -0.3414
 9800W        W25984   1.054  13.021   0.598 -0.0120 -0.1323 -0.1676
 9801W        W25985  15.411  11.992   4.614 -0.0951  0.2911 -0.1642
 9802W        W25986  17.540  16.765   4.767 -0.1270  0.0589  0.1508
 9803W        W25987   6.419   8.639   2.927 -0.0555 -0.1930  0.1454
 9804W        W25988   8.073   7.997  11.169 -0.0268  0.0229 -0.0033
 9805W        W25989   5.248  12.586  10.624  0.0734 -0.5487 -0.0109
 9806W        W25990  14.676   9.894   4.037  0.1490  0.0727  0.0823
 9807W        W25991   6.964   6.980  14.191  0.0316 -0.0666  0.2205
 9808W        W25992   6.964  10.210   0.917 -0.3364 -0.3547 -0.2269
 9809W        W25993  17.780   5.361   3.542  0.5031 -0.0844  0.2026
 9810W        W25994  18.217  13.675  12.098  0.1207  0.0515  0.0022
 9811W        W25995  12.699  17.994   4.356 -0.0033 -0.1600 -0.0110
 9812W        W25996   6.669  18.673  12.577 -0.1886 -0.0530  0.1470
 9813W        W25997  12.155   5.490   0.432 -0.0415 -0.3457  0.2035
 9814W        W25998  13.191  14.855   2.310 -0.0460 -0.0854 -0.0714
 9815W        W25999   5.269   8.765  15.231  0.2267  0.2197 -0.1826
 9816W        W26000   0.599   2.025  12.830 -0.0662 -0.1747 -0.1308
 9817W        W26001  15.120   0.128  12.542  0.0745  0.0071 -0.1405
 9818W        W26002   6.556  12.945   2.661  0.2905  0.0277 -0.4833
 9819W        W26003   2.187   8.263   4.367 -0.0576  0.1924 -0.1616
 9820W        W26004  15.352  13.698   0.969  0.1474  0.0549 -0.0598
 9821W        W26005  11.719  17.233   3.849 -0.6326  0.0862 -0.4027
 9822W        W26006   3.584   3.917  11.991 -0.1531  0.0101  0.0885
 9823W        W26007   8.629   8.719   3.599 -0.4156 -0.3015 -0.1809
 9824W        W26008   9.572  13.923   0.576 -0.1489  0.3364 -0.3032
 9825W        W26009   4.974  18.681   4.172 -0.0854  0.2520  0.2042
 9826W        W26010   1.035   0.626  10.793  0.1127 -0.1030  0.1220
 9827W        W26011   5.918  13.631  10.690 -0.0714 -0.0132 -0.0749
 9828W        W26012   2.416   6.140  10.978  0.2891 -0.1031 -0.1661
 9829W        W26013   5.190   6.507  10.933  0.3004 -0.3805  0.0021
 9830W        W26014  13.950   8.327   4.490 -0.2183 -0.1474 -0.0913
 9831W        W26015  13.121   1.999  11.093 -0.1411 -0.0038  0.4186
 9832W        W26016  11.428  18.784   3.045  0.1170 -0.2470 -0.2010
 9833W        W26017  13.418   1.212   3.664 -0.0051 -0.2646  0.0519
 9834W        W26018   2.980  13.882   3.367 -0.0141 -0.3320  0.2101
 9835W        W26019   4.360  15.366   5.332 -0.1012  0.0591 -0.0724
 9836W        W26020  12.470  16.534   4.250  0.1993  0.2192  0.0939
 9837W        W26021  16.213  11.960   2.016  0.2237  0.1048 -0.2797
 9838W        W26022   2.093   8.072  10.777 -0.2549 -0.1348  0.1985
 9839W        W26023  13.777  10.137  11.306  0.1236  0.1923 -0.2808
 9840W        W26024   4.334   6.677  15.202  0.0614 -0.1385  0.0332
 9841W        W26025   1.320  18.424  13.354  0.1378  0.0495 -0.2507
 9842W        W26026   2.115   9.492  12.601 -0.3308  0.0886  0.1663
 9843W        W26027   4.387   9.358  11.495 -0.1434 -0.0705  0.2571
 9844W        W26028   4.011   2.550   2.886 -0.2933 -0.1671 -0.2591
 9845W        W26029  18.060  14.103   4.055  0.2440 -0.0027 -0.0829
 9846W        W26030  16.843   2.887   0.469  0.1875 -0.2605  0.2438
 9847W        W26031  17.694  16.857  12.757 -0.2761  0.1751  0.0617
 9848W        W26032  15.802  13.754   4.116 -0.1969 -0.1902 -0.1414
 9849W        W26033   0.916   3.528   2.290  0.0447  0.0087  0.0205
 9850W        W26034   1.836   1.732  14.649  0.3696 -0.0391  0.3049
 9851W        W26035  12.016   4.269   1.235  0.0778 -0.2141  0.0965
 9852W        W26036   4.813   1.687  11.145  0.0102  0.0959  0.3366
 9853W        W26037   7.316   4.531   0.064  0.2010  0.1956 -0.2439
 9854W        W26038  10.709   0.380  14.801 -0.2341 -0.1143  0.1524
 9855W        W26039  12.957  12.538  14.985 -0.3324 -0.1071 -0.2197
 9856W        W26040  15.220  13.000   4.780 -0.1096 -0.0090  0.0701
 9857W        W26041   6.689  17.941  11.261  0.3067 -0.0555  0.3373
 9858W        W26042   9.811  14.721   2.175 -0.1224  0.2669 -0.2919
 9859W        W26043  15.667   7.900  14.582 -0.0279 -0.0034  0.1050
 9860W        W26044  13.591   9.913  11.917  0.0548 -0.0046  0.1728
 9861W        W26045   2.996   5.943   0.003 -0.0977  0.0971 -0.2741
 9862W        W26046  14.484  12.316   4.644 -0.2234 -0.2222 -0.1834
 9863W        W26047   8.767  12.032  15.389  0.3883 -0.4470 -0.0239
 9864W        W26048  18.823  10.158  14.511  0.0176 -0.0860  0.0379
 9865W        W26049   7.288   1.509  11.307  0.1589  0.2444 -0.2570
 9866W        W26050   8.492   9.871   3.132 -0.2472  0.2466 -0.0547
 9867W        W26051   6.315   0.147  11.851 -0.0267  0.0879 -0.2753
 9868W        W26052   6.373   8.279  15.363 -0.1341 -0.6057  0.1512
 9869W        W26053   1.226  13.454  13.098 -0.0323  0.2308  0.0211
 9870W        W26054   8.938  18.758  12.786 -0.3221 -0.1483 -0.0362
 9871W        W26055   5.011   3.587  12.596  0.1937 -0.4493 -0.1511
 9872W        W26056   7.905   9.286   0.620  0.0625  0.1844  0.3015
 9873W        W26057  16.457  16.610  13.560  0.1745  0.0132 -0.2392
 9874W        W26058  10.262   2.700   4.363 -0.0355  0.0393 -0.2933
 9875W        W26059   7.865  18.686   4.005 -0.2749  0.0732  0.1494
 9876W        W26060   1.189   9.090   4.386  0.1088  0.1676 -0.0965
 9877W        W26061  15.495  10.297  12.399  0.3286  0.1241 -0.0058
 9878W        W26062  16.258   9.443  13.731 -0.0546 -0.0085 -0.0008
 9879W        W26063  13.497   0.418   1.945 -0.1927  0.2463 -0.0496
 9880W        W26064  13.756   5.050  10.364  0.0131  0.0367 -0.0680
 9881W        W26065  13.977  17.764  12.437 -0.1044  0.1184  0.3957
 9882W        W26066   0.512   4.093   4.278  0.2624  0.0866 -0.1966
 9883W        W26067  15.179   7.547  13.493  0.0874  0.0465 -0.0471
 9884W        W26068   6.648  18.815  14.904 -0.2063 -0.0654 -0.0269
 9885W        W26069   6.935   3.621   5.011 -0.2654  0.1987  0.0547
 9886W        W26070   5.998   8.897   4.624 -0.0830  0.0310  0.0506
 9887W        W26071   6.999  10.522   5.701 -0.5596  0.0041 -0.0475
 9888W        W26072   8.577  11.650   3.152 -0.1204 -0.0542  0.0285
 9889W        W26073   0.678  10.963   2.373  0.1571  0.1564 -0.1403
 9890W        W26074   9.976  15.086   3.934 -0.0860  0.0305 -0.2771
 9891W        W26075   7.590  16.459  11.388  0.0231  0.1695  0.0858
 9892W        W26076   9.466   6.309  14.072 -0.0245 -0.1517  0.0339
 9893W        W26077   7.774   9.205  12.432 -0.0202  0.0343 -0.3374
 9894W        W26078  17.107  14.827   1.625 -0.1234 -0.0275 -0.2573
 9895W        W26079   1.721   8.464   3.169 -0.1803 -0.0144 -0.3850
 9896W        W26080   9.917   4.282   0.770 -0.2508 -0.1519 -0.0229
 9897W        W26081   5.871   9.103   0.800  0.1155  0.0309  0.3231
 9898W        W26082   8.456  12.134   3.092  0.2703  0.0266 -0.0626
 9899W        W26083   1.533  16.468   0.185  0.1151 -0.0357 -0.1790
 9900W        W26084   9.976   1.377   5.481  0.0019 -0.0154  0.0573
 9901W        W26085  14.983   0.212   2.371 -0.2261  0.3193 -0.1858
 9902W        W26086  16.509   8.887   3.344  0.1220  0.2791 -0.0114
 9903W        W26087   2.383   7.618  15.503 -0.2799  0.1796 -0.1579
 9904W        W26088  18.069   6.443   4.394 -0.0829 -0.0792  0.2096
 9905W        W26089  10.217   1.674  13.388  0.0590  0.3128  0.2186
 9906W        W26090   3.781   0.463   3.372  0.2202  0.0167  0.2768
 9907W        W26091  13.587   8.640  15.348 -0.1331  0.0596  0.2420
 9908W        W26092   2.865  15.975   1.931  0.1178 -0.2897 -0.1596
 9909W        W26093  17.722  15.098  12.396  0.0219 -0.0356  0.2445
 9910W        W26094   0.697   5.619   5.551  0.0479 -0.2457 -0.0220
 9911W        W26095  17.016  13.203   2.705  0.1011 -0.1320 -0.0192
 9912W        W26096  14.811  18.219   0.618 -0.0863 -0.0803  0.0684
 9913W        W26097   0.283   2.497  15.080 -0.1573  0.1954  0.1691
 9914W        W26098  18.210  15.345   2.567  0.3051 -0.0471 -0.0890
 9915W        W26099   5.096  10.267  14.984  0.3560 -0.2919  0.1320
 9916W        W26100  17.128  16.941  12.924  0.1696  0.5129  0.3891
 9917W        W26101   3.149  15.024   4.051  0.1503  0.0454 -0.1172
 9918W        W26102   0.137  14.592   1.894  0.1475  0.1062 -0.2129
 9919W        W26103  13.010   3.348   0.944  0.1640  0.2160 -0.1537
 9920W        W26104   3.750  16.489   0.906 -0.0123  0.1903  0.0469
 9921W        W26105  16.017   8.818   0.850  0.2509  0.3836 -0.2180
 9922W        W26106  18.259  12.569   5.115  0.2293  0.2352 -0.0425
 9923W        W26107   8.560   7.795   0.194 -0.1066 -0.0103 -0.2207
 9924W        W26108   0.810  18.531  13.174 -0.3509 -0.0397  0.0030
 9925W        W26109   6.214  17.265  13.638 -0.1720  0.1298  0.1915
 9926W        W26110  10.118   7.395   1.778  0.0778  0.2027  0.0477
 9927W        W26111   5.325   4.377   1.368  0.2359  0.1857  0.2660
 9928W        W26112   9.761   5.803  12.255 -0.3102 -0.0335  0.0277
 9929W        W26113   1.876  14.284  14.897  0.0665 -0.1080  0.0398
 9930W        W26114   4.130   6.367   2.690  0.0348 -0.3118 -0.2304
 9931W        W26115   3.622   9.333   2.239 -0.1156 -0.1465  0.0847
 9932W        W26116  16.367  13.725  10.871  0.2499 -0.2393 -0.1865
 9933W        W26117   4.629  12.437   4.634  0.0735 -0.1217 -0.1622
 9934W        W26118  18.306  15.373  15.506  0.0677 -0.1919  0.0375
 9935W        W26119  17.523  18.156  10.502  0.1052 -0.2561 -0.1134
 9936W        W26120  16.260  15.414   4.077  0.0213 -0.2295 -0.2415
 9937W        W26121   4.681   5.385   0.888 -0.0731  0.1331 -0.1038
 9938W        W26122  14.251   2.255  10.166 -0.5435  0.3433  0.1384
 9939W        W26123  11.209   9.995  13.484  0.1033 -0.4451 -0.0487
 9940W        W26124  12.983  18.056  14.212 -0.0836 -0.0252  0.1688
 9941W        W26125  14.198  14.434  11.674 -0.3378  0.2577 -0.0003
 9942W        W26126   8.483   0.988   1.411  0.5183  0.0873 -0.1154
 9943W        W26127  16.317   1.355  10.623  0.0465 -0.0966 -0.0100
 9944W        W26128   8.791   3.692  11.147 -0.0338  0.1217  0.0644
 9945W        W26129  13.310  18.653   3.301 -0.0242  0.1070  0.2746
 9946W        W26130  12.968  18.180   4.021 -0.0185 -0.0149  0.3547
 9947W        W26131  16.175   0.966   4.122  0.0283 -0.0591  0.1582
 9948W        W26132  14.777   0.960   2.241  0.1053  0.0636  0.3527
 9949W        W26133  10.354  18.804  11.967 -0.2288 -0.2135  0.0866
 9950W        W26134   8.962   8.051  14.031 -0.5879  0.0547  0.2464
 9951W        W26135   7.359  18.578  14.361 -0.0339 -0.0588 -0.0354
 9952W        W26136  15.185  18.341  14.867 -0.0654  0.0218  0.0979
 9953W        W26137  16.144   7.934  15.289  0.0239  0.0082 -0.2671
 9954W        W26138  12.425  13.370   3.148 -0.1585 -0.2867  0.2211
 9955W        W26139  10.828   3.238  11.649  0.2073 -0.1408 -0.2341
 9956W        W26140   9.160   5.006   1.463 -0.0305  0.0565 -0.0944
 9957W        W26141  11.431  16.940  15.465  0.0103 -0.3443 -0.0360
 9958W        W26142  12.477   1.091   4.272  0.1933  0.1446  0.0880
 9959W        W26143   7.702   2.371   1.784  0.1890 -0.1583  0.1549
 9960W        W26144  18.418  16.578  15.285 -0.1801  0.3653  0.0305
 9961W        W26145  14.887   0.079  11.180  0.2787 -0.0111  0.0196
 9962W        W26146   1.119   7.201   0.366 -0.2051 -0.1568 -0.0283
 9963W        W26147   6.833  10.766   0.245  0.0977  0.2515  0.0361
 9964W        W26148  14.924   4.399  14.187  0.1178  0.3466  0.0224
 9965W        W26149   6.878   6.412   0.454  0.1546  0.1827  0.0127
 9966W        W26150  10.390   6.894  13.279  0.0410  0.0627  0.0725
 9967W        W26151   2.627  13.898   1.688 -0.2715  0.0223  0.3279
 9968W        W26152   2.898   5.266   3.980 -0.0135  0.1339 -0.1377
 9969W        W26153  15.791  15.859   1.337  0.0872  0.0513  0.0771
 9970W        W26154   0.939  16.082   4.853 -0.3372  0.1215  0.3114
 9971W        W26155   2.069  18.255  11.381  0.2471 -0.2674 -0.1400
 9972W        W26156   3.644  12.419  12.850 -0.0928 -0.0493 -0.0032
 9973W        W26157   5.135  10.296  12.441 -0.2970  0.0044 -0.1451
 9974W        W26158  11.484  14.928  14.312 -0.3155 -0.2011 -0.1297
 9975W        W26159   7.514   8.414   5.093  0.0871 -0.1944  0.1634
 9976W        W26160  14.004  10.778   0.624 -0.1079 -0.3320 -0.3212
 9977W        W26161   3.343   9.602  13.490 -0.1270  0.0512 -0.4688
 9978W        W26162   8.180  13.961   4.273  0.1003  0.1842  0.0324
 9979W        W26163  10.474  18.644   1.944 -0.0767 -0.0963 -0.3514
 9980W        W26164   2.147   1.935  13.756  0.0199  0.0975  0.0728
 9981W        W26165  17.969   4.148   0.810  0.0911 -0.0205  0.0373
 9982W        W26166   8.691   7.018  12.246  0.2071 -0.1041  0.0594
 9983W        W26167  16.669  14.148   3.799  0.2976  0.2003 -0.1373
 9984W        W26168   3.085   1.034  12.220  0.0920 -0.3581  0.1806
 9985W        W26169   6.672   1.906  11.575  0.1597 -0.1040  0.1260
 9986W        W26170  11.816  16.476  14.479  0.1607  0.1528  0.1345
 9987W        W26171   4.438   7.484  14.019 -0.0998  0.2967  0.0337
 9988W        W26172  10.384   2.890  14.713  0.0413  0.0198  0.1025
 9989W        W26173  16.017  11.454   3.853  0.4751  0.1924  0.1065
 9990W        W26174   8.250  18.428   2.319 -0.0583  0.0546 -0.0957
 9991W        W26175  15.899  14.913  12.849 -0.0112 -0.2080  0.0672
 9992W        W26176   4.611   8.372   0.271 -0.2049  0.3618  0.0926
 9993W        W26177  13.258  15.705   4.121  0.2755  0.1203  0.2562
 9994W        W26178   2.128  13.018   0.437  0.3197  0.1877 -0.0859
 9995W        W26179   1.542  14.329   2.502  0.0573  0.1548  0.0369
 9996W        W26180   5.155   5.790   3.084  0.3388 -0.0618 -0.0188
 9997W        W26181  12.374   1.910  12.578 -0.2506 -0.3413 -0.1143
 9998W        W26182   9.849   4.046   2.672  0.2077  0.1583  0.3960
 9999W        W26183  15.710   7.332   4.627 -0.0405 -0.1156  0.0330
10000W        W26184   9.923  11.020   4.232 -0.1662 -0.2733  0.1571
10001W        W26185  15.574  17.243   0.582 -0.1541 -0.5596 -0.2092
10002W        W26186  12.432  16.216  12.094  0.3171  0.0236  0.5011
10003W        W26187  11.305   7.798   4.788 -0.1272  0.0951  0.1999
10004W        W26188  18.674   8.798   1.428  0.1046  0.1120  0.0378
10005W        W26189  14.545  18.849  14.372  0.1027  0.0316 -0.0015
10006W        W26190   5.875   0.775   3.489 -0.0821  0.1637  0.0933
10007W        W26191   8.471   5.568  13.710 -0.1004  0.0186  0.3082
10008W        W26192  18.354   9.679   3.829  0.1771  0.0869 -0.1410
10009W        W26193   7.150  14.112  11.103  0.1874 -0.2036  0.2808
10010W        W26194  17.483  13.070   2.075  0.1574  0.3191 -0.1609
10011W        W26195  16.436   3.173   0.695  0.1520  0.2227  0.1031
10012W        W26196  13.294  15.000  11.763 -0.0484 -0.0338  0.1329
10013W        W26197   6.792   0.264   1.200 -0.2057 -0.1333 -0.3963
10014W        W26198  16.117  11.759  12.510  0.1811 -0.0444 -0.0697
10015W        W26199   3.219   0.760  11.579 -0.0189 -0.0233  0.0844
10016W        W26200   3.902   3.788  13.043 -0.1373 -0.4473  0.1288
10017W        W26201   6.973   6.929   2.263 -0.2713 -0.1034  0.2401
10018W        W26202  17.100   0.055  10.075  0.3576 -0.0938 -0.0556
10019W        W26203   3.040  17.311  14.421  0.2917  0.0758 -0.0912
10020W        W26204   3.794  16.568  12.964 -0.0262  0.0868  0.3629
10021W        W26205   2.637   2.480  15.320  0.1135  0.0094 -0.1578
10022W        W26206  16.215   6.895  14.173 -0.0479  0.3430 -0.4781
10023W        W26207  13.265   8.920   3.808 -0.1082 -0.1609 -0.2836
10024W        W26208   1.590  18.642   0.583 -0.2445 -0.2660 -0.4329
10025W        W26209  10.031   4.871  11.638 -0.1458 -0.0259 -0.1585
10026W        W26210   9.837  13.475   2.814  0.0298 -0.0314  0.0200
10027W        W26211   4.022  14.340   1.891 -0.0181 -0.2940  0.3295
10028W        W26212  14.865   3.506  13.762 -0.1750  0.0381 -0.0773
10029W        W26213  10.627  12.001  11.598  0.1885 -0.1661 -0.3683
10030W        W26214  12.792  10.179   1.563 -0.1709  0.1999  0.2881
10031W        W26215   1.682   3.523  14.320 -0.1319  0.0333  0.0901
10032W        W26216   0.143  15.243   4.885 -0.0913 -0.0125 -0.2066
10033W        W26217   5.661   8.611  13.114  0.0534 -0.0093  0.0669
10034W        W26218   5.360  13.459  13.719 -0.2246  0.0462  0.0826
10035W        W26219   0.096   4.399   4.458 -0.0803 -0.0865  0.0729
10036W        W26220  10.420   4.148  13.671  0.3232  0.2238  0.0053
10037W        W26221   4.637   6.230   2.731 -0.2786  0.1531 -0.0716
10038W        W26222   3.015   0.570   2.107 -0.0592 -0.1571  0.3212
10039W        W26223   2.235   4.734  13.588  0.0430 -0.1878  0.2162
10040W        W26224   9.911  11.267   5.590  0.0014 -0.0746 -0.0019
10041W        W26225   9.689   2.419   0.838 -0.1586  0.0439 -0.0318
10042W        W26226   5.209   5.939   1.036 -0.0070 -0.0534  0.0273
10043W        W26227  14.206   4.489   3.479  0.2635 -0.0810 -0.5517
10044W        W26228   6.635   8.006   4.567  0.2264 -0.0710 -0.3349
10045W        W26229   1.455   6.302  14.182 -0.0720 -0.0143 -0.2674
10046W        W26230  16.772   7.362   3.666  0.1756 -0.4122 -0.1039
10047W        W26231   1.838  18.502  13.316  0.1540  0.2090  0.1277
10048W        W26232  18.100  16.283   2.931  0.0296 -0.1292 -0.1813
10049W        W26233   0.861   7.968  13.133  0.0997  0.3538  0.0635
10050W        W26234  12.873  13.450  13.916 -0.2146 -0.0018 -0.2865
10051W        W26235   3.235  10.888   1.851  0.2013 -0.0830  0.1387
10052W        W26236   5.520   4.414   2.905 -0.2714  0.2823  0.0564
10053W        W26237  13.435   3.104  11.737  0.0222 -0.0171 -0.2019
10054W        W26238   9.762   0.188   0.084  0.1948  0.2584  0.4770
10055W        W26239  17.886   1.777  12.940  0.3016  0.1120  0.2312
10056W        W26240  11.287   5.198  12.246  0.0324  0.0762 -0.2193
10057W        W26241   9.214   6.243  12.829  0.2200  0.0006 -0.0740
10058W        W26242   3.685  14.833   1.940  0.2034  0.1853  0.0473
10059W        W26243   4.847   6.999   2.908  0.1989 -0.0694 -0.5028
10060W        W26244  12.947   5.019   5.282 -0.2064 -0.0357 -0.0869
10061W        W26245   5.028   8.326   1.625 -0.3205  0.0922 -0.1627
10062W        W26246  13.370  13.307  13.981 -0.1812  0.3290  0.2085
10063W        W26247  12.147  17.119   5.013 -0.0548 -0.0372 -0.0008
10064W        W26248  18.509  18.251  11.775  0.2274  0.0541  0.1289
10065W        W26249   6.168   1.678  13.286 -0.0520 -0.1793 -0.0384
10066W        W26250   8.612  14.328   0.062  0.1347 -0.1960  0.2331
10067W        W26251   8.647   7.927  11.055  0.3153 -0.0590 -0.2565
10068W        W26252   0.819   0.165   4.331 -0.0465 -0.2095  0.0476
10069W        W26253   9.224   9.647  14.872 -0.1049  0.2221  0.3263
10070W        W26254   6.617  13.182  12.658  0.0361 -0.2180  0.1773
10071W        W26255  10.825  17.526   4.737 -0.4414  0.2046  0.0800
10072W        W26256   5.359   2.361  12.208 -0.1186 -0.2287 -0.0303
10073W        W26257  12.305   7.732   0.809  0.0968  0.2308  0.1373
10074W        W26258  15.483  16.841   5.278  0.0628  0.0089  0.0522
10075W        W26259  16.238   1.019   3.070 -0.1768 -0.1187 -0.1081
10076W        W26260   4.713  14.206  14.815  0.2711 -0.2313 -0.1873
10077W        W26261  16.903  17.093   1.672  0.0221  0.3645 -0.1712
10078W        W26262   6.873  13.416  12.048 -0.3969  0.0162 -0.1477
10079W        W26263   6.398   8.900  14.648 -0.0210  0.2917  0.1043
10080W        W26264  18.104   3.972  14.451  0.3303 -0.1542 -0.5860
10081W        W26265   1.849   9.455   2.093 -0.0163 -0.2946 -0.2967
10082W        W26266  12.649  13.013  14.043  0.0522 -0.4250  0.1194
10083W        W26267   2.061  10.310  13.290 -0.0262  0.1280 -0.1657
10084W        W26268   7.334  18.624   3.803 -0.0045  0.3575 -0.2426
10085W        W26269  18.746  16.188   1.670 -0.3184  0.3029  0.0873
10086W        W26270   9.660  17.074  15.370 -0.1048  0.4044 -0.0309
10087W        W26271  12.251   3.769   1.170  0.1776 -0.0997  0.0296
10088W        W26272   7.859   7.013   3.415 -0.2327  0.1018  0.2281
10089W        W26273   9.307   9.033  11.862  0.1356  0.3096 -0.0944
10090W        W26274   6.617   9.155  15.067 -0.0308 -0.1416  0.2981
10091W        W26275   9.876   6.854   5.963  0.1311 -0.3248 -0.2923
10092W        W26276  15.144   6.649  15.436 -0.2226  0.3732  0.0993
10093W        W26277   7.412   5.285  10.782  0.1307  0.0605 -0.1088
10094W        W26278   3.395   6.104  11.900 -0.1600  0.0378 -0.0021
10095W        W26279  10.675  10.948   0.001  0.0715 -0.1924  0.0743
10096W        W26280  17.293  13.089   0.814  0.1934  0.3218  0.1641
10097W        W26281  11.538  18.223   1.848  0.0853 -0.1796 -0.1596
10098W        W26282  11.883   2.871  12.966 -0.3094 -0.0067  0.0970
10099W        W26283   4.457   6.392   5.027  0.1263 -0.0179 -0.1373
10100W        W26284   3.189   6.284  12.897  0.4622  0.0372 -0.0415
10101W        W26285  17.619  15.723   0.082  0.1084 -0.0200  0.0180
10102W        W26286  13.253   8.406   3.062  0.0496  0.1810  0.1313
10103W        W26287  12.327   3.048  13.212  0.0119 -0.1713 -0.3524
10104W        W26288  11.396   2.936  14.643 -0.0935  0.0076 -0.1323
10105W        W26289  15.997  15.305   3.154  0.5158  0.2131  0.3008
10106W        W26290  15.169   2.983   1.246 -0.4495  0.1842  0.2098
10107W        W26291   8.723   6.615   0.338  0.3624 -0.0040  0.1445
10108W        W26292   6.411  16.429   0.655  0.2214 -0.1473 -0.1050
10109W        W26293   0.736   6.035  15.085  0.1074 -0.3339  0.4045
10110W        W26294   8.733  11.257  15.476 -0.0561 -0.1375  0.2430
10111W        W26295   3.864   4.966  13.062 -0.1111  0.1075  0.0954
10112W        W26296  11.652   5.309   3.097 -0.2446 -0.0748 -0.0792
10113W        W26297  17.766  12.270   1.687 -0.0171 -0.0136  0.2370
10114W        W26298   7.671  12.921   2.859 -0.2023  0.4001  0.0271
10115W        W26299  17.137   0.860   1.254  0.1449  0.3051 -0.1912
10116W        W26300   0.169   2.786  11.597  0.1342  0.2632 -0.3846
10117W        W26301   7.953  16.624   1.887  0.0511  0.1016  0.3417
10118W        W26302  11.165   5.212   2.632 -0.0161 -0.2081  0.1164
10119W        W26303   8.790   0.446  12.875  0.0353 -0.0441  0.2902
10120W        W26304   3.965   0.024   5.082  0.1972 -0.1264  0.0967
10121W        W26305   6.735   9.879   4.660  0.0840  0.0077  0.0009
10122W        W26306   8.863  12.737  10.949 -0.2367  0.2167 -0.0788
10123W        W26307   2.703   6.770  13.803  0.2353  0.2373  0.3328
10124W        W26308   0.101  11.591   5.068  0.2816 -0.3329  0.0343
10125W        W26309  17.150  14.923  14.054  0.1741 -0.1537 -0.0546
10126W        W26310  18.442  11.198   1.767  0.0779  0.1085 -0.0655
10127W        W26311  13.902   1.017  14.619  0.0894 -0.0271 -0.0841
10128W        W26312  15.170   5.169  12.088  0.3185  0.1627  0.3153
10129W        W26313   5.632  10.436   1.219 -0.0707  0.0304  0.0345
10130W        W26314   6.501   6.772   3.725 -0.2307  0.0435 -0.0281
10131W        W26315   6.812   1.372  10.438  0.1205  0.0231 -0.1975
10132W        W26316   5.082  15.682   2.855  0.1267  0.1460  0.1047
10133W        W26317  13.266   7.170   2.010  0.4176 -0.0148 -0.2134
10134W        W26318   4.131   6.410  11.108 -0.0843 -0.3728 -0.2825
10135W        W26319   9.059   4.597   2.867  0.0571  0.0365  0.0322
10136W        W26320   0.025   9.750  13.010  0.1068  0.1427  0.4168
10137W        W26321   0.869   5.213  12.817 -0.0337  0.0569 -0.0411
10138W        W26322  15.951  10.110  13.026  0.4012  0.1347  0.2722
10139W        W26323  18.588   3.093  11.569  0.2037 -0.0568  0.2964
10140W        W26324  10.732   9.672  11.231 -0.0136  0.1305 -0.0640
10141W        W26325  14.603  13.611   4.817  0.0814 -0.1622  0.1250
10142W        W26326   5.074   6.016   2.626  0.2617 -0.4252  0.1013
10143W        W26327   9.918  17.008   2.369  0.0334 -0.1105  0.0564
10144W        W26328   7.526  13.776   0.174  0.1708 -0.2061 -0.1905
10145W        W26329   8.204   0.737   5.449  0.5251  0.0088 -0.1376
10146W        W26330  13.871  13.283   2.730  0.2070  0.2005 -0.0521
10147W        W26331   9.420  11.563   1.953 -0.0748 -0.0573  0.2455
10148W        W26332   4.738  15.327   4.546 -0.1665  0.3529 -0.1122
10149W        W26333   2.216   9.646  15.132 -0.0564  0.2530  0.0663
10150W        W26334  10.082   3.461  13.898 -0.5438 -0.0343 -0.1333
10151W        W26335  18.588  14.804   1.410  0.0175  0.5117  0.3381
10152W        W26336  11.593  10.577   3.636 -0.2029  0.1621 -0.5988
10153W        W26337  18.608   9.194   1.743 -0.2607 -0.0517  0.1164
10154W        W26338  10.888  13.285   0.940  0.2231  0.1495  0.2145
10155W        W26339  14.676   5.063  11.998 -0.0355 -0.1849 -0.1634
10156W        W26340   3.675   7.857  13.255  0.1474  0.1949 -0.2150
10157W        W26341  17.925   5.905   1.240 -0.0490  0.2001  0.1502
10158W        W26342  18.785  14.937   2.971  0.1769  0.0536  0.2021
10159W        W26343   8.981   6.664  11.643  0.3164  0.2046  0.1814
10160W        W26344   9.627  15.577   5.042 -0.0934  0.1284 -0.1247
10161W        W26345   2.559   9.377  14.333 -0.3970 -0.2348  0.1250
10162W        W26346  10.199  13.290  15.281  0.1130  0.2372 -0.1474
10163W        W26347  12.682   5.812   5.593 -0.1271 -0.2033 -0.2719
10164W        W26348  16.249   7.272   2.804  0.3750 -0.4399 -0.1399
10165W        W26349   4.153  16.093  13.627 -0.0837 -0.2319 -0.1415
10166W        W26350   7.119   0.730  15.422  0.0034  0.4279 -0.0821
10167W        W26351   9.966  13.909  12.640 -0.1583  0.2105  0.1080
10168W        W26352  18.053  12.027   1.005  0.1579 -0.1911  0.3133
10169W        W26353  12.108  15.804   2.900  0.0020  0.0661  0.0841
10170W        W26354  14.632   7.275   0.996 -0.0959  0.2344 -0.2356
10171W        W26355  11.460   1.576  12.869 -0.0665 -0.1626 -0.0577
10172W        W26356  13.078   0.805  13.865  0.1406  0.2943 -0.0559
10173W        W26357   3.809   0.048  12.978 -0.1098 -0.0199 -0.3205
10174W        W26358  17.105   8.606   3.857 -0.2436  0.4290 -0.1061
10175W        W26359   4.880   0.388  15.082  0.1836 -0.4098 -0.0963
10176W        W26360   6.896  15.776  11.144 -0.0489  0.4191  0.1832
10177W        W26361   6.293   3.439   3.864 -0.0787 -0.1366  0.1374
10178W        W26362   1.166  18.800   0.339  0.2555 -0.0845  0.0979
10179W        W26363   6.356  13.720   0.528 -0.0935 -0.3977  0.0162
10180W        W26364   8.986  11.171  13.374 -0.0499 -0.1811 -0.2609
10181W        W26365  10.772  12.353   3.288 -0.3275  0.0952  0.1677
10182W        W26366  10.761   5.104   4.240  0.2902  0.1966 -0.2185
10183W        W26367   8.334  15.417   3.541 -0.2107  0.0810  0.2869
10184W        W26368   9.186  15.023   4.612 -0.1912 -0.1683  0.1864
10185W        W26369   6.306   7.016  15.386 -0.2289 -0.0520  0.2577
10186W        W26370  11.545   7.196  11.550 -0.4995  0.1807  0.0239
10187W        W26371  18.620   5.032  13.660  0.0868 -0.0454  0.1329
10188W        W26372  18.674  13.427  12.274  0.3674  0.0543 -0.0011
10189W        W26373  15.166   6.703   4.900 -0.2414  0.0620  0.0856
10190W        W26374  13.518   1.561  12.188  0.1171  0.0914  0.2000
10191W        W26375   4.615  13.780   0.155 -0.1169  0.2300  0.1886
10192W        W26376   1.438   4.725  11.677 -0.3297 -0.3029 -0.0427
10193W        W26377   1.128  10.218   2.266 -0.3307  0.0171  0.2105
10194W        W26378  16.986  16.210   0.991  0.0320 -0.0518 -0.1022
10195W        W26379   9.082   9.874  13.787 -0.0787  0.2865 -0.0992
10196W        W26380   9.169   7.020   0.964  0.4042  0.2187 -0.1727
10197W        W26381  16.296   8.799  14.168  0.1483 -0.1935  0.0129
10198W        W26382  17.500   1.434  11.594  0.0902  0.2525  0.1334
10199W        W26383  11.509   5.880  12.145 -0.1881 -0.0814  0.2566
10200W        W26384  16.641  14.575  11.986 -0.2970 -0.0334  0.2722
10201W        W26385  10.384   6.237   3.126  0.1937  0.0342 -0.1154
10202W        W26386   1.581  12.804  12.560 -0.3996 -0.2135  0.0212
10203W        W26387  15.748   2.636   9.954  0.1253 -0.3401 -0.4731
10204W        W26388  16.047  16.093  11.367 -0.0947  0.0598 -0.1945
10205W        W26389   0.426  16.836   1.943 -0.0223  0.0261 -0.1020
10206W        W26390   4.618  11.491   1.192 -0.2414  0.1283  0.0089
10207W        W26391  13.290   3.110  15.508 -0.6807  0.0129  0.0341
10208W        W26392  12.336  17.480   2.841 -0.2288  0.0389 -0.1649
10209W        W26393   1.795  13.073   3.027 -0.0441  0.3228  0.2443
10210W        W26394   3.765   7.618   0.769  0.0021  0.0753  0.1010
10211W        W26395   2.311   1.346   2.710 -0.1647  0.0207  0.1350
10212W        W26396   1.000   7.540  14.896 -0.2789 -0.2223  0.1491
10213W        W26397   3.094   1.681  15.227  0.1233 -0.0123  0.2653
10214W        W26398  17.867   2.927  14.937 -0.0093 -0.1330  0.0661
10215W        W26399  13.281  10.172   2.182 -0.3441  0.1746 -0.0224
10216W        W26400  14.233  12.813   3.322  0.1387  0.0876  0.0407
10217W        W26401   9.935   3.494   5.431 -0.1294 -0.0093  0.0567
10218W        W26402  16.082   0.983   3.575 -0.1306  0.0824 -0.0621
10219W        W26403   0.494   3.022  14.457  0.1987 -0.2696  0.2627
10220W        W26404  12.654  15.379  13.007  0.0611 -0.1890 -0.0617
10221W        W26405  15.180  10.214  14.528  0.0434  0.1513 -0.1954
10222W        W26406  10.524   7.577   4.278 -0.3800 -0.1088  0.1060
10223W        W26407  14.440   0.480  14.367 -0.3482  0.2450  0.1580
10224W        W26408   4.355  14.404   2.236  0.2839 -0.0114 -0.1522
10225W        W26409  17.236  12.886  14.844  0.0385 -0.0242  0.1697
10226W        W26410   1.554  18.793   3.313 -0.1675  0.1319  0.2131
10227W        W26411  15.907   2.357  13.782  0.2692 -0.0064  0.1496
10228W        W26412   3.896   1.437   1.316  0.0708  0.0251 -0.0855
10229W        W26413  14.272   9.397   3.074  0.2435 -0.1960 -0.0817
10230W        W26414  12.311  13.484  14.245  0.0048 -0.2019 -0.1327
10231W        W26415  16.066  14.649   5.084  0.1875 -0.1068 -0.0294
10232W        W26416   4.169  17.608   3.681 -0.3384  0.0591  0.0521
10233W        W26417  15.814  18.204   3.957  0.1090  0.2627 -0.2811
10234W        W26418  10.275  10.081  13.836  0.1132 -0.0354 -0.0013
10235W        W26419  13.965  13.322  12.838 -0.1774  0.0974 -0.3592
10236W        W26420  17.567  15.455   3.335  0.0289 -0.3098  0.1680
10237W        W26421   6.844  13.796   0.262 -0.1666  0.0262  0.1229
10238W        W26422  17.365   7.338  12.100 -0.0535 -0.0060  0.3741
10239W        W26423   6.751   3.751  11.933  0.0010 -0.3532  0.0653
10240W        W26424   8.509   0.031   1.041  0.1272  0.0352 -0.0452
10241W        W26425   1.414   4.141   9.725 -0.0289 -0.1386 -0.2748
10242W        W26426  18.450   1.896   1.556 -0.0486  0.0891  0.1816
10243W        W26427  17.835   4.694  14.623 -0.0422 -0.0371 -0.0696
10244W        W26428   5.138   8.093  14.682  0.1572  0.0246  0.2157
10245W        W26429   7.897   5.009  13.402  0.0403  0.0738 -0.0508
10246W        W26430   4.440  17.297  11.971 -0.0250 -0.2033 -0.0967
10247W        W26431   5.246   0.203   4.419  0.1564 -0.2223  0.2652
10248W        W26432   9.835   9.556   2.562 -0.2018  0.2654  0.1920
10249W        W26433  15.810  14.622  13.467  0.1549 -0.0076 -0.0281
10250W        W26434  13.590   3.909   3.436  0.0638 -0.1617  0.2647
10251W        W26435   2.606  16.812  15.433 -0.2618  0.3636 -0.1961
10252W        W26436   0.771  15.599   2.657  0.2815 -0.2674 -0.0384
10253W        W26437  16.346   4.483   1.444 -0.1012  0.0910 -0.3814
10254W        W26438   2.676   7.832  14.627  0.1498  0.1821 -0.1047
10255W        W26439   0.113   4.829   1.294 -0.0209  0.0122  0.1112
10256W        W26440  14.185  14.086  15.416 -0.0263  0.3291  0.1271
10257W        W26441  18.607   7.231  10.159 -0.0125 -0.0700 -0.0629
10258W        W26442  15.100  12.872   3.990  0.1143  0.0340  0.1124
10259W        W26443   4.113   1.591   0.194 -0.1193 -0.0452 -0.1263
10260W        W26444  11.363  14.509  15.221 -0.2088 -0.2125 -0.1616
10261W        W26445  13.318  13.052   0.709  0.0087  0.2185  0.0420
10262W        W26446  17.854   5.179  14.469 -0.2501 -0.1528 -0.0826
10263W        W26447   7.768  15.665  13.136  0.0724  0.1170 -0.0666
10264W        W26448   7.925  13.789   3.673  0.0833  0.1219 -0.0292
10265W        W26449   7.852  15.438  12.060 -0.3701 -0.1307  0.1131
10266W        W26450  14.535   6.195  11.565 -0.2392 -0.1854  0.2017
10267W        W26451   5.199  12.332  11.047  0.0035  0.0706 -0.0334
10268W        W26452   4.628   8.201   0.795  0.1194  0.0878 -0.0119
10269W        W26453   2.823  14.440   3.403  0.0611 -0.1791  0.0515
10270W        W26454   6.727   1.264  12.321 -0.2798  0.0816 -0.0688
10271W        W26455   0.641   4.662  13.645 -0.0062  0.0703 -0.1794
10272W        W26456   1.629   1.811   1.537  0.0700 -0.2550 -0.1865
10273W        W26457  12.029   6.716  11.150  0.3396  0.1140  0.3067
10274W        W26458   8.698   6.317  14.670 -0.0526 -0.1927 -0.0008
10275W        W26459   8.502  10.083  12.566  0.0717  0.1991 -0.4113
10276W        W26460   9.736   4.767   1.011 -0.1642  0.2550 -0.0122
10277W        W26461  15.865   4.858   0.801 -0.1383  0.1065  0.2306
10278W        W26462   0.760  15.290   0.245  0.0442 -0.1280  0.3631
10279W        W26463  15.499   6.706   2.901 -0.0296 -0.1691 -0.0525
10280W        W26464  17.170   5.858  14.316  0.3839  0.0561  0.0967
10281W        W26465  17.900  12.406  14.244  0.0870 -0.3559 -0.0953
10282W        W26466   5.346   6.540   4.571  0.2589  0.3674  0.0942
10283W        W26467   0.260   9.704   5.168  0.1863 -0.1883 -0.1599
10284W        W26468   4.676  18.713   0.448 -0.3483 -0.1836 -0.2587
10285W        W26469   7.372   9.837   2.130  0.0327 -0.0308  0.1209
10286W        W26470  12.093  14.732   4.827  0.1322  0.1190 -0.0899
10287W        W26471  16.409   3.350  14.454  0.0523  0.1073 -0.0824
10288W        W26472  15.387   2.354   0.580 -0.0416  0.1766  0.2052
10289W        W26473   6.983  17.855   2.600 -0.0645  0.0093  0.1166
10290W        W26474  11.863   0.826   1.043 -0.1612  0.1632 -0.2304
10291W        W26475   6.233   5.164  10.704  0.0313 -0.0611 -0.0912
10292W        W26476  17.930  17.038   1.799  0.0885  0.2319  0.0240
10293W        W26477   5.003   8.144  13.682  0.0598  0.0410  0.0069
10294W        W26478   4.907  18.628   1.357 -0.1459  0.0587  0.4016
10295W        W26479  12.861  10.387   3.612  0.2357 -0.1866 -0.2735
10296W        W26480   7.135  16.213   1.500  0.2159 -0.4067 -0.2249
10297W        W26481   7.069  18.061   3.172  0.3412  0.1490 -0.0205
10298W        W26482  16.878   2.199   1.248  0.1845 -0.1142  0.2733
10299W        W26483  12.990  18.542  15.531  0.2287 -0.2489 -0.3865
10300W        W26484   8.328   6.785   5.529  0.1279  0.0020 -0.1873
10301W        W26485   0.515  14.260  13.768  0.0230 -0.1636 -0.0500
10302W        W26486  11.478  15.935  13.777 -0.0084  0.0241 -0.2905
10303W        W26487  12.500  17.625  13.131 -0.0766  0.0283 -0.1917
10304W        W26488   4.824   1.604   4.504 -0.1546 -0.0182 -0.2614
10305W        W26489  14.568  12.375   4.158 -0.1328 -0.0331  0.0021
10306W        W26490  15.576   0.012   2.558  0.6075 -0.1001 -0.0589
10307W        W26491   4.403   9.973  12.141  0.1466 -0.3088 -0.0075
10308W        W26492   9.870  11.516  10.931 -0.0439 -0.1500 -0.3055
10309W        W26493   5.722   5.067  13.810  0.1755  0.2266 -0.3812
10310W        W26494   6.631   8.505   4.974 -0.3687  0.4046 -0.0986
10311W        W26495  18.747  15.299   1.469  0.0453 -0.0249  0.0429
10312W        W26496  11.391   7.225  12.869  0.2408  0.3034 -0.0054
10313W        W26497   5.794   2.335  15.363  0.2458 -0.2277 -0.1887
10314W        W26498  12.863   7.230  14.699  0.0038 -0.0836  0.0222
10315W        W26499   8.214  14.906  14.605 -0.0747 -0.4053  0.0523
10316W        W26500   1.863   7.376  14.690  0.2594  0.2831  0.3697
10317W        W26501   0.326   9.311  14.829  0.1040  0.1002  0.1762
10318W        W26502  15.923   2.139  10.975  0.1455  0.0270 -0.1776
10319W        W26503  17.371   4.529   2.824  0.2065 -0.0319  0.2374
10320W        W26504  12.431  16.262  13.091  0.0031  0.0186  0.1020
10321W        W26505  10.123   1.920   1.968  0.2660  0.1830 -0.1506
10322W        W26506   7.279   3.259   0.779  0.1227  0.0079 -0.1954
10323W        W26507   0.627  17.681  12.259 -0.0866  0.2026  0.3115
10324W        W26508   4.792   5.602  14.253 -0.0642  0.1542 -0.0076
10325W        W26509  11.483   2.142  12.035 -0.1453  0.3370  0.1147
10326W        W26510   8.393   3.195   0.861 -0.0154 -0.4311  0.0814
10327W        W26511   2.753   3.971  11.018  0.1448 -0.0648 -0.0193
10328W        W26512   2.580   5.873  11.450 -0.2417 -0.1001 -0.2864
10329W        W26513  15.248   7.077   2.668  0.0170  0.4208 -0.0931
10330W        W26514  11.716  12.731   4.103  0.3480 -0.3418 -0.1124
10331W        W26515   5.609  12.236  11.340  0.0145  0.0146  0.1682
10332W        W26516   5.674   7.393   0.562 -0.0650  0.0252  0.0359
10333W        W26517   9.896   2.369  12.786 -0.0716  0.3008  0.2840
10334W        W26518   3.689  13.256   3.092 -0.0967  0.0172  0.0007
10335W        W26519  17.508  14.840  15.470  0.1449  0.1995 -0.0744
10336W        W26520   1.068   2.574   9.671  0.3048  0.0074 -0.1767
10337W        W26521   1.625   7.789   3.179 -0.1360  0.0675 -0.2973
10338W        W26522   2.258   6.362  11.383  0.0464 -0.0619  0.1047
10339W        W26523  14.958   6.181  11.926 -0.1322 -0.1118 -0.1989
10340W        W26524   8.759  12.719  12.475  0.2376  0.0471  0.1736
10341W        W26525   6.395  13.450  13.690 -0.0747 -0.2504 -0.2052
10342W        W26526  10.490   4.324   2.233 -0.1120  0.0536  0.0894
10343W        W26527  16.300   0.342  13.710 -0.3558  0.1765  0.2972
10344W        W26528  12.756   4.951   4.260  0.2223  0.0596  0.4075
10345W        W26529   8.110  12.820   0.764 -0.0358 -0.2921  0.1204
10346W        W26530  13.470   6.182   1.220 -0.1129 -0.0774  0.0492
10347W        W26531   4.168  18.418  12.294 -0.0644  0.1291 -0.4146
10348W        W26532  13.292   3.896  12.011  0.0372 -0.0633 -0.5080
10349W        W26533   6.707   2.190  10.999 -0.1817 -0.1174  0.0741
10350W        W26534   9.513   3.886   3.009  0.0432 -0.0424 -0.1422
10351W        W26535  12.894   4.585  14.646 -0.0729 -0.0122  0.0568
10352W        W26536   3.071   1.773   1.255  0.0638  0.2906  0.0482
10353W        W26537  11.965   4.862   3.053  0.1079  0.1046  0.2032
10354W        W26538   3.287  17.914  10.588 -0.5816  0.1065  0.1658
10355W        W26539  18.453   1.220   2.467  0.0125 -0.0500 -0.1271
10356W        W26540   9.329   2.404   4.341 -0.1515 -0.2763  0.0305
10357W        W26541  16.403   4.990   4.429 -0.0814  0.1590 -0.0624
10358W        W26542  13.461   0.121   3.743 -0.1716  0.0065  0.1975
10359W        W26543  15.324   6.138  10.838 -0.1092 -0.0976 -0.0387
10360W        W26544  17.882   9.211   2.253 -0.0490 -0.4081 -0.0621
10361W        W26545   3.821  18.828   1.965 -0.1050  0.0101 -0.0434
10362W        W26546   6.495  18.297  13.487  0.0543 -0.4438 -0.0124
10363W        W26547   9.271  11.819  15.149 -0.3559 -0.0419 -0.1316
10364W        W26548   0.470   9.335  13.644 -0.0837  0.0804  0.2373
10365W        W26549  10.482   8.849   4.206 -0.0152 -0.1631  0.1502
10366W        W26550   1.534  14.580   2.080 -0.0456  0.1436  0.2856
10367W        W26551   5.200  11.856   1.974 -0.0728 -0.2182  0.0956
10368W        W26552   3.441  16.417   4.041  0.1440  0.0155 -0.1790
10369W        W26553  16.697   4.139   1.448  0.3106 -0.1934  0.0470
10370W        W26554  14.978   3.346   0.523 -0.2174 -0.0023  0.1548
10371W        W26555  15.417  11.116  14.993 -0.0494 -0.3364  0.4210
10372W        W26556   5.941   7.454   4.090  0.4911  0.1298 -0.4535
10373W        W26557  13.119  13.826   3.512 -0.2410  0.0279 -0.1184
10374W        W26558   6.174   1.886   2.026 -0.0489 -0.1441  0.0952
10375W        W26559   7.952   5.223  14.464  0.1730  0.2705 -0.2801
10376W        W26560   0.375   0.962   0.355 -0.0352  0.1384 -0.1498
10377W        W26561   4.134  11.695   5.121 -0.1137  0.1128 -0.2006
10378W        W26562  16.525  11.272   3.020 -0.1215 -0.2539  0.0459
10379W        W26563  14.364  15.185   3.273 -0.0743  0.0595 -0.0012
10380W        W26564  11.906  11.754   2.317  0.2271  0.0669 -0.2582
10381W        W26565  12.753   6.653   5.806  0.0220 -0.4293  0.2689
10382W        W26566   7.087  11.400   4.749 -0.1051  0.0814 -0.1813
10383W        W26567   0.558  11.974  10.782  0.3259  0.2950  0.1133
10384W        W26568   2.768   9.648  11.266 -0.0967  0.2127  0.4714
10385W        W26569  11.914  13.954   2.188  0.0785  0.1680  0.2198
10386W        W26570   6.802   3.924   1.057  0.2977 -0.0845  0.0141
10387W        W26571   5.098   9.867  12.702  0.1099 -0.1841  0.2642
10388W        W26572   5.477  16.353   1.965  0.1557  0.0054 -0.1226
10389W        W26573   4.051   7.516   0.275 -0.0342  0.1817 -0.1371
10390W        W26574  12.550   3.295  15.028 -0.3227  0.0910  0.1260
10391W        W26575   1.759  13.185   1.971 -0.2154 -0.0177  0.1627
10392W        W26576  18.018   4.986  15.085  0.2269  0.1617  0.2034
10393W        W26577   7.999  14.096  11.362 -0.0891  0.0663  0.3475
10394W        W26578   5.481   2.501   5.188 -0.0418  0.0563  0.1192
10395W        W26579  13.890   1.557  14.359 -0.1829 -0.1423 -0.0138
10396W        W26580   9.549  16.594   2.538  0.0148  0.0230  0.0604
10397W        W26581   9.878   1.775   0.067  0.3115  0.0732 -0.3844
10398W        W26582  15.019   0.224   4.143 -0.0627  0.2865  0.3397
10399W        W26583  14.346   0.272  13.792  0.0940 -0.0799 -0.0414
10400W        W26584   9.206   0.210   4.906  0.0268 -0.1576  0.2453
10401W        W26585   4.257  17.176  13.531  0.1916 -0.4253 -0.3433
10402W        W26586  12.648  11.378  15.105 -0.1116 -0.0104 -0.3177
10403W        W26587  13.486  10.995   2.410 -0.2682 -0.0973 -0.1369
10404W        W26588  12.395   7.484  15.511  0.1426 -0.2553 -0.1266
10405W        W26589   3.605  10.117   0.577 -0.0103  0.0401  0.2630
10406W        W26590  12.634   3.907  10.504  0.0318 -0.3144  0.1391
10407W        W26591   6.697   4.459  13.116 -0.1604 -0.0625 -0.1222
10408W        W26592  12.431   9.742  14.911  0.1615 -0.0044  0.0009
10409W        W26593  13.741   5.803  13.490 -0.1322 -0.1357  0.3358
10410W        W26594   0.229   0.328   0.442  0.0899  0.1049 -0.1026
10411W        W26595   8.360  11.245  13.716  0.0303 -0.0582  0.0460
10412W        W26596   5.739  18.109   4.055 -0.0499 -0.0953 -0.0557
10413W        W26597   7.523   3.697   0.724  0.0325  0.4864  0.4894
10414W        W26598   0.101  12.360  11.801 -0.1082 -0.2243 -0.3629
10415W        W26599  11.328   0.017  11.694  0.0041 -0.1135 -0.1329
10416W        W26600   6.717   9.013   3.617 -0.0278 -0.3178  0.0480
10417W        W26601  13.336  17.253   4.715 -0.1359 -0.4105  0.3185
10418W        W26602   0.168  16.731   3.221 -0.1758 -0.0640  0.0908
10419W        W26603   9.583   2.317  11.284  0.2097 -0.2373 -0.2024
10420W        W26604   4.319   1.452  11.093  0.0754  0.0885 -0.0839
10421W        W26605   7.233  11.927   4.794  0.3512  0.3494  0.1474
10422W        W26606  10.408  13.623  11.000 -0.3117  0.2947 -0.1346
10423W        W26607  10.146   4.641  13.584  0.0671 -0.0180 -0.0313
10424W        W26608  14.304  13.993  11.507 -0.0188  0.0758  0.0952
10425W        W26609   9.740   5.365  14.139 -0.1100 -0.2538  0.0723
10426W        W26610   2.496  10.414  12.051 -0.1724 -0.1092 -0.2507
10427W        W26611   7.197   9.567  12.525  0.0806 -0.0630 -0.4552
10428W        W26612   8.058  18.158   0.872  0.0672 -0.1420  0.2386
10429W        W26613   9.222   4.053  12.990 -0.1987 -0.4191 -0.1255
10430W        W26614   4.657   7.119  15.420 -0.1241 -0.1505 -0.1091
10431W        W26615   4.450   8.821  11.338  0.1786 -0.1880 -0.0860
10432W        W26616   1.363   5.089  10.258 -0.0939  0.1325 -0.1719
10433W        W26617   9.279  14.364  14.486  0.1310 -0.0541 -0.0152
10434W        W26618  18.584  15.996   5.016  0.4532 -0.1170 -0.1516
10435W        W26619  12.801   9.693  11.279 -0.1595 -0.0245 -0.0325
10436W        W26620  12.699   7.240   4.955  0.1558 -0.2522 -0.2423
10437W        W26621   5.650  13.447  11.646 -0.0762  0.1832 -0.2466
10438W        W26622  16.757  17.681  11.930 -0.0464  0.0265 -0.4205
10439W        W26623  10.506  15.759  13.702 -0.0544 -0.0788 -0.1660
10440W        W26624   4.651   6.304  15.210 -0.1037  0.2030  0.2153
10441W        W26625  14.232  13.264  13.328 -0.0907 -0.0619 -0.0761
10442W        W26626   7.908   7.498   2.484 -0.0405 -0.1494  0.1636
10443W        W26627   7.872   5.771   4.887 -0.1228 -0.1825 -0.0162
10444W        W26628   2.724   9.993   5.057 -0.1606 -0.1351  0.0812
10445W        W26629  10.986   9.089  12.495  0.0816 -0.0187  0.0317
10446W        W26630  14.763   0.920  15.307  0.0958  0.1128 -0.3533
10447W        W26631   5.329   6.172   3.744 -0.0698 -0.0866 -0.0533
10448W        W26632   2.686  11.119  12.735 -0.0169  0.1044  0.1849
10449W        W26633   1.124  17.147  10.913 -0.0407  0.0416  0.1207
10450W        W26634   9.129   4.040  13.851 -0.2096  0.2271  0.1072
10451W        W26635   9.313   4.538   5.977  0.2763  0.3375  0.2314
10452W        W26636  16.356   3.850  15.126 -0.0491 -0.1196  0.4040
10453W        W26637  12.595  10.549  15.466  0.2042 -0.1065 -0.1328
10454W        W26638  11.697  12.271   0.708  0.2410  0.1229  0.0323
10455W        W26639  14.909  14.780   4.008 -0.1107  0.1676  0.3858
10456W        W26640   3.968  12.675  12.183  0.0767  0.0515 -0.2562
10457W        W26641   0.630   1.590   2.633 -0.0505  0.1681 -0.0294
10458W        W26642   5.755   8.434  11.881 -0.0955  0.1996  0.0040
10459W        W26643   6.664   0.794  15.056  0.1472  0.1148  0.0455
10460W        W26644  12.651  18.220  11.238  0.2229 -0.1323  0.0743
10461W        W26645   1.772   1.415  14.163  0.2241 -0.0761  0.1898
10462W        W26646  18.680  11.089   4.332  0.0407 -0.0766 -0.0792
10463W        W26647   7.872  12.367   2.371  0.0197  0.0307  0.0299
10464W        W26648  16.239  11.349  14.442 -0.1331  0.0338 -0.1917
10465W        W26649   6.787   7.040  15.463 -0.0988  0.1003 -0.0276
10466W        W26650   9.308  14.115   2.594 -0.0313  0.1892  0.1437
10467W        W26651  15.553   7.803   4.329  0.2660  0.1143 -0.4310
10468W        W26652  11.779  14.859   0.865  0.1846 -0.0555 -0.2694
10469W        W26653  12.744   8.138   4.548  0.1908  0.1510  0.0876
10470W        W26654  12.734   9.866   1.112  0.0645 -0.0297 -0.1310
10471W        W26655   4.512  18.644   2.896  0.1179  0.1097 -0.2328
10472W        W26656  10.991  12.015   1.863  0.1946  0.3049 -0.0659
10473W        W26657   5.202   6.077  10.730 -0.0941  0.1310  0.0881
10474W        W26658  14.538   4.730   2.714 -0.0107 -0.2379  0.2691
10475W        W26659   4.391   8.534  12.077  0.1336  0.1676  0.0597
10476W        W26660  10.461  15.033  14.042  0.3757  0.1872 -0.2383
10477W        W26661  10.462  10.153  12.784 -0.0830 -0.0480  0.0516
10478W        W26662  12.144  17.640  14.556 -0.1558  0.2383 -0.1248
10479W        W26663   0.327   7.480  14.785  0.0988 -0.0842  0.0356
10480W        W26664  11.877  17.611   4.179 -0.1320 -0.1381 -0.1847
10481W        W26665   0.190   6.535   1.361  0.2296 -0.0582  0.0766
10482W        W26666   0.709   3.171   1.853  0.0800 -0.0543 -0.0563
10483W        W26667   0.279   2.884  11.085 -0.0157 -0.0218 -0.1921
10484W        W26668  12.166   7.017   2.894  0.4084 -0.0742 -0.1919
10485W        W26669   9.801   5.890  14.041 -0.0040 -0.0545 -0.2245
10486W        W26670  15.391  11.186   4.882 -0.1490  0.0624 -0.1441
10487W        W26671   7.417  15.083   2.284  0.2145  0.2440 -0.2488
10488W        W26672  15.415  13.270  13.504 -0.2621  0.2856 -0.2908
10489W        W26673  14.492   2.094   4.961  0.0714 -0.4105 -0.1441
10490W        W26674   9.787  11.617  11.435  0.0072 -0.0344  0.2883
10491W        W26675   6.310  10.024   0.058 -0.2454  0.1544 -0.0221
10492W        W26676  17.309   9.029  14.211 -0.1391 -0.0619 -0.1788
10493W        W26677   7.569  16.930   1.543  0.0655  0.2540 -0.1950
10494W        W26678  11.925   7.939   1.454  0.2009 -0.0632  0.0818
10495W        W26679   9.829  16.577  12.498  0.1204  0.2032  0.0548
10496W        W26680  13.333   5.064   1.874 -0.1212 -0.0060 -0.3050
10497W        W26681  17.567   6.410   2.885 -0.0972  0.2058 -0.1134
10498W        W26682   4.207  17.498   0.766 -0.1695  0.2254 -0.0125
10499W        W26683  18.278   5.226   1.892 -0.0998 -0.1403 -0.2094
10500W        W26684   1.760   1.732  11.346  0.0117 -0.3765 -0.2458
10501W        W26685  13.360  18.646   5.891  0.2066 -0.0725 -0.0849
10502W        W26686   1.917   4.277  11.040 -0.0240  0.1150  0.0675
10503W        W26687   5.943  12.927  14.002  0.0525  0.0696 -0.0557
10504W        W26688  10.305  10.472   2.278 -0.0641  0.1992 -0.1798
10505W        W26689  13.135  11.917   2.787  0.0432 -0.0929 -0.1053
10506W        W26690   4.677  12.768  15.514 -0.2186  0.0452 -0.1339
10507W        W26691  12.317  13.935   4.876 -0.1380 -0.1366  0.1414
10508W        W26692   0.763  13.278   0.211  0.2671 -0.0412  0.3821
10509W        W26693   7.001  11.228  10.951 -0.1424  0.1046 -0.2877
10510W        W26694  16.124  16.673   0.872  0.1068 -0.1045  0.1024
10511W        W26695  17.516   3.907   4.106  0.0337  0.1344  0.0260
10512W        W26696  11.865   2.928  12.488  0.0760 -0.1245  0.1265
10513W        W26697  18.384   0.891   2.029  0.1586  0.0612  0.1099
10514W        W26698  16.391   9.049   4.311 -0.2163  0.1940 -0.0447
10515W        W26699   3.943  18.654   1.158  0.3519  0.1017  0.1148
10516W        W26700  13.162   2.053   0.208  0.1267  0.1313 -0.2024
10517W        W26701   3.678   0.887   5.515  0.1132  0.2711  0.0408
10518W        W26702   2.997   6.934   4.305  0.1597  0.0217  0.1774
10519W        W26703   7.837   9.578   4.247 -0.0490  0.1888  0.0564
10520W        W26704  18.351   2.473   2.909 -0.5338  0.2247  0.1794
10521W        W26705  17.596  13.197  14.675  0.0864  0.1587  0.7038
10522W        W26706  15.848   2.003  14.572 -0.0815 -0.0500  0.0677
10523W        W26707  10.025   6.131   3.494  0.0094  0.0559  0.1295
10524W        W26708  15.715   6.078  13.490  0.2597 -0.1568 -0.1706
10525W        W26709   2.765   3.977   2.832 -0.0725 -0.0061  0.0273
10526W        W26710   9.080  14.358  13.501 -0.0778 -0.0473 -0.5846
10527W        W26711  18.106  11.475   2.036  0.0424  0.2133 -0.1758
10528W        W26712   5.841  12.578  13.485 -0.2889 -0.0073 -0.0847
10529W        W26713  14.239  12.740   0.937 -0.1576  0.2065  0.0795
10530W        W26714   8.191   4.773   0.048  0.0012  0.0782  0.2702
10531W        W26715  15.781   1.783   5.404  0.0119 -0.1652  0.4315
10532W        W26716  10.803  16.671  13.996  0.1385  0.1384 -0.1807
10533W        W26717   1.041  12.394   1.740  0.1703 -0.1588 -0.1838
10534W        W26718   9.338  10.839   1.863 -0.0658  0.2296  0.0766
10535W        W26719  13.554  17.464   0.501 -0.2037  0.2064 -0.0068
10536W        W26720   4.555  11.120  12.213  0.1897  0.2850 -0.2072
10537W        W26721  13.142   9.999   2.701 -0.5137 -0.2525  0.1200
10538W        W26722  15.912   1.188  12.685 -0.1883 -0.2502  0.2507
10539W        W26723  16.203  15.840  12.314 -0.1849 -0.1882  0.2490
10540W        W26724   6.744   0.578   4.000  0.0173  0.0099  0.1483
10541W        W26725   7.984   6.993   2.188 -0.1524 -0.4224 -0.2133
10542W        W26726   7.107   6.792  14.682  0.0329 -0.3160 -0.0263
10543W        W26727   7.975  12.677  14.186  0.1120 -0.1579  0.1491
10544W        W26728  16.911  13.265   0.552  0.3873  0.1652 -0.2509
10545W        W26729  14.257  15.067   1.282 -0.0658 -0.2991  0.1043
10546W        W26730  16.751  14.545  15.327 -0.5286  0.2892  0.0426
10547W        W26731  11.227  18.316   1.433 -0.0617  0.1514 -0.2425
10548W        W26732   7.643   3.930   2.235  0.0495  0.1408 -0.0763
10549W        W26733   7.544  13.082  10.612  0.0273 -0.1908 -0.1343
10550W        W26734  15.917  14.445  12.953 -0.0250  0.1325 -0.1745
10551W        W26735  10.381   7.981   3.345 -0.0768 -0.1645  0.2769
10552W        W26736   6.510   2.374   3.392  0.2014  0.0769  0.0897
10553W        W26737   4.291   6.965  14.065  0.1053 -0.2118 -0.1810
10554W        W26738   0.905   9.044  12.457  0.2573 -0.0069 -0.0215
10555W        W26739   4.442   3.249   4.039  0.0612 -0.0593  0.2435
10556W        W26740  16.319   8.528   3.019  0.0628 -0.0442 -0.3399
10557W        W26741   6.434   6.081  14.477 -0.0403  0.0081 -0.2850
10558W        W26742   6.531   9.512   3.329 -0.0463 -0.1985  0.1378
10559W        W26743   9.783   0.874   5.193  0.1320 -0.0217  0.0297
10560W        W26744  17.888   1.230  13.752 -0.1429  0.0102 -0.1536
10561W        W26745  12.188   4.318   0.730  0.0662 -0.2341 -0.2935
10562W        W26746  13.868  16.629   2.158  0.3181  0.1130 -0.2641
10563W        W26747   6.392  13.671   4.697  0.0045 -0.1956  0.0839
10564W        W26748   3.233   2.438   1.656 -0.1411  0.1418 -0.1408
10565W        W26749  17.040  16.414  14.459 -0.1634 -0.2175  0.1773
10566W        W26750  16.735   9.443  14.845 -0.2680  0.2710  0.0056
10567W        W26751   5.086  13.451   2.680  0.0567 -0.0467  0.0083
10568W        W26752  13.831   0.068  12.668 -0.2240  0.2218 -0.0295
10569W        W26753  10.924   2.471   3.261 -0.0414 -0.1224 -0.3992
10570W        W26754  14.397   2.996   3.458  0.2076  0.0458 -0.0563
10571W        W26755   8.646  13.023  15.494  0.1252 -0.0129 -0.4619
10572W        W26756  17.137   5.206  11.307  0.0957  0.2901  0.3201
10573W        W26757   5.494  17.731  11.475 -0.1561 -0.1515 -0.2731
10574W        W26758   2.686   6.860   2.238 -0.0633  0.1257 -0.1418
10575W        W26759   7.941   9.484   3.732 -0.1691  0.2033 -0.0121
10576W        W26760   1.059   4.369   3.481  0.0452 -0.0164  0.0226
10577W        W26761   3.842   7.723  12.374  0.1275  0.1122 -0.0320
10578W        W26762   4.640  16.561   4.989  0.0628  0.0270 -0.0733
10579W        W26763   1.084   8.781   1.345 -0.1473  0.3438 -0.0014
10580W        W26764  16.808   0.943   4.642  0.0402 -0.1141 -0.0140
10581W        W26765   2.378   9.650   5.191 -0.0071  0.2266 -0.2629
10582W        W26766   2.777  13.366  13.169  0.1883 -0.0714 -0.0891
10583W        W26767  12.261   1.651  14.048  0.1762  0.0132 -0.3703
10584W        W26768  13.017   2.574  11.396  0.1205  0.3505  0.2020
10585W        W26769  13.040  10.484  11.593  0.5023 -0.0214  0.3200
10586W        W26770  14.974   9.549   2.269 -0.1835  0.2254  0.0373
10587W        W26771  17.987  14.063   3.463 -0.0381  0.0683  0.0335
10588W        W26772   6.788   9.368   0.534  0.3835 -0.1004  0.0163
10589W        W26773  13.029  13.237  13.533 -0.0496 -0.1848  0.1643
10590W        W26774  13.376  17.165   1.720  0.0467  0.0607  0.0123
10591W        W26775  12.418  17.099   3.275  0.0519 -0.3305 -0.2298
10592W        W26776  13.342   5.905   6.082  0.0209  0.2230  0.0022
10593W        W26777  16.979   5.314   9.378  0.2393 -0.0142  0.3116
10594W        W26778  12.488   9.329   3.866  0.2501 -0.0727 -0.1712
10595W        W26779   6.889  17.751  14.587  0.0594 -0.3435  0.6078
10596W        W26780  12.422   7.323  12.914  0.0595  0.1828  0.1161
10597W        W26781   2.728   3.050   5.114 -0.0426 -0.0871 -0.1444
10598W        W26782   6.363  17.496  11.680  0.0726  0.2999  0.1577
10599W        W26783  13.405   3.785  13.430  0.0314  0.0306 -0.0598
10600W        W26784   0.156  14.720  12.897 -0.1356  0.0909 -0.4480
10601W        W26785   4.467   1.762  10.709  0.0498  0.1752  0.0764
10602W        W26786  10.785   2.877   3.539  0.0686 -0.1666  0.1279
10603W        W26787  14.175   2.064  14.731 -0.2889  0.1825 -0.2858
10604W        W26788  10.767   5.073   5.704 -0.0689 -0.1415  0.2354
10605W        W26789  10.424  13.575  14.963  0.0016 -0.4096 -0.0121
10606W        W26790  10.971  17.116   1.005  0.1322  0.2892  0.0865
10607W        W26791  17.444   8.734  15.180 -0.0018 -0.2249  0.3012
10608W        W26792  12.868   8.077   1.365 -0.0905 -0.0148  0.0841
10609W        W26793   5.496  12.487   1.385  0.1352 -0.1245 -0.1160
10610W        W26794   5.178   1.431   4.101 -0.2577 -0.0371 -0.2665
10611W        W26795  17.407   2.386  11.215 -0.1492 -0.0856  0.0638
10612W        W26796   8.488   0.792   3.944  0.0500 -0.0143 -0.3832
10613W        W26797   1.695  12.593  15.410  0.0388 -0.1617 -0.3804
10614W        W26798  12.360   3.701   5.283  0.3208  0.1436  0.1264
10615W        W26799   1.010   4.595  13.983  0.0298 -0.3604  0.1082
10616W        W26800  17.591   1.118   5.149 -0.0516 -0.1447  0.0076
10617W        W26801   9.300  11.316   1.010 -0.1081 -0.0705 -0.5846
10618W        W26802  11.620   4.991   2.522  0.0168 -0.2266 -0.0014
10619W        W26803  12.300   7.022   5.861  0.0642  0.1297 -0.2875
10620W        W26804   8.121  13.818   0.016 -0.0576 -0.2503  0.0602
10621W        W26805   7.793   5.981   4.130 -0.0998  0.1677  0.1711
10622W        W26806   9.233   0.344   2.311  0.4522  0.3892  0.0595
10623W        W26807   9.074   7.679   2.253  0.2641 -0.0417 -0.2153
10624W        W26808  10.350  15.303   3.641 -0.0731 -0.0721  0.2890
10625W        W26809   1.661  11.383   5.233  0.0290  0.4445 -0.2006
10626W        W26810   7.681  14.124  15.373  0.3181  0.4479  0.0591
10627W        W26811   1.050   4.671  14.782 -0.0655  0.0346  0.0898
10628W        W26812  16.097   1.350   5.282 -0.0777 -0.0312 -0.0280
10629W        W26813  13.554  13.044  13.567  0.2677  0.2593 -0.1094
10630W        W26814   0.960   4.123   2.966  0.0431  0.1074  0.2059
10631W        W26815   3.907   4.962  11.910 -0.4273 -0.0079 -0.0813
10632W        W26816  17.454  18.646  10.434  0.0528 -0.0285 -0.1020
10633W        W26817   0.473  12.788   1.504 -0.1901 -0.2056  0.0460
10634W        W26818   9.955   8.960   3.349 -0.2037  0.2634 -0.1322
10635W        W26819   0.419  11.217  11.924 -0.0690 -0.3558 -0.3549
10636W        W26820   2.910  11.492  11.005  0.3398  0.3617  0.0966
10637W        W26821   2.491  15.841   2.636  0.1402  0.2433 -0.1192
10638W        W26822   2.889   8.441  11.929 -0.2032  0.1632 -0.0877
10639W        W26823  14.273   3.399  14.478  0.0695 -0.3894  0.2170
10640W        W26824  16.680  18.338   3.335 -0.2044 -0.5280  0.1220
10641W        W26825   3.085  14.303   0.766  0.0499  0.0562  0.1874
10642W        W26826   6.102  15.299  15.037 -0.0991  0.1339 -0.1584
10643W        W26827  13.016  10.073   4.847  0.2226  0.0574  0.0052
10644W        W26828   0.086   8.780   2.402 -0.1987  0.0622  0.2390
10645W        W26829   3.468  13.296  13.543  0.2611  0.1257 -0.5114
10646W        W26830   9.241   9.605   4.186  0.1900 -0.0422 -0.0062
10647W        W26831   6.636  17.907  15.403 -0.1302  0.1005  0.2404
10648W        W26832  16.932   6.919  12.971  0.1837 -0.2675 -0.1276
10649W        W26833  15.165  17.022   0.827 -0.3824  0.0781  0.1881
10650W        W26834   3.820  15.904   0.382 -0.2486 -0.0006 -0.0878
10651W        W26835  15.853  14.491   3.548  0.1777 -0.0469  0.1549
10652W        W26836  17.149   0.460   1.595  0.0075  0.0363  0.0599
10653W        W26837   7.562  12.404   2.831 -0.3048 -0.4789 -0.2116
10654W        W26838   2.489  15.076   2.781  0.2738 -0.0078  0.1341
10655W        W26839  17.716   6.868   4.239 -0.3751  0.1172  0.0478
10656W        W26840   5.997   1.121   2.605 -0.1168 -0.2540  0.1850
10657W        W26841  13.812  14.936  11.779  0.2796  0.1627 -0.1566
10658W        W26842   7.341  11.992   3.486 -0.2917  0.1117  0.0145
10659W        W26843   7.576  15.240  11.688  0.1272  0.0523 -0.0489
10660W        W26844   0.979   8.810  11.447 -0.0577  0.3411  0.2209
10661W        W26845  17.454   7.086  11.167 -0.0260  0.1436 -0.1847
10662W        W26846  18.309   1.077  15.071 -0.0418 -0.0750 -0.3923
10663W        W26847   1.149  18.488   1.246  0.0061 -0.4040  0.2234
10664W        W26848   1.156  15.814   1.510 -0.0557  0.0493  0.0531
10665W        W26849   9.821   2.630  14.492  0.0663 -0.2230  0.1513
10666W        W26850   3.408   4.642  12.959  0.0887  0.1364 -0.2057
10667W        W26851  10.160  13.223   1.573  0.0882  0.1408  0.1686
10668W        W26852   1.376  10.159   1.844  0.4508  0.1461  0.0092
10669W        W26853   8.345  16.497   1.280 -0.0577  0.0011 -0.1114
10670W        W26854   8.028   7.940   1.869 -0.2885 -0.1316  0.0283
10671W        W26855   5.478  18.676  13.757  0.0561  0.1366  0.0078
10672W        W26856  15.242  13.187  12.200 -0.0590 -0.0587 -0.0293
10673W        W26857  17.854  12.183   2.274  0.1199 -0.0159  0.1105
10674W        W26858   6.185   1.107  11.128 -0.0018  0.2583 -0.1062
10675W        W26859  18.265  10.764  12.109  0.1481 -0.1895 -0.1552
10676W        W26860   0.136  18.279   1.071 -0.2052  0.1714 -0.0504
10677W        W26861  12.509   4.898   2.178 -0.1243  0.0894 -0.0045
10678W        W26862   9.876   6.513   0.579 -0.0792  0.2313  0.1509
10679W        W26863  17.486   5.401  11.765 -0.0674  0.4135  0.1973
10680W        W26864   7.360   8.245   4.109 -0.0417 -0.1212  0.0524
10681W        W26865   8.989  18.531   0.112  0.1328  0.1107  0.0011
10682W        W26866  17.460  16.749   2.985  0.2208  0.0950  0.0177
10683W        W26867  16.197  13.710   5.549  0.0247  0.1095 -0.0203
10684W        W26868   5.822  16.723  10.151 -0.2617  0.0124 -0.0936
10685W        W26869   5.771   2.897   5.304 -0.2091 -0.1023  0.1062
10686W        W26870   1.356  11.004  15.516 -0.0904  0.2746 -0.1118
10687W        W26871  11.787   9.548  15.325 -0.2798 -0.1263 -0.0052
10688W        W26872  10.831   0.597  14.001  0.0374 -0.1736  0.1065
10689W        W26873  18.556  12.333   2.883  0.0111  0.2837  0.1029
10690W        W26874   2.315  10.813  15.534  0.1548 -0.4090 -0.0849
10691W        W26875  14.474   9.963  10.741 -0.0765  0.1428  0.2158
10692W        W26876   9.223  10.033  11.719 -0.2293 -0.2659 -0.0024
10693W        W26877  18.764   1.003  14.247 -0.0272 -0.3777 -0.3126
10694W        W26878   7.306   7.626   1.704  0.1455 -0.0484  0.2595
10695W        W26879   9.241  15.371  12.104 -0.0951  0.1208  0.0331
10696W        W26880  10.887  10.708   5.462  0.1354  0.1929 -0.1798
10697W        W26881   2.504  17.858  13.240 -0.0435 -0.0605 -0.1377
10698W        W26882  18.643  14.391   0.212  0.2127 -0.0477 -0.3846
10699W        W26883   7.637   9.299   5.489 -0.1279  0.1010  0.1621
10700W        W26884   7.015  11.109   3.796  0.0058 -0.2164 -0.2389
10701W        W26885  13.743  15.675  12.433 -0.0626  0.2206 -0.1326
10702W        W26886  18.079  12.556   1.985  0.0835 -0.0625 -0.1980
10703W        W26887   7.295  13.729  12.094  0.2054 -0.0044  0.0508
10704W        W26888   3.026  18.015  13.051 -0.0180  0.2234  0.3815
10705W        W26889  16.937  11.539  13.428 -0.1391 -0.1486  0.2115
10706W        W26890   5.080   4.544  12.226 -0.3468 -0.0742 -0.0248
10707W        W26891  12.680  14.596   3.761  0.0492 -0.1321  0.1742
10708W        W26892  17.078   3.403  15.215  0.2757  0.0936  0.0982
10709W        W26893  11.935   1.716   2.471 -0.2844 -0.1676 -0.0955
10710W        W26894   8.479   6.732  14.946  0.3649 -0.1333  0.3118
10711W        W26895   1.418  16.849  13.181  0.2587  0.2388  0.0150
10712W        W26896   7.291   8.663  14.606  0.3544  0.0770 -0.0175
10713W        W26897  15.790   9.665  13.964  0.2975  0.1773 -0.3550
10714W        W26898  11.551   0.990  10.979 -0.1832  0.4412  0.2002
10715W        W26899   3.577  13.801   5.718  0.1075 -0.0102 -0.1411
10716W        W26900   5.948  16.658  10.806  0.1432 -0.2204  0.1251
10717W        W26901   3.161  15.749   0.993 -0.1122  0.2273 -0.0481
10718W        W26902   2.386  12.787  11.768 -0.3130  0.2453  0.1264
10719W        W26903   1.419  11.189  14.763  0.0828 -0.1418  0.2354
10720W        W26904  10.707  13.371  13.202  0.2801  0.1253 -0.0801
10721W        W26905  10.437   5.286   5.376 -0.0476  0.0645  0.1294
10722W        W26906  14.690  14.851   2.338 -0.1272 -0.0458  0.0780
10723W        W26907  15.964  16.347  13.497  0.4983  0.3342  0.2093
10724W        W26908   5.069  11.186  12.435 -0.3359 -0.1813  0.0336
10725W        W26909  15.100  13.082   1.386 -0.1695 -0.0058  0.0826
10726W        W26910  10.955  11.686   2.253 -0.2988  0.1800 -0.0312
10727W        W26911   5.208  16.071  10.776 -0.1852  0.3695  0.0337
10728W        W26912   6.801  18.538   2.087  0.1997 -0.1576 -0.0424
10729W        W26913   3.737  15.620   0.817  0.3459  0.0172  0.3668
10730W        W26914  14.926  13.228   2.338  0.1005  0.0431 -0.0122
10731W        W26915   2.407   6.178  15.459 -0.1462  0.1051  0.1371
10732W        W26916  15.555  16.616  12.497 -0.5016 -0.0611 -0.2538
10733W        W26917  18.761   5.914  13.473  0.1624 -0.1098  0.0215
10734W        W26918  13.425  13.894   1.115 -0.1350 -0.2288  0.1523
10735W        W26919  18.463   6.857   2.130  0.2136  0.0384  0.0119
10736W        W26920   7.256   6.403  12.858 -0.1766  0.2316  0.0774
10737W        W26921   2.147   5.589  11.440 -0.2623  0.1915 -0.0575
10738W        W26922  10.283   4.731   0.870  0.0731 -0.2439  0.0553
10739W        W26923  11.569  15.492  13.635 -0.1209  0.0422  0.2602
10740W        W26924  10.158   5.948  12.016  0.2598 -0.2211  0.1848
10741W        W26925  16.043   9.806   2.618 -0.1999  0.0169  0.3415
10742W        W26926   3.903   9.659   1.900  0.0195 -0.1076 -0.0958
10743W        W26927   5.880  12.781   3.060 -0.0372  0.0023 -0.1232
10744W        W26928   9.982  15.885   2.203  0.2382 -0.1524 -0.0507
10745W        W26929   0.747   1.777   0.553 -0.1734 -0.1264 -0.2033
10746W        W26930  12.214  16.462   0.831 -0.1852  0.0964 -0.1583
10747W        W26931   3.808  16.137   2.486 -0.2418  0.0051  0.1652
10748W        W26932   3.358   9.711   2.638  0.2669  0.0571 -0.1124
10749W        W26933   4.596  16.773   4.509 -0.0355  0.2150 -0.3197
10750W        W26934  17.601   0.359  10.735  0.0500 -0.0816 -0.1308
10751W        W26935  17.791   6.823  11.511 -0.1872  0.2135 -0.0760
10752W        W26936  11.294  18.344   5.788 -0.2381  0.1291 -0.1755
10753W        W26937   5.926  17.569   1.074  0.0750  0.2069 -0.0096
10754W        W26938   2.414  16.163  11.678  0.3149  0.3446 -0.2505
10755W        W26939  12.011  17.574  12.905 -0.1706 -0.0248 -0.1057
10756W        W26940   5.743   2.556   5.743 -0.0047 -0.2645 -0.1225
10757W        W26941  13.605  15.511   0.416 -0.2803  0.2120  0.1935
10758W        W26942  17.837   0.301   2.333 -0.0648  0.0282  0.0235
10759W        W26943  14.649  12.161  14.576  0.0884 -0.3038  0.0520
10760W        W26944   7.560  11.987  11.040 -0.2639 -0.0650 -0.1299
10761W        W26945   6.946  18.488  13.289 -0.2923  0.1060  0.1219
10762W        W26946   2.096  14.214   3.941 -0.0989 -0.1462 -0.0164
10763W        W26947   8.824   5.536  13.203  0.2374 -0.3316 -0.2023
10764W        W26948   1.648  15.287   2.390 -0.2345 -0.3580 -0.2398
10765W        W26949   2.178  18.706   2.494  0.0931  0.0320  0.1944
10766W        W26950   9.577   3.001   2.849 -0.0824 -0.0293  0.3432
10767W        W26951   2.069  12.434  11.456 -0.1021  0.0596  0.0208
10768W        W26952  14.164  10.059  12.849 -0.1300  0.0509 -0.0347
10769W        W26953   4.090   9.626  12.424  0.1225  0.1059 -0.2181
10770W        W26954   3.471  12.241   2.950  0.2680  0.0793 -0.0065
10771W        W26955  16.634  10.643  10.786 -0.2257 -0.0773 -0.0252
10772W        W26956   8.780  15.195   0.955  0.1628  0.1110 -0.0390
10773W        W26957   3.439   2.996   1.267  0.0296  0.0706 -0.0180
10774W        W26958   2.430   0.036   0.981  0.0133  0.1772  0.4187
10775W        W26959   3.093   3.351   1.505 -0.0951 -0.1531 -0.0504
10776W        W26960   1.084  15.979  14.683 -0.2381  0.0217 -0.0295
10777W        W26961   6.075  13.602  14.572  0.0202  0.4735  0.4682
10778W        W26962  18.606  18.087   4.562 -0.2727 -0.2431 -0.0724
10779W        W26963   4.993  15.164   3.718  0.3139  0.0809 -0.0758
10780W        W26964   0.190  15.214   2.568  0.2219 -0.4359  0.0718
10781W        W26965  13.325   7.287   3.327  0.0345 -0.2988  0.2463
10782W        W26966  13.597   2.518  12.028 -0.1265 -0.0989  0.0067
10783W        W26967  17.382  11.737   4.560  0.1264  0.1177 -0.1031
10784W        W26968  12.009  14.825  12.915 -0.0272 -0.1423 -0.0282
10785W        W26969  15.615   6.949  12.885 -0.3468 -0.1269  0.0150
10786W        W26970   2.583   5.261   4.344 -0.0632 -0.1536 -0.1852
10787W        W26971   2.053   3.659   3.077 -0.2643 -0.0582 -0.1607
10788W        W26972  18.177   3.712  13.936  0.0010  0.5436 -0.3574
10789W        W26973  16.408  16.397  13.114 -0.0784  0.0679  0.0217
10790W        W26974   4.379  16.859  14.237  0.0339  0.0406  0.0787
10791W        W26975   2.346  12.030  15.073  0.2251  0.0751 -0.1551
10792W        W26976  14.621   8.275   5.674  0.0788 -0.2569  0.1010
10793W        W26977   3.669   2.700   1.559 -0.0317  0.2310  0.0222
10794W        W26978  17.310   2.650   0.651  0.4905 -0.0531  0.2418
10795W        W26979   1.764   5.320  13.174  0.0795  0.2684  0.2299
10796W        W26980  11.563   4.958  15.161 -0.0871  0.1613  0.0506
10797W        W26981  18.509  12.443   4.645 -0.3559  0.1975 -0.1674
10798W        W26982  15.550   4.578  15.053 -0.0843  0.0077  0.0354
10799W        W26983   2.820   6.826  11.363 -0.0743  0.2134  0.2545
10800W        W26984  17.324   8.949  13.331 -0.1027 -0.0715  0.1746
10801W        W26985  17.781  15.618  13.932  0.1339  0.1384  0.3734
10802W        W26986   9.309   3.273   2.373 -0.0827 -0.0354  0.0759
10803W        W26987  18.450  13.844   0.341 -0.2748  0.0327 -0.1756
10804W        W26988   7.721  15.621   2.164  0.0545 -0.1896  0.0839
10805W        W26989  10.095  18.092   3.136 -0.1824 -0.0658 -0.0389
10806W        W26990   1.554   4.598  14.526 -0.4011  0.0276 -0.2405
10807W        W26991  13.241   7.516  10.975 -0.0753  0.0925 -0.0108
10808W        W26992  13.001   6.943   3.152 -0.1178  0.2495  0.2356
10809W        W26993  13.787  13.534   4.485  0.0790  0.1477 -0.1902
10810W        W26994  13.740  13.982  13.597  0.2167 -0.0983  0.1188
10811W        W26995   7.388   3.339   5.049 -0.1826 -0.1309  0.0344
10812W        W26996   0.808  12.666  12.006  0.1820  0.1144 -0.2424
10813W        W26997   9.255  10.086   4.611  0.1478 -0.2943 -0.0575
10814W        W26998  16.660   9.724  13.455  0.0155  0.0671  0.3834
10815W        W26999  11.941   6.595  13.635  0.1093  0.0498 -0.3311
10816W        W27000   9.813   3.577  14.290  0.1859  0.0529 -0.1174
10817W        W27001  13.313  17.459   0.936  0.1165  0.0819  0.1258
10818W        W27002  11.347   8.609   4.264  0.2894  0.3536  0.2247
10819W        W27003  11.205   6.884  11.874  0.1456  0.1662 -0.0907
10820W        W27004  16.393  10.508   1.833 -0.2985  0.0395  0.0227
10821W        W27005   1.643  18.438  11.699  0.0697  0.1686  0.0274
10822W        W27006   7.791   2.716   2.706  0.1995  0.0893 -0.1170
10823W        W27007  12.901  16.457  11.857  0.2479  0.1185  0.1252
10824W        W27008   5.505   2.896  12.988 -0.1410 -0.2327 -0.0993
10825W        W27009  18.534   9.694   2.498 -0.0323  0.1837 -0.1267
10826W        W27010   4.966  18.174   3.874 -0.1785  0.1743 -0.0538
10827W        W27011   9.022   3.518  15.083 -0.0699 -0.3019  0.1764
10828W        W27012   2.110  18.780   1.500 -0.0508  0.0282 -0.0084
10829W        W27013   1.550   4.109   4.053 -0.0747  0.3647 -0.0336
10830W        W27014   2.696  12.125  10.837 -0.1130 -0.1844  0.1689
10831W        W27015   3.657  11.145  11.123 -0.2366 -0.0899  0.1497
10832W        W27016   4.542   9.560   0.642 -0.4228  0.2092  0.1447
10833W        W27017   0.405  13.287   3.997  0.2895  0.0970 -0.1128
10834W        W27018   8.373  11.539  13.327  0.0180  0.0499  0.2740
10835W        W27019  13.703   9.867  15.388 -0.1346 -0.1166  0.0592
10836W        W27020   1.781   1.917   4.822  0.0574  0.1515  0.0497
10837W        W27021  11.138   4.219   4.940 -0.0206 -0.0317 -0.1206
10838W        W27022  12.447  14.837  11.435  0.0658 -0.1533  0.0543
10839W        W27023  13.116  15.144   5.611 -0.1613 -0.2978 -0.1822
10840W        W27024  17.097  10.522  10.676 -0.1986 -0.0062  0.0337
10841W        W27025  12.266   5.649  14.205 -0.0696 -0.1224 -0.1082
10842W        W27026   6.580   8.023   3.684  0.0266  0.1714  0.0901
10843W        W27027   2.266  10.417   5.035  0.0450  0.0294 -0.0610
10844W        W27028   3.736   4.999   3.262  0.0655 -0.0146 -0.1053
10845W        W27029   8.522  11.909   1.122  0.0168  0.1490  0.0184
10846W        W27030  16.094  11.422   1.771 -0.2106 -0.0099  0.1016
10847W        W27031  11.954  13.289   2.812  0.0493  0.1846  0.1395
10848W        W27032   3.654   0.999   1.552  0.2489  0.2051 -0.0726
10849W        W27033  16.159  14.621  11.999 -0.0205 -0.0832  0.1014
10850W        W27034  13.063  12.447   2.871 -0.1459 -0.0145 -0.0033
10851W        W27035   4.862  15.292   5.392 -0.2568  0.1606  0.0347
10852W        W27036  12.514   2.761  11.358  0.2307 -0.2991  0.2811
10853W        W27037  11.278  11.059   1.480  0.1642 -0.2302  0.1415
10854W        W27038  15.302  17.143  12.775  0.0210  0.0196  0.0879
10855W        W27039   2.856  17.882   0.740  0.1510  0.0973  0.0867
10856W        W27040   8.287  17.990   1.487  0.3764 -0.2743 -0.1401
10857W        W27041   7.252   1.367   1.794  0.2708 -0.3683 -0.2579
10858W        W27042   0.476   0.090   0.848  0.0060 -0.0487 -0.0488
10859W        W27043   0.529   7.625   4.593 -0.0891  0.2322  0.1071
10860W        W27044  13.570  16.919  11.861 -0.0794  0.0914  0.1379
10861W        W27045   1.995   1.280  11.469 -0.3106 -0.0588 -0.3125
10862W        W27046   4.999   5.351   2.906  0.1415 -0.1729  0.5289
10863W        W27047   7.218   3.014   4.275 -0.1217  0.1377 -0.0215
10864W        W27048  17.359  10.325  12.933  0.0347  0.0160 -0.1006
10865W        W27049   6.489   4.240  11.569 -0.0490 -0.0680  0.3037
10866W        W27050  18.427  15.038  13.929  0.0844 -0.3111 -0.1843
10867W        W27051  13.829  14.237   0.295 -0.3584  0.1165  0.0109
10868W        W27052   4.858  10.133   1.798 -0.2177  0.0981  0.3061
10869W        W27053   5.595   4.086  11.445 -0.1715  0.2548 -0.0058
10870W        W27054  14.826   7.263   2.892 -0.2024  0.0421 -0.3403
10871W        W27055   7.947   1.672   3.422  0.3054  0.2501 -0.0887
10872W        W27056  11.198   0.236   1.761  0.3352 -0.0758  0.1422
10873W        W27057  14.041   6.498  12.863  0.3327 -0.3280 -0.0567
10874W        W27058   6.211  14.081   5.494  0.1250 -0.2552  0.1590
10875W        W27059  13.178   0.579  10.791  0.0542  0.0262 -0.1363
10876W        W27060   1.587   2.685  13.569  0.3746  0.1655 -0.0336
10877W        W27061   8.225   3.341  13.511  0.1154  0.0821  0.0172
10878W        W27062   3.642   3.254   2.197  0.2380  0.2464  0.3973
10879W        W27063   7.914   1.444  13.344 -0.0540 -0.3510  0.1480
10880W        W27064  11.762   9.023  15.519  0.3338 -0.1123  0.1947
10881W        W27065   0.235   3.334   0.341 -0.0195 -0.2262 -0.0529
10882W        W27066   3.015  11.979  12.787 -0.0744  0.0474  0.1314
10883W        W27067   8.842   3.165  12.983  0.0385 -0.2315  0.0690
10884W        W27068  10.614   4.826  13.328  0.1023 -0.0716 -0.0918
10885W        W27069  18.140   2.422   3.333  0.0745 -0.4224  0.1339
10886W        W27070  16.296  18.616  13.477 -0.0473 -0.2278  0.0258
10887W        W27071   2.333   9.170  11.995 -0.1734  0.2989  0.0376
10888W        W27072  13.498  13.277  14.524  0.0006 -0.1117  0.2212
10889W        W27073   4.659  12.806  14.163 -0.0588  0.0991 -0.0680
10890W        W27074  12.256   9.593  10.847  0.1445  0.0200  0.3026
10891W        W27075  12.418   2.562   3.554  0.0423  0.1080 -0.1298
10892W        W27076   7.193  18.620   5.639  0.2317 -0.1430 -0.2630
10893W        W27077   9.717   7.124   3.962  0.0680 -0.1941  0.2465
10894W        W27078  11.489   7.786   0.548 -0.0098 -0.3130 -0.2695
10895W        W27079  18.822  11.569  12.374  0.3009 -0.0843  0.2962
10896W        W27080   9.466  11.355  14.781 -0.0989  0.1508 -0.1670
10897W        W27081  14.575  17.176   5.163 -0.0993  0.1336 -0.1591
10898W        W27082   4.199   5.439   2.926  0.1435  0.0054 -0.1834
10899W        W27083   0.403  13.472  12.168 -0.1123 -0.1635 -0.2474
10900W        W27084   2.524   6.534   4.914  0.1754 -0.0241  0.0916
10901W        W27085  18.011   5.616   0.325  0.1024  0.0461  0.1112
10902W        W27086   8.303   2.940  11.049 -0.0347  0.0417 -0.2757
10903W        W27087  14.671  18.093   4.894  0.4145 -0.2952 -0.2311
10904W        W27088   3.565  11.439   3.596 -0.1100 -0.1395  0.1057
10905W        W27089  17.586  18.336  15.250  0.3155  0.1365  0.0914
10906W        W27090   7.057   6.651   4.382 -0.1621 -0.0168 -0.1205
10907W        W27091  18.500   0.377  12.825  0.0687  0.3346 -0.0531
10908W        W27092  11.499  11.490  14.335 -0.3474  0.4833  0.1833
10909W        W27093   3.264   5.337   4.927 -0.1155 -0.0752  0.0232
10910W        W27094  15.192   2.122   4.175 -0.0940  0.3509 -0.1693
10911W        W27095   4.576   1.807  12.542 -0.1806 -0.0351  0.1890
10912W        W27096  14.357  16.617  14.019  0.0231 -0.1554  0.2035
10913W        W27097  11.378   3.683   4.046  0.1038  0.1330  0.0092
10914W        W27098  15.989  11.409  13.879 -0.0005  0.3162  0.1689
10915W        W27099   1.700  18.697   2.743 -0.0567  0.1338 -0.1355
10916W        W27100  16.440  17.645   2.351  0.1707 -0.0510 -0.1556
10917W        W27101  16.898  18.025   1.733 -0.1234  0.1177  0.0413
10918W        W27102  15.544   5.082   1.310  0.1745  0.0886 -0.0299
10919W        W27103  16.522  13.103  12.127 -0.2596  0.0573 -0.1254
10920W        W27104   7.881  15.438  12.672  0.1261  0.0425 -0.0683
10921W        W27105   4.343   0.933   0.032  0.1429 -0.1695  0.1030
10922W        W27106   1.899   0.881  13.993 -0.3709  0.0750  0.1080
10923W        W27107  17.938   4.321  11.520 -0.2022  0.2435  0.0156
10924W        W27108   8.470   5.222   3.174  0.1080 -0.5049  0.0762
10925W        W27109   8.786  15.733   0.670  0.1106 -0.1051 -0.1066
10926W        W27110   5.666  15.123   4.749  0.5365  0.0802  0.1553
10927W        W27111  12.413   3.942  14.293 -0.1111 -0.1904  0.1751
10928W        W27112   0.302   5.895   3.543  0.1957  0.0772  0.2025
10929W        W27113  16.951   0.640  11.511 -0.3066 -0.1111 -0.0677
10930W        W27114   6.050  17.150   3.339 -0.2643 -0.2767 -0.0745
10931W        W27115  10.601  11.824   3.503 -0.0256  0.1367 -0.3477
10932W        W27116  16.160   7.408  11.034  0.0937 -0.0380 -0.1291
10933W        W27117  12.598   7.596   2.121 -0.2751 -0.0150 -0.0683
10934W        W27118  14.095  14.755  15.492 -0.0228  0.0747  0.0033
10935W        W27119  10.374  15.780   0.350  0.0208  0.1489 -0.0020
10936W        W27120   7.237  13.280   4.248  0.4187 -0.0654 -0.1058
10937W        W27121  13.619   7.262   4.814 -0.0729  0.1208 -0.3862
10938W        W27122  14.679   7.340  11.105  0.1376 -0.1446  0.0942
10939W        W27123   4.362   7.729  12.406  0.0747 -0.0397 -0.2309
10940W        W27124  10.246   4.369  13.171 -0.0083 -0.0236 -0.2244
10941W        W27125   1.373   5.340  15.255 -0.1082  0.1540  0.1006
10942W        W27126  11.883   1.349  15.184 -0.0585 -0.0031  0.2807
10943W        W27127  18.254  16.298   1.071  0.0561  0.2847  0.0106
10944W        W27128  12.413   7.762   4.250 -0.2795  0.0408 -0.0114
10945W        W27129   4.353  13.356  13.429 -0.0136  0.0528 -0.1486
10946W        W27130   0.406  10.199   5.088 -0.0882  0.0436 -0.0019
10947W        W27131  16.219  13.277  13.438  0.0802  0.1038 -0.0106
10948W        W27132  17.864  10.423   0.172  0.0602 -0.3352 -0.0420
10949W        W27133   4.262   6.677  13.371  0.2093  0.1700 -0.0563
10950W        W27134  16.695   8.272  14.293  0.2717  0.3358  0.1961
10951W        W27135  15.532   2.915  15.298  0.1285  0.1750 -0.1064
10952W        W27136   1.242  18.522  14.908 -0.1788 -0.0655  0.0124
10953W        W27137  11.752   9.614  11.139 -0.1623  0.2807  0.2993
10954W        W27138   0.730   7.203   4.691 -0.1802 -0.2966  0.1563
10955W        W27139   8.066   5.214  13.851 -0.0224 -0.3345  0.1072
10956W        W27140  11.671   8.016  10.411 -0.1078  0.3381 -0.3115
10957W        W27141   4.026  14.252   1.340  0.0119  0.1824 -0.1484
10958W        W27142  17.909  12.837   1.640  0.4123 -0.0813  0.2675
10959W        W27143  14.679  12.020  12.172  0.1180 -0.2722 -0.1923
10960W        W27144  12.365   9.830   4.070 -0.1578 -0.4393 -0.1335
10961W        W27145  10.274   6.622   9.546 -0.0178 -0.2157 -0.3666
10962W        W27146   6.464  18.752   3.810 -0.1639 -0.0640 -0.0052
10963W        W27147   1.840  11.506  13.086  0.0925  0.4760  0.1293
10964W        W27148  10.999  10.715  12.695  0.1107 -0.3158  0.2295
10965W        W27149   5.874  13.076  14.915  0.0155 -0.1824  0.0983
10966W        W27150  12.731  11.169  11.406  0.0809 -0.1142 -0.0667
10967W        W27151   0.438  17.181  12.260 -0.0038  0.0636 -0.0984
10968W        W27152  13.420   3.492   3.600  0.0207 -0.0103 -0.0900
10969W        W27153  11.185  10.181   1.153  0.2774 -0.0475  0.0829
10970W        W27154  15.413  16.307   5.078 -0.4841 -0.1095  0.2102
10971W        W27155   5.195   9.818  13.640  0.0970 -0.0670  0.3648
10972W        W27156   0.615   4.613   4.397 -0.1045 -0.0313  0.0459
10973W        W27157   4.862  16.693   2.531  0.0890  0.2601  0.1187
10974W        W27158   2.159  12.185  10.851  0.1677 -0.0907 -0.1528
10975W        W27159  11.065  16.742  15.051  0.0071 -0.0205  0.1218
10976W        W27160  13.743  15.999  15.011 -0.0892 -0.2304 -0.2063
10977W        W27161   6.293   1.912  11.107 -0.1806  0.3244  0.2513
10978W        W27162   1.890  15.978   1.278  0.0962 -0.1754 -0.1199
10979W        W27163   6.204  11.272  13.145  0.0239  0.0011  0.1102
10980W        W27164  13.687   9.749  14.383 -0.0917 -0.0381  0.3184
10981W        W27165  14.963   6.665  12.671 -0.2186 -0.1975 -0.3641
10982W        W27166   4.163   0.378  13.046 -0.0274  0.0971  0.2057
10983W        W27167  16.560   6.873   5.637 -0.1879 -0.0271 -0.1241
10984W        W27168   4.832  17.793   2.575  0.1822  0.6533 -0.1723
10985W        W27169   9.696  10.679   3.121  0.0087  0.1900  0.1638
10986W        W27170   1.000  11.868   2.564 -0.0570  0.1373 -0.0524
10987W        W27171  16.140  10.336  13.559  0.3186  0.1082 -0.1171
10988W        W27172  12.123   3.088   4.920  0.2409  0.0600  0.2096
10989W        W27173   6.687   2.293   0.370  0.3147 -0.0445  0.0261
10990W        W27174   0.615   6.811  11.238  0.2639  0.0686  0.0511
10991W        W27175   0.887  11.979  14.932  0.2071 -0.3612  0.0462
10992W        W27176   2.802  10.630  14.913 -0.2348  0.0323 -0.1567
10993W        W27177   7.613   9.866   1.235 -0.0675  0.0377  0.2245
10994W        W27178   4.000  12.339  10.619 -0.1779  0.0674 -0.3129
10995W        W27179   5.313   4.933  14.453 -0.0976  0.1605  0.3476
10996W        W27180  14.529   4.736   4.047 -0.2526  0.0232  0.1386
10997W        W27181  11.240  12.912  14.186 -0.2618  0.1390  0.3214
10998W        W27182   3.746   4.796  10.974  0.4608 -0.2701 -0.2063
10999W        W27183   3.122  13.919  10.404 -0.0383 -0.4039 -0.0054
11000W        W27184   2.979  17.765   2.305  0.2195  0.2175  0.4088
11001W        W27185   0.482   3.810   2.505 -0.0090 -0.0425  0.1007
11002W        W27186   0.305  15.965  12.260 -0.1716 -0.1031  0.0977
11003W        W27187   7.571  16.488   2.941 -0.1710  0.0471  0.0157
11004W        W27188  10.755   9.925   5.473 -0.2747  0.1202  0.0237
11005W        W27189  10.559   9.681  11.857  0.0384 -0.1107 -0.1547
11006W        W27190   3.180  18.486   4.357  0.1056  0.0938  0.2715
11007W        W27191   3.923   4.526   1.592  0.3979  0.2015 -0.2480
11008W        W27192  10.695  12.611   4.624 -0.0379 -0.1801 -0.0438
11009W        W27193   1.297  16.721  12.187 -0.1148 -0.2431  0.0102
11010W        W27194  11.243  14.212  14.848  0.5280 -0.2053  0.0087
11011W        W27195  16.066   6.485   0.021  0.1687 -0.1415 -0.1778
11012W        W27196   7.836  14.045  12.681 -0.3378 -0.1575 -0.0721
11013W        W27197  11.668   5.472   5.390 -0.1082 -0.0647 -0.0166
11014W        W27198   9.472   6.366   4.690  0.2740 -0.0206 -0.0041
11015W        W27199   0.540  15.990   6.019 -0.1929 -0.2472 -0.1088
11016W        W27200   9.034  10.218  12.400  0.0283  0.3773 -0.0327
11017W        W27201   2.160  15.789  14.622 -0.1635 -0.0637 -0.2104
11018W        W27202  17.781   8.907  11.362  0.1238 -0.0684  0.0114
11019W        W27203  14.594  15.351   0.977  0.1498  0.2124  0.1359
11020W        W27204  14.337   1.766  15.351  0.0318  0.0608  0.2767
11021W        W27205   7.772  14.566   1.664 -0.1488  0.0636  0.1586
11022W        W27206  18.756   8.437  11.831  0.2087  0.0248  0.1246
11023W        W27207  18.786   7.847   5.493 -0.1855 -0.0677 -0.2121
11024W        W27208   8.221  10.446  15.048  0.1001  0.1040 -0.0960
11025W        W27209   3.557   7.079   4.229  0.2288 -0.0761 -0.0511
11026W        W27210  18.356   5.393  14.120 -0.1239 -0.1182  0.1152
11027W        W27211  13.825   1.752   5.921 -0.0853 -0.1021  0.0511
11028W        W27212  11.447  14.911   1.293  0.0403 -0.3535  0.2762
11029W        W27213  14.561  17.101  11.582  0.2252  0.0406 -0.1021
11030W        W27214  14.186   8.978   3.867 -0.1538  0.0296  0.0750
11031W        W27215  14.838   8.314  13.555  0.0123 -0.0407  0.2073
11032W        W27216  10.107  16.058  14.490  0.3218 -0.0727 -0.1372
11033W        W27217   5.365   2.937   1.407  0.3152  0.1272  0.0341
11034W        W27218  13.618  13.742   3.352 -0.1076 -0.1299  0.1254
11035W        W27219   9.406   2.771  14.058  0.1515  0.0337  0.0824
11036W        W27220  11.107   9.881  10.738 -0.1961  0.0436  0.2605
11037W        W27221  18.012  15.681  11.893  0.1531  0.1462 -0.2340
11038W        W27222   5.759  15.000  12.716 -0.2781 -0.1660  0.2610
11039W        W27223  14.514  13.344  11.149  0.1392  0.0288 -0.0039
11040W        W27224   2.956   7.649   2.900 -0.1258  0.1295 -0.1463
11041W        W27225   0.349  15.683   3.460 -0.3182  0.3127 -0.1103
11042W        W27226  15.919  11.380  11.473  0.1216 -0.1000  0.0852
11043W        W27227   2.191  16.059  13.029 -0.0270  0.2205 -0.1591
11044W        W27228  15.554   2.250  13.363 -0.1389 -0.3850  0.2573
11045W        W27229   3.152  10.105   4.755  0.0191  0.1557  0.0624
11046W        W27230   6.807  11.080   2.922 -0.0112  0.0134 -0.0366
11047W        W27231  15.453   9.996   0.735  0.0027 -0.0102  0.0258
11048W        W27232   8.378  16.404   1.758 -0.1570  0.0516 -0.2086
11049W        W27233   2.919   6.498  12.454  0.1434  0.0834  0.2343
11050W        W27234  15.297   6.613   1.704  0.1441  0.0114 -0.1359
11051W        W27235  11.257   2.439  10.029 -0.0306 -0.1148 -0.0073
11052W        W27236  10.345  17.886  12.889 -0.0182 -0.2084 -0.0463
11053W        W27237  14.208   1.601   4.642  0.1888 -0.0143 -0.1176
11054W        W27238   4.060  16.281   3.201  0.0938  0.3098  0.3257
11055W        W27239   5.111   3.880   0.258  0.0687 -0.0314 -0.3235
11056W        W27240  12.275  11.671  14.204  0.0726  0.0695  0.1611
11057W        W27241  16.215   6.963   1.782  0.2837 -0.1410  0.1331
11058W        W27242  10.500  12.319  11.998 -0.2391 -0.0473  0.1905
11059W        W27243  10.007  12.321   3.247 -0.1755  0.1192  0.3237
11060W        W27244  11.227   2.242  15.170  0.0525 -0.2658 -0.0624
11061W        W27245  15.327  12.857  14.889  0.1189 -0.3459 -0.0729
11062W        W27246   4.253  15.768   0.127  0.3172  0.2122 -0.0426
11063W        W27247  14.537   2.525  10.820  0.2393  0.0223 -0.1262
11064W        W27248  10.529  18.674   3.232  0.0187  0.2750 -0.0990
11065W        W27249  13.136   7.152   1.233 -0.3582  0.2747  0.1409
11066W        W27250   0.141  12.094  13.038 -0.0383 -0.3515 -0.3574
11067W        W27251   6.581   4.140   1.505  0.1581 -0.0715  0.3793
11068W        W27252   4.565   5.186   2.637  0.2828  0.0370 -0.1612
11069W        W27253   7.645   8.671   4.081 -0.2025  0.1541  0.2229
11070W        W27254   1.303   3.224   5.364 -0.0424 -0.1520 -0.3346
11071W        W27255  16.556   4.655  15.409  0.1387 -0.1459  0.1055
11072W        W27256   2.176   2.352  14.481 -0.2536 -0.1837  0.2277
11073W        W27257  16.402   2.725   2.831  0.1454 -0.2082  0.1471
11074W        W27258  13.846   7.247   1.921 -0.2418  0.1564 -0.1043
11075W        W27259   9.950  14.507  11.514  0.1106  0.1355  0.2143
11076W        W27260   9.059   9.321  10.322 -0.1581 -0.2421 -0.1007
11077W        W27261   0.884   2.717  15.514 -0.1407 -0.0128  0.0558
11078W        W27262   7.975   5.003   2.043  0.0598  0.0565 -0.3205
11079W        W27263  12.807  16.677  12.349  0.1253  0.2101 -0.0212
11080W        W27264   1.654   9.398  15.210 -0.0786 -0.0138  0.0087
11081W        W27265   7.582   3.854  14.516  0.2975  0.1961 -0.1566
11082W        W27266   1.518   2.001   2.457 -0.2160 -0.0554 -0.1194
11083W        W27267   3.215  12.478  11.824  0.1948 -0.0771  0.0414
11084W        W27268   8.229   4.320  13.263  0.3669 -0.0973 -0.3757
11085W        W27269  14.731  17.119  14.682 -0.0639 -0.1133  0.2229
11086W        W27270   2.013  15.446   2.725 -0.0724 -0.0955  0.0738
11087W        W27271   5.919   2.034  11.458  0.0031  0.3164  0.1004
11088W        W27272   8.300   0.910   0.704 -0.1799 -0.1818  0.0954
11089W        W27273   5.710   9.022   3.919  0.0203 -0.0071  0.1935
11090W        W27274  17.793   7.763   1.208 -0.1173 -0.4710  0.1257
11091W        W27275  12.718  16.660  14.056 -0.1764 -0.2422 -0.3279
11092W        W27276   7.769  14.699  13.154 -0.1218 -0.3983 -0.0576
11093W        W27277   2.967  15.603   4.183 -0.2312 -0.1265 -0.0777
11094W        W27278   5.178   6.343  15.171 -0.2013  0.1030 -0.3512
11095W        W27279   3.560   9.350   0.931  0.0779  0.4216 -0.1825
11096W        W27280  14.075   9.553   3.854 -0.0358 -0.2994 -0.2268
11097W        W27281  14.182  17.596   0.622  0.2347 -0.1171  0.0666
11098W        W27282   2.587   9.660  10.704 -0.0699 -0.0236 -0.1980
11099W        W27283   9.402   3.998  13.443  0.1014 -0.0762  0.3809
11100W        W27284  18.511  18.070   5.521  0.1333  0.0747  0.3590
11101W        W27285   5.811  18.124  12.798  0.0385 -0.0326  0.2268
11102W        W27286  18.523   6.385   1.479  0.2055 -0.0623 -0.3012
11103W        W27287   2.737  18.266   4.244  0.2576  0.3324 -0.1589
11104W        W27288   8.188   5.021  11.294  0.1294 -0.0804 -0.0909
11105W        W27289   7.295   7.034   4.984  0.1624  0.0760 -0.3327
11106W        W27290   4.125   7.749  13.388 -0.2192  0.0301 -0.1347
11107W        W27291   0.220   3.844  12.561 -0.2532  0.0437  0.0329
11108W        W27292   6.206   6.126  15.454  0.3464  0.0636  0.1348
11109W        W27293   8.712  13.835   4.291 -0.0313 -0.1244  0.0833
11110W        W27294  12.748   7.528  12.253  0.0316  0.1705  0.0267
11111W        W27295   3.477  14.522  13.753 -0.1907 -0.0786 -0.0320
11112W        W27296   9.602   9.416  12.082 -0.0949 -0.0061  0.1264
11113W        W27297  16.919   1.259  13.953  0.0797 -0.1413  0.0210
11114W        W27298   7.552   9.375   1.300  0.4133  0.0243 -0.1815
11115W        W27299   4.188   5.455   3.942 -0.0815 -0.4295  0.1369
11116W        W27300   1.166  13.501   0.446 -0.1003 -0.0677  0.0560
11117W        W27301  16.076   7.532  14.417 -0.1255  0.0389  0.1119
11118W        W27302   5.289  12.109  11.894 -0.0303  0.0784 -0.1890
11119W        W27303  15.049  13.196   1.881 -0.2502  0.2397  0.0887
11120W        W27304  15.140   8.987  11.397  0.0624 -0.0689 -0.2091
11121W        W27305  11.438   9.078   1.853  0.0004  0.0959 -0.0259
11122W        W27306  18.529   9.354   5.648  0.3240  0.1337 -0.1063
11123W        W27307  12.133   5.108   5.456 -0.1048 -0.0898  0.3176
11124W        W27308  14.279  10.313  15.322 -0.2038  0.4551  0.0159
11125W        W27309  16.187  10.846  15.476 -0.0326 -0.1574 -0.1603
11126W        W27310  12.417   0.104   0.438  0.4602  0.3231 -0.1684
11127W        W27311   4.250   7.525   4.462 -0.0342  0.0065 -0.1582
11128W        W27312  16.744   0.094   4.093  0.0169  0.3756 -0.2526
11129W        W27313   8.390  10.091   4.192  0.1188 -0.3311  0.0695
11130W        W27314  12.664  15.544  14.403  0.0729  0.3494  0.0659
11131W        W27315   7.546   5.082  14.128  0.3655 -0.0142 -0.2443
11132W        W27316  10.801   9.747   2.332  0.0223 -0.0072 -0.2744
11133W        W27317  15.323  13.341   0.614  0.2291 -0.1116 -0.0860
11134W        W27318   6.118   9.220   4.056 -0.0329 -0.2094 -0.1036
11135W        W27319  15.702   0.088   5.198  0.0474  0.2166  0.0320
11136W        W27320   4.363  15.709  14.334 -0.0712  0.2286  0.0978
11137W        W27321  15.275   2.669   4.068  0.0557 -0.1162 -0.1952
11138W        W27322   5.023   4.137   0.958 -0.0405 -0.1028  0.2244
11139W        W27323   2.804  11.663  12.066  0.1436 -0.0378  0.1063
11140W        W27324  16.152  11.978   2.591 -0.0909 -0.1556  0.2157
11141W        W27325   1.083   7.083  14.123  0.1552  0.4669 -0.1532
11142W        W27326  10.748   5.893  13.166 -0.0034 -0.2077 -0.0217
11143W        W27327  12.169   3.920  13.707 -0.1532 -0.1114 -0.3005
11144W        W27328  10.867   3.915  15.382 -0.1689  0.4704  0.0587
11145W        W27329  16.456  16.149  11.916 -0.2111  0.1297  0.0574
11146W        W27330   8.096   8.433  13.189 -0.1439 -0.0052 -0.0290
11147W        W27331   7.396  11.207   2.936  0.1307  0.1845 -0.3245
11148W        W27332   0.157  17.098   9.808 -0.1125 -0.1085 -0.0064
11149W        W27333   7.687   5.350   0.741  0.0674  0.0254 -0.1810
11150W        W27334  16.564   6.584  12.757  0.3187 -0.0487  0.2307
11151W        W27335  13.341  14.023   2.589  0.2174 -0.1914 -0.0430
11152W        W27336   6.558  18.548   4.388  0.3468 -0.0597 -0.0859
11153W        W27337  18.186   0.861  11.941  0.3165 -0.4304 -0.2170
11154W        W27338   0.961   1.306  12.531 -0.1151 -0.2813 -0.0586
11155W        W27339  18.797   7.001   0.051 -0.1095 -0.1696 -0.1493
11156W        W27340  14.667  13.612   2.505 -0.0764 -0.0330 -0.0174
11157W        W27341   9.362  17.425   4.420  0.0919  0.2641  0.1649
11158W        W27342   9.533  15.918   6.008  0.2964  0.0285  0.3052
11159W        W27343  12.682  17.810  15.318 -0.1494  0.3571  0.3684
11160W        W27344   4.691   1.913  13.088 -0.1025 -0.4206 -0.2352
11161W        W27345  17.239   4.042  10.645  0.2624  0.1694  0.1485
11162W        W27346   9.299  13.573  13.107  0.1864  0.3675  0.5857
11163W        W27347  16.802   1.434   4.772  0.3283  0.2415 -0.0288
11164W        W27348  18.098   9.712   0.278 -0.2062  0.1848 -0.1019
11165W        W27349   8.614   3.141  14.782  0.0585  0.1649  0.1231
11166W        W27350  13.799   9.484  10.744 -0.0773  0.0267  0.1068
11167W        W27351   6.392  16.415   1.952  0.1937  0.1341  0.4332
11168W        W27352   1.852  14.259  10.887 -0.1474  0.0809 -0.0001
11169W        W27353   8.368   6.449   1.905  0.0038 -0.2151 -0.1660
11170W        W27354  17.493   9.702  15.150 -0.1151  0.0578  0.0764
11171W        W27355   5.003   2.920   4.101  0.1517  0.1468  0.1201
11172W        W27356   2.941   5.611   1.521 -0.1564  0.0125 -0.1967
11173W        W27357   6.139  11.853  13.821  0.1637 -0.2099  0.1988
11174W        W27358  11.911  13.033  13.561 -0.1372 -0.1396 -0.0790
11175W        W27359   8.734   6.415  12.885 -0.0359  0.0520 -0.1908
11176W        W27360   8.212   5.570  10.418 -0.1275  0.3252  0.1733
11177W        W27361   3.902   9.508  11.259 -0.2955 -0.0964  0.1678
11178W        W27362  10.384   1.981  12.949 -0.2101 -0.1519  0.0917
11179W        W27363   5.800   0.151   1.698 -0.2506 -0.3278  0.1716
11180W        W27364   9.862  13.236  13.611 -0.0262  0.1239 -0.0434
11181W        W27365   3.284   7.904   9.995  0.2064 -0.3373 -0.2590
11182W        W27366   6.050   7.873   2.441 -0.0543  0.1443  0.0947
11183W        W27367   0.570   0.553   0.679  0.1128  0.0474 -0.2461
11184W        W27368   9.782   0.654  11.362  0.2256  0.1811 -0.1424
11185W        W27369  17.894   2.461   2.717 -0.1678 -0.1061  0.0406
11186W        W27370   5.075  12.429   0.103  0.2525  0.0825 -0.0514
11187W        W27371  11.803  18.129  11.433 -0.1461  0.2477 -0.1082
11188W        W27372   2.897  17.550   2.867  0.1043  0.0791  0.1611
11189W        W27373  13.809   8.519  12.729 -0.0940 -0.0865 -0.2695
11190W        W27374   2.972  17.370   4.852  0.2853  0.2762  0.0255
11191W        W27375  11.711  14.473  14.187 -0.1453  0.1892  0.0316
11192W        W27376  16.747   5.899   5.044 -0.1910  0.0925  0.1349
11193W        W27377  11.816  16.499  13.594 -0.0293 -0.1643 -0.2570
11194W        W27378  10.226  12.222   1.538  0.2044 -0.1622 -0.6527
11195W        W27379  13.306   3.368  14.363 -0.1113 -0.2634 -0.0092
11196W        W27380  12.748   8.785  13.235  0.0964  0.1400  0.3884
11197W        W27381   2.687  12.542   1.335  0.2102 -0.2354  0.3701
11198W        W27382  14.331   7.120  13.207 -0.0094 -0.1081 -0.0784
11199W        W27383  18.602   6.365   4.165  0.4575  0.0084  0.0250
11200W        W27384   0.171   5.658   4.822  0.4079 -0.1332  0.3537
11201W        W27385  10.910   8.389   4.138 -0.1509 -0.0755 -0.1695
11202W        W27386  13.450  13.765  14.110 -0.6738 -0.2310  0.2648
11203W        W27387   7.437  14.036   3.709  0.1193 -0.1746  0.4140
11204W        W27388   6.516  10.061  15.143 -0.0297 -0.1989 -0.1316
11205W        W27389   9.949  16.747   5.744 -0.1356  0.1681 -0.1240
11206W        W27390  18.854   8.910  13.641 -0.1458 -0.1653 -0.4706
11207W        W27391  12.144   9.091   2.742 -0.0054  0.1981  0.0909
11208W        W27392   4.327   8.085  11.304  0.0581 -0.0929 -0.1399
11209W        W27393  12.681   8.972   4.627 -0.1865 -0.2336 -0.0733
11210W        W27394   4.720  10.710  10.779 -0.1783  0.2679 -0.2096
11211W        W27395   1.289   4.898  10.731  0.2916  0.2734 -0.1768
11212W        W27396  10.825  18.210  11.836  0.1905  0.0402  0.1092
11213W        W27397   1.923   1.400   4.660 -0.0040 -0.0663 -0.4455
11214W        W27398  10.010  11.714  15.406 -0.0663  0.0946 -0.0508
11215W        W27399   7.667   2.386   3.650  0.0827  0.4239 -0.2438
11216W        W27400  14.242  15.388  14.760  0.1557  0.0721  0.0143
11217W        W27401   7.241   8.640  13.579  0.1044  0.3223 -0.0575
11218W        W27402  10.300  11.997   5.168  0.1366  0.1804 -0.2650
11219W        W27403   5.748   7.312   2.215 -0.0800  0.1315  0.0363
11220W        W27404  10.497   5.576  15.290  0.1594 -0.1608  0.2348
11221W        W27405   5.312  17.330  13.538  0.1192  0.2354 -0.1166
11222W        W27406   5.731   9.389  10.784 -0.0534 -0.1697 -0.2786
11223W        W27407   8.682  18.778   3.676 -0.3618 -0.0643 -0.1306
11224W        W27408   3.114   1.480  13.466  0.2405 -0.3017 -0.0660
11225W        W27409   8.754   9.312   4.027  0.0383  0.0582  0.1234
11226W        W27410  11.247  14.060  13.915 -0.0041  0.0160 -0.5032
11227W        W27411   9.216   8.779   2.774 -0.2801  0.0925  0.1157
11228W        W27412   6.346  14.556   4.575 -0.1207  0.1185 -0.1626
11229W        W27413   6.541   3.785  13.575  0.1807  0.2425 -0.2951
11230W        W27414   9.189   4.611   1.126  0.3198  0.1094  0.0237
11231W        W27415  13.392  11.641  12.386  0.0181  0.1852  0.2140
11232W        W27416  14.627  10.898   4.559  0.0764 -0.1354  0.0011
11233W        W27417  13.827   4.963  13.815  0.4326  0.0905 -0.0133
11234W        W27418  17.410  12.602   2.290 -0.1685 -0.3715 -0.1448
11235W        W27419  11.999  10.672   4.469 -0.0154  0.1059  0.3434
11236W        W27420  15.377   2.390   4.637  0.3651 -0.0239 -0.1489
11237W        W27421   4.029   0.697  15.271 -0.0011 -0.3425 -0.0476
11238W        W27422  15.193  13.211   2.785 -0.1356 -0.2537  0.4248
11239W        W27423   0.658   1.878  10.668  0.1973  0.0994  0.2360
11240W        W27424  13.528   8.440   1.765 -0.0903  0.2195  0.3951
11241W        W27425   1.490  13.232  11.719 -0.1178  0.2599 -0.0444
11242W        W27426  18.152  11.014   4.279  0.0082  0.2869  0.0512
11243W        W27427  13.829  15.074  14.754 -0.1077  0.1074 -0.1885
11244W        W27428   0.153  14.955  14.576  0.0844  0.0147 -0.0868
11245W        W27429   7.777  15.750   5.310 -0.1379 -0.1255  0.2766
11246W        W27430  15.630   3.608  12.892  0.1661 -0.3024  0.0947
11247W        W27431  14.002  13.700  14.011  0.0431  0.0488 -0.1027
11248W        W27432   5.281  11.729  15.074  0.0054  0.0098 -0.0091
11249W        W27433   6.159   2.743   2.020  0.1242 -0.0786 -0.1294
11250W        W27434  15.909  18.087  12.176  0.2396  0.0785 -0.2014
11251W        W27435   8.072  13.835  14.171  0.1401  0.0489  0.0957
11252W        W27436   4.477  16.788  11.810 -0.0536  0.4129 -0.0035
11253W        W27437  11.528  18.103  12.318  0.1228  0.1086  0.0320
11254W        W27438   7.427  14.896  15.109  0.0133 -0.2183  0.1260
11255W        W27439  15.705  10.485   1.920 -0.0527 -0.1262  0.1844
11256W        W27440   1.664  14.611   5.480 -0.3307 -0.1879  0.2204
11257W        W27441  13.433   2.609   2.826  0.0547 -0.2022 -0.1135
11258W        W27442  18.265   4.709   4.318  0.1204  0.0000 -0.0191
11259W        W27443   7.366   2.031  15.144  0.0178 -0.0356  0.1417
11260W        W27444   2.992  13.228  12.605 -0.3725  0.2684  0.0257
11261W        W27445  16.239   0.180   0.946 -0.0621 -0.3091 -0.2236
11262W        W27446  18.151   6.803  13.524 -0.0231 -0.4170  0.2391
11263W        W27447   9.616   2.539   4.804 -0.1177 -0.1728 -0.2197
11264W        W27448  15.651  11.539  14.248 -0.2159  0.1729 -0.1184
11265W        W27449  13.662  16.145   4.615 -0.4065 -0.1569  0.0922
11266W        W27450   9.894   1.091   4.816  0.1576 -0.0651 -0.0959
11267W        W27451  14.686   3.884  12.899 -0.0283 -0.3117  0.0693
11268W        W27452   4.487  15.338   3.740  0.0192  0.2232  0.0536
11269W        W27453  11.653   0.171   1.271 -0.3701  0.1531 -0.4262
11270W        W27454  16.058   4.364  11.206 -0.1921 -0.0266 -0.1070
11271W        W27455  16.523   7.984   5.674  0.0776 -0.1283 -0.3266
11272W        W27456   2.560   8.974  14.135  0.0596 -0.0401  0.2826
11273W        W27457  12.109  10.962  11.031 -0.4255 -0.0693  0.2731
11274W        W27458  18.673  10.090   5.192  0.0539 -0.0559 -0.2088
11275W        W27459  13.862  11.141   0.322  0.3964 -0.0653  0.0781
11276W        W27460  13.749   5.944   1.611  0.1557 -0.1802  0.1654
11277W        W27461   2.049  14.344   5.274 -0.0940  0.2963 -0.1036
11278W        W27462   2.094   8.651  12.507  0.2370  0.2717  0.0752
11279W        W27463  16.457  17.748  12.831  0.0201  0.0074  0.0137
11280W        W27464   2.821  15.856  11.957  0.1750 -0.0741 -0.0611
11281W        W27465   5.117   8.975   3.943 -0.1841  0.0521  0.0960
11282W        W27466  18.252   3.046  11.236  0.1707  0.2014 -0.2339
11283W        W27467  14.294  13.500   2.818  0.1797  0.0489 -0.3464
11284W        W27468   9.415  13.441  11.104 -0.1904 -0.0624  0.1587
11285W        W27469  16.148   4.892   3.957  0.2577  0.3373  0.0578
11286W        W27470   0.199   3.168   1.182 -0.2471  0.1522 -0.1216
11287W        W27471  15.667   9.505   5.602 -0.1142 -0.2775 -0.0242
11288W        W27472   0.737   4.321   3.936 -0.3825 -0.2669  0.0852
11289W        W27473  12.746  13.637   4.789 -0.0616 -0.0256 -0.1010
11290W        W27474  16.400  10.623   1.346  0.1438 -0.3378  0.2362
11291W        W27475   0.180  15.853  15.078 -0.1652 -0.1522  0.0388
11292W        W27476  11.176   1.424  13.778  0.2040 -0.3671 -0.0136
11293W        W27477   2.986  18.121  12.541  0.1713 -0.1359 -0.0830
11294W        W27478  18.281   8.488   4.777  0.1457  0.2919  0.0544
11295W        W27479   6.766  16.763   4.771  0.2232 -0.2266 -0.0259
11296W        W27480   9.031  12.252  14.964 -0.1467  0.0694 -0.2832
11297W        W27481   2.877  11.028  11.350 -0.1395 -0.1349 -0.1277
11298W        W27482   1.851   6.596  14.070  0.0506 -0.1996 -0.1388
11299W        W27483  13.728   7.946   4.187 -0.0182  0.0106 -0.1648
11300W        W27484  12.062   0.798   2.839 -0.3062 -0.1489 -0.0796
11301W        W27485  15.117  10.686  14.703 -0.0211 -0.2141 -0.1175
11302W        W27486   8.219  12.459  13.693  0.2724  0.1670 -0.0287
11303W        W27487   8.896   1.022   5.065  0.1670  0.1640  0.0243
11304W        W27488   7.534  12.403   1.331  0.3455  0.1463 -0.0488
11305W        W27489   7.978  11.700   0.189  0.0919 -0.0076  0.0707
11306W        W27490   9.319   6.776  11.295 -0.0004 -0.2091 -0.0334
11307W        W27491   7.059  10.150  12.765  0.0898 -0.1363  0.0877
11308W        W27492  13.853  15.111   3.838  0.0537  0.1266 -0.2248
11309W        W27493   7.798  15.285   4.508  0.1940 -0.2438 -0.0336
11310W        W27494  14.326   3.607   3.472  0.0645 -0.1671  0.2656
11311W        W27495   9.458   2.308   2.402  0.0695  0.3068 -0.1629
11312W        W27496  13.388   9.936  13.453  0.2897 -0.1787  0.2415
11313W        W27497   5.497  16.283  13.989 -0.1397 -0.0362  0.0827
11314W        W27498  16.909  17.333  12.235  0.0258  0.2547  0.1506
11315W        W27499   7.846   1.969   3.854  0.2644 -0.0286  0.0457
11316W        W27500  15.781  17.079   3.247 -0.1674  0.1821  0.0338
11317W        W27501   6.382  10.972  11.935  0.3467 -0.2624 -0.1768
11318W        W27502  18.519   5.584  13.066  0.0060  0.1366 -0.0072
11319W        W27503  16.804  10.869   1.948  0.1969  0.0219  0.0966
11320W        W27504   9.534   7.477   4.379  0.0246 -0.2102  0.1100
11321W        W27505   5.830  18.661   4.821  0.0808 -0.1055  0.1828
11322W        W27506  16.631   5.111   3.077 -0.2712 -0.2544 -0.3437
11323W        W27507   5.310  10.798  12.497  0.0108 -0.1934 -0.0119
11324W        W27508   5.653  13.985   4.848  0.0946  0.0323  0.0837
11325W        W27509  16.847   9.312  14.337 -0.1549 -0.0799 -0.3372
11326W        W27510   2.306  13.393   3.138  0.1209  0.0951 -0.0940
11327W        W27511  14.025  12.902   5.114  0.0635  0.2751 -0.1312
11328W        W27512  12.847   6.375  14.914 -0.1565 -0.0009 -0.0312
11329W        W27513  16.210   9.680   1.289 -0.0078 -0.1275 -0.2376
11330W        W27514   2.393  18.176   0.082  0.1135 -0.2244  0.3052
11331W        W27515  14.904  10.911   4.104  0.0305 -0.1630  0.0515
11332W        W27516   5.779  15.711   3.582 -0.1171 -0.0011 -0.1286
11333W        W27517   7.109  12.786   2.336  0.4582  0.2249  0.3568
11334W        W27518   6.300  15.940   0.210  0.4501  0.5962  0.0177
11335W        W27519  16.676   7.660  15.399  0.1353 -0.0226  0.0544
11336W        W27520   5.144   8.563   3.004  0.2598 -0.0133  0.1134
11337W        W27521   6.027   4.341  13.528 -0.0044 -0.0925 -0.2269
11338W        W27522   8.593   7.838   0.834 -0.1048  0.0885  0.2091
11339W        W27523   6.796  11.962   1.876  0.0006  0.1735 -0.2255
11340W        W27524  17.124   0.293  15.011 -0.1564 -0.3116 -0.3215
11341W        W27525  15.348  14.529  12.855 -0.0756 -0.0340  0.0999
11342W        W27526  13.852  16.688  13.786  0.1049 -0.1133 -0.0055
11343W        W27527   3.029  14.100  10.867 -0.3153 -0.1485 -0.1469
11344W        W27528  11.003   0.023  14.604  0.0768 -0.0350  0.1019
11345W        W27529   0.797   2.128  11.511  0.0310  0.0107  0.2705
11346W        W27530  15.174   6.624   2.524 -0.2946 -0.0058 -0.0448
11347W        W27531   0.115  14.468   0.702  0.2353 -0.1557  0.2197
11348W        W27532  18.742   3.523   2.362 -0.0786  0.0515  0.0207
11349W        W27533   3.552   1.881  15.084 -0.2103  0.1643  0.0490
11350W        W27534   0.127  11.908   1.576 -0.2015  0.0440  0.0116
11351W        W27535  12.785   8.171  14.955  0.0552 -0.0037  0.1684
11352W        W27536  14.045   6.732   1.799 -0.1723 -0.1416  0.0594
11353W        W27537   3.270  12.691  13.216 -0.0466 -0.0076  0.1157
11354W        W27538   3.728   3.230  15.107  0.0022  0.0655 -0.0840
11355W        W27539  17.523   1.229   4.291  0.1143  0.1642  0.1097
11356W        W27540   0.728   7.072  13.724  0.1180  0.1680 -0.0000
11357W        W27541   3.942  15.023   3.092  0.0960 -0.1679 -0.0399
11358W        W27542   7.790   1.745  11.937 -0.3794 -0.0859 -0.0904
11359W        W27543  16.186   1.482  12.374  0.0216 -0.1750 -0.3641
11360W        W27544   4.785  16.231  14.866 -0.2702  0.1774  0.0880
11361W        W27545   5.168  17.992   0.740  0.2103 -0.3347  0.3066
11362W        W27546   6.712  13.495  15.336  0.1242  0.1391  0.1907
11363W        W27547   2.046   2.724  14.750 -0.2013 -0.1733 -0.0637
11364W        W27548  17.539  12.959   0.204 -0.0164 -0.1704  0.0072
11365W        W27549  17.961  12.007  11.353  0.2225 -0.0737  0.0336
11366W        W27550   9.999   9.683  14.032  0.2733 -0.1647 -0.1327
11367W        W27551  10.261   6.799   4.624 -0.3538  0.0669 -0.1230
11368W        W27552   9.529   4.808   5.102  0.0814  0.2424 -0.4083
11369W        W27553   1.763   1.933   5.369  0.0605 -0.0503 -0.0260
11370W        W27554   0.136  11.160   4.805 -0.0969 -0.2444 -0.3678
11371W        W27555  15.499   6.233   2.647  0.1069  0.2906 -0.0958
11372W        W27556   1.804   7.267  12.738 -0.1505  0.0139 -0.0371
11373W        W27557   9.565   7.969   5.385  0.2661  0.1761 -0.3751
11374W        W27558   8.327  12.718   3.379  0.0341  0.2170 -0.0323
11375W        W27559   7.064   6.602  15.523  0.2041 -0.0546  0.1293
11376W        W27560  17.872   2.348   3.801 -0.1268 -0.1182  0.1291
11377W        W27561   6.074   0.076   4.427 -0.1435  0.0502 -0.1022
11378W        W27562  11.161  15.349   2.075 -0.1954 -0.1049 -0.0743
11379W        W27563   7.362   2.981  11.643 -0.0880 -0.1157 -0.0773
11380W        W27564   1.893  15.980  14.038  0.0359 -0.0452  0.1538
11381W        W27565  14.265  13.217   1.289  0.2297  0.1756  0.3079
11382W        W27566   8.121  14.445  12.935 -0.1745 -0.0857  0.0424
11383W        W27567  12.418   0.377  12.746  0.3513  0.2002  0.0202
11384W        W27568   6.302   6.349  12.614  0.0353 -0.0305  0.2608
11385W        W27569  15.015   2.247   1.360  0.3746 -0.1416 -0.0759
11386W        W27570  15.301   2.612   0.148 -0.1117  0.5113  0.2967
11387W        W27571  17.859   6.937  14.906  0.0019 -0.2392  0.0415
11388W        W27572   2.789  16.809  13.959 -0.0161 -0.2084  0.0309
11389W        W27573  11.635   9.809   4.250  0.1919  0.1133  0.2780
11390W        W27574   5.614  13.769   2.046  0.0092  0.1670  0.1743
11391W        W27575  17.107  15.723  12.372 -0.0046 -0.3832  0.1461
11392W        W27576  17.836   5.078   4.455 -0.3839  0.2227  0.0483
11393W        W27577  12.720  16.363  15.481  0.1386 -0.1391 -0.0200
11394W        W27578  16.065  11.269  12.375  0.1311 -0.0598  0.1585
11395W        W27579  10.244   5.863   4.985 -0.2108  0.1025 -0.0706
11396W        W27580   6.211  11.394  11.191 -0.0309  0.3704  0.2115
11397W        W27581  10.445   3.938   2.967  0.0777  0.0928 -0.1146
11398W        W27582  18.706   8.812   0.417 -0.1649 -0.0298 -0.3032
11399W        W27583   1.702   6.800  13.453  0.0650  0.0794 -0.0670
11400W        W27584  12.257  11.467   2.566 -0.0006  0.2092 -0.1915
11401W        W27585  16.578   8.024  10.422  0.0147  0.0970 -0.1574
11402W        W27586  17.921   0.715   0.655  0.5964  0.1803  0.1929
11403W        W27587  15.788  15.393  11.444  0.2595 -0.1287  0.2307
11404W        W27588  17.929   3.066  12.613 -0.0317  0.2281 -0.4223
11405W        W27589  14.204  12.092   0.314 -0.1196  0.3542  0.1383
11406W        W27590   3.643  11.817   2.722 -0.3051  0.2203 -0.1201
11407W        W27591  12.323   8.389   0.224  0.0989  0.2623 -0.4267
11408W        W27592   0.049  15.635   0.254 -0.0967  0.1856 -0.1323
11409W        W27593   9.342  16.581   4.509  0.0219 -0.1895 -0.0819
11410W        W27594  11.331   6.677  13.648 -0.0165 -0.0696  0.0815
11411W        W27595  10.342   1.190  11.401  0.1814 -0.1014  0.3469
11412W        W27596   3.709   3.325  13.149  0.3172 -0.1066  0.2318
11413W        W27597  12.173   7.771  13.299 -0.1475 -0.0779  0.2036
11414W        W27598   5.082  13.957   1.138 -0.0335 -0.2069  0.1659
11415W        W27599   8.381  11.949   0.617 -0.0127  0.1125 -0.0321
11416W        W27600  12.814   4.652   1.287  0.0101 -0.5122  0.0018
11417W        W27601  18.318   1.478   1.895  0.0132 -0.0295 -0.1122
11418W        W27602   9.895  15.006  13.636 -0.2694  0.0988 -0.0285
11419W        W27603   9.251  17.981  12.261 -0.0899 -0.0001 -0.1227
11420W        W27604   1.946   9.103  12.362 -0.1036  0.1593 -0.3529
11421W        W27605   6.974  16.942  13.244 -0.3086 -0.1262 -0.0381
11422W        W27606  14.305   6.026  14.320 -0.0152 -0.1218 -0.1668
11423W        W27607   0.655   6.696   3.157  0.0482  0.0198 -0.3346
11424W        W27608   1.279   0.426  12.934 -0.2307  0.0333  0.3106
11425W        W27609  12.211   0.543  13.542 -0.0661 -0.0209  0.0782
11426W        W27610   5.099   6.412   1.969  0.1329 -0.0322 -0.0043
11427W        W27611   6.836   8.819  12.752  0.0318  0.2681  0.2341
11428W        W27612  10.647   8.431  14.312 -0.4577  0.0012  0.1783
11429W        W27613  17.582   0.442  14.854  0.0838 -0.1823 -0.0330
11430W        W27614  12.498  10.175  13.792 -0.1255 -0.1791  0.0544
11431W        W27615   3.936   4.829   5.196  0.1379  0.0172 -0.2212
11432W        W27616  16.038   0.137  12.130 -0.1403  0.0846 -0.0733
11433W        W27617  10.621   0.250   3.548 -0.3812  0.0152 -0.2115
11434W        W27618   4.531   0.983   5.753 -0.1425  0.2044  0.1244
11435W        W27619   7.566   3.533  12.335 -0.0500  0.3551 -0.0976
11436W        W27620   1.734   6.825  11.932 -0.4094  0.0810  0.2928
11437W        W27621  11.250   7.770   5.263 -0.2222  0.0019 -0.0581
11438W        W27622  14.827   7.191  13.598 -0.0956 -0.0230 -0.0752
11439W        W27623   5.354   7.078   4.739  0.0506 -0.0717 -0.0348
11440W        W27624  10.078  14.578  12.835  0.3288  0.0824  0.1004
11441W        W27625   6.416   3.327  11.720 -0.1864 -0.0420 -0.1663
11442W        W27626   4.065   3.460   0.076  0.4743 -0.3359 -0.1583
11443W        W27627   7.269   9.317   0.454 -0.2174 -0.1074 -0.0386
11444W        W27628   5.657  18.472   0.891 -0.0798 -0.1635  0.1577
11445W        W27629  10.373   0.065  14.682  0.4493 -0.4044  0.1832
11446W        W27630   7.536  12.342   9.424  0.0010  0.1160 -0.2012
11447W        W27631  15.849   2.287  11.461 -0.3660 -0.0953 -0.0908
11448W        W27632  10.799  12.141   1.245 -0.1021  0.0056 -0.0250
11449W        W27633   0.623  14.169   4.375 -0.0809 -0.0771 -0.2171
11450W        W27634  11.089   1.208  14.583 -0.1488  0.1712 -0.3526
11451W        W27635   1.136  11.320  15.195 -0.2286  0.1983 -0.2633
11452W        W27636   9.424   6.518  12.423  0.0142 -0.0101  0.1128
11453W        W27637   7.280   3.559   4.254 -0.1156  0.1144  0.2077
11454W        W27638   7.736  17.597  13.448  0.0051 -0.1778 -0.1325
11455W        W27639   2.401  13.756  15.485  0.1240  0.1542 -0.3062
11456W        W27640   5.159  11.208  13.024  0.2253 -0.1411  0.1094
11457W        W27641   1.876   9.773  12.259 -0.1577  0.3450 -0.0718
11458W        W27642   1.502   1.671   4.368  0.0627  0.1406 -0.1385
11459W        W27643   0.698   9.376   4.492 -0.0851 -0.2450  0.0455
11460W        W27644  13.720  10.060  12.579 -0.0282  0.0433 -0.0011
11461W        W27645  11.875  16.624   4.908  0.3985 -0.0621  0.2422
11462W        W27646   2.691   5.320   0.681  0.3580 -0.4047 -0.2234
11463W        W27647   0.327   7.513  10.919 -0.0745 -0.1978  0.0668
11464W        W27648  11.478   8.967  14.157  0.1955  0.0891 -0.2800
11465W        W27649   4.439  14.513  11.955  0.1297  0.1000 -0.0537
11466W        W27650  12.073   3.380   3.194  0.0088 -0.0883  0.0610
11467W        W27651   5.363  11.987   4.358 -0.4456  0.1965  0.0014
11468W        W27652  14.694   9.267  14.287  0.2575  0.1830 -0.1049
11469W        W27653   8.401   2.421  11.035  0.2198 -0.2538  0.2259
11470W        W27654   0.370   5.041  10.416 -0.0371 -0.1567 -0.2231
11471W        W27655   2.605  15.997   4.188  0.0461  0.0121 -0.3772
11472W        W27656  13.517  17.147  11.308  0.5724 -0.2707  0.0508
11473W        W27657   9.326  17.562  15.243 -0.0682  0.2681 -0.1500
11474W        W27658  16.031   6.555   2.049  0.2306  0.1189 -0.0723
11475W        W27659  15.615   9.922  12.676 -0.0288  0.0289  0.0691
11476W        W27660   2.082   1.614   5.081 -0.0104 -0.0311  0.0753
11477W        W27661   5.779  10.455  13.225  0.0546  0.0159 -0.1251
11478W        W27662  14.384   1.264  13.566  0.0709  0.0069 -0.1434
11479W        W27663   9.106  12.876  13.833  0.3605  0.3729 -0.1262
11480W        W27664   3.905   2.869   2.445 -0.2979 -0.2962 -0.2186
11481W        W27665  14.692   4.417   3.619 -0.2698  0.2709 -0.0695
11482W        W27666   8.253  11.876  12.791 -0.3146  0.2003 -0.1094
11483W        W27667   5.347  13.265  12.846 -0.2020  0.0592 -0.3626
11484W        W27668  10.648   4.968   1.683 -0.1313 -0.2383  0.3780
11485W        W27669   0.346  17.615  12.992 -0.1123  0.4122  0.1368
11486W        W27670  14.073  13.726   4.146 -0.1556 -0.0552 -0.1843
11487W        W27671   7.094   6.574  13.468  0.1859 -0.1500 -0.2979
11488W        W27672  14.736   7.909  12.697  0.0439 -0.0058 -0.0589
11489W        W27673   8.722  16.214   2.057 -0.0332 -0.2228  0.0204
11490W        W27674   4.396   3.310   3.564 -0.0463  0.0343  0.4952
11491W        W27675   6.943   3.847   4.457 -0.2032 -0.0233  0.1022
11492W        W27676  16.998   9.049  15.212  0.1891 -0.1412 -0.4404
11493W        W27677  14.647  17.750   0.550  0.0120  0.1453 -0.0194
11494W        W27678   5.733  11.529  12.855 -0.1808  0.1444  0.2112
11495W        W27679   8.526   5.213   3.638 -0.2211  0.0881  0.1997
11496W        W27680  11.066  12.350  15.529 -0.3556  0.1744  0.0986
11497W        W27681  12.870   8.359  14.362 -0.2241 -0.1918  0.1882
11498W        W27682  12.579  12.850  13.514 -0.3180  0.0679 -0.1895
11499W        W27683   5.480   3.875   1.387 -0.1905 -0.1220 -0.1952
11500W        W27684  12.255  17.173  13.208 -0.4376 -0.3323  0.1637
11501W        W27685   4.724  13.522  11.175  0.0060 -0.2308  0.1132
11502W        W27686  18.495   8.400  13.969  0.0785 -0.1563 -0.2328
11503W        W27687   7.650   9.364   3.267  0.1283 -0.0824 -0.1285
11504W        W27688   7.092  12.131   2.854 -0.1125  0.1782 -0.1824
11505W        W27689  14.367  11.848   2.142 -0.0854  0.3103 -0.1038
11506W        W27690  13.584  13.948   4.655  0.0736 -0.0289 -0.3041
11507W        W27691  11.800  17.562   5.312  0.0100 -0.0058 -0.0487
11508W        W27692  16.612  11.019   4.851  0.2772  0.0990 -0.3319
11509W        W27693   0.006   0.044   5.006 -0.0725 -0.1498 -0.2355
11510W        W27694   0.028  12.613   3.279  0.2832 -0.0125 -0.3637
11511W        W27695   7.806  12.804  11.510 -0.0569 -0.0811  0.0895
11512W        W27696   6.154  11.007   0.191  0.0111 -0.2362  0.1170
11513W        W27697  17.148   7.247   2.612  0.1472 -0.0821  0.1480
11514W        W27698   9.358   9.991  10.736  0.0454 -0.5698 -0.1013
11515W        W27699  18.513   4.562  13.874  0.0995 -0.0287  0.0580
11516W        W27700   5.253   8.355   2.089 -0.3208  0.1242  0.0082
11517W        W27701   6.728  15.256   2.142  0.2558  0.1322 -0.1265
11518W        W27702  17.639  11.002  14.476  0.1543  0.1615 -0.0875
11519W        W27703  12.654   0.544  14.405  0.1377 -0.1430 -0.1091
11520W        W27704   2.824  12.077  11.805  0.0894  0.0745 -0.1885
11521W        W27705  15.074   2.139   2.258  0.0401 -0.2100  0.2189
11522W        W27706   1.784   9.119  11.480  0.2095  0.1175  0.1518
11523W        W27707  11.005  12.979   2.637  0.5386  0.2068 -0.0057
11524W        W27708   0.841   9.365   3.821  0.2675 -0.1447 -0.2515
11525W        W27709  13.147   0.543   0.595 -0.2188  0.2733  0.1441
11526W        W27710  14.570  10.154   3.589 -0.1438 -0.2435 -0.0736
11527W        W27711  17.043  10.665   2.337  0.0794 -0.0149  0.0004
11528W        W27712  17.288  12.922  13.845  0.0496  0.0811  0.0518
11529W        W27713   4.545  15.807   4.507 -0.2711 -0.0085  0.0315
11530W        W27714   3.430  11.547   0.833  0.1513 -0.1975  0.0000
11531W        W27715   2.831   8.902  12.906 -0.0230 -0.1289 -0.0438
11532W        W27716  11.564   4.403  11.230 -0.0215 -0.1185 -0.2876
11533W        W27717   0.971   5.746  12.130  0.2551 -0.0834 -0.0827
11534W        W27718   6.155   2.787   4.667  0.1723  0.1029 -0.0007
11535W        W27719  15.260   8.618   0.649 -0.0995 -0.0814  0.1284
11536W        W27720   2.706   5.991  14.037  0.0388  0.0096  0.1414
11537W        W27721  13.155   7.043  12.685 -0.2502 -0.2407  0.0800
11538W        W27722   1.608  10.885   1.240 -0.1161 -0.0650  0.1394
11539W        W27723   9.231  12.116   0.556 -0.2512  0.4147  0.2047
11540W        W27724  15.344   8.620  13.046 -0.4706  0.2236  0.0053
11541W        W27725   7.409  16.085   5.034  0.1278 -0.0500 -0.1251
11542W        W27726   2.982  16.959  14.749 -0.0364  0.2218 -0.3300
11543W        W27727  15.309   4.941   2.799 -0.3320 -0.3077 -0.1073
11544W        W27728   3.967   8.045   3.106 -0.3077  0.1803 -0.0750
11545W        W27729  17.143   6.192   1.573 -0.4429 -0.0430  0.0063
11546W        W27730   8.394  16.502  13.122 -0.0629  0.2055  0.0103
11547W        W27731   6.733   1.066   3.311 -0.3344  0.2978 -0.3966
11548W        W27732   9.608  17.412   1.031 -0.1023 -0.0050 -0.1584
11549W        W27733  10.804  10.257   4.534  0.0671 -0.0648  0.0334
11550W        W27734  12.804  16.187   3.234 -0.0594 -0.0789 -0.0689
11551W        W27735   1.803  15.920  13.436 -0.1491  0.1911  0.0519
11552W        W27736  14.079  16.275  12.333  0.2938  0.0879  0.4143
11553W        W27737  14.217  16.791   5.011 -0.0758  0.0359 -0.1664
11554W        W27738  10.202  13.926  13.088 -0.0250  0.6352  0.1648
11555W        W27739   9.965  12.918  11.643 -0.0057 -0.0211  0.0643
11556W        W27740   8.389  12.239   2.558  0.1427  0.2170  0.1010
11557W        W27741  18.008  14.020   1.570 -0.0206  0.0815 -0.1950
11558W        W27742  11.031  17.642  14.069  0.5007 -0.1801 -0.1266
11559W        W27743   1.078  15.774   5.333 -0.0132  0.0206  0.1455
11560W        W27744  15.652   8.060  11.482  0.1856 -0.1236  0.0637
11561W        W27745   9.417   6.214   0.583  0.3382 -0.0192 -0.0458
11562W        W27746  18.065   3.582  10.845  0.1306 -0.1625 -0.2223
11563W        W27747  14.697   1.323   4.774  0.1554 -0.0370 -0.0519
11564W        W27748  14.991   2.070  14.710 -0.1813 -0.1458  0.4182
11565W        W27749   3.841  14.245   0.564  0.3378  0.3425  0.0476
11566W        W27750  12.411   6.489  11.367 -0.1284 -0.1788 -0.0617
11567W        W27751   6.697  17.656  12.714  0.0007  0.2540 -0.0028
11568W        W27752   8.264   9.996  12.141 -0.0722 -0.1379 -0.3257
11569W        W27753   9.183   4.639  15.116 -0.1156 -0.0684 -0.1358
11570W        W27754  13.204   4.209   0.457  0.0256  0.0672  0.2449
11571W        W27755  10.623  18.105  12.302  0.3879 -0.2613  0.1911
11572W        W27756   0.782   0.938  15.107  0.0387 -0.1698  0.1464
11573W        W27757  14.682   4.089   5.690 -0.1725  0.0218 -0.1297
11574W        W27758   8.787  17.192   1.174 -0.0645 -0.2215  0.1795
11575W        W27759  11.937   1.926  12.325  0.0311 -0.1202  0.1057
11576W        W27760  16.012  14.527   4.493  0.0388  0.0244 -0.0800
11577W        W27761   9.913  15.737   2.673  0.2077  0.0581 -0.1688
11578W        W27762  14.787   0.593  11.242 -0.1280  0.1394 -0.1875
11579W        W27763  16.755   1.806   3.983  0.3656  0.3128  0.1305
11580W        W27764  16.614   9.939   3.035  0.1268 -0.1643  0.1562
11581W        W27765  14.051   2.586  12.233 -0.1536  0.2178 -0.1689
11582W        W27766  16.179  14.909  13.619  0.1262  0.2464 -0.0287
11583W        W27767   0.606  14.931  15.056  0.2519 -0.1576  0.3860
11584W        W27768   5.547   3.296  15.295  0.0844  0.2841  0.0556
11585W        W27769  14.903  18.423   5.355 -0.1374  0.0630 -0.2204
11586W        W27770  12.626   1.022   3.115 -0.2608  0.2582 -0.3021
11587W        W27771  11.602   4.471  15.171 -0.0191  0.3572 -0.1017
11588W        W27772   1.626  17.856   2.096  0.0986 -0.2802 -0.1495
11589W        W27773   8.467  12.562  13.294 -0.0111  0.3197  0.0314
11590W        W27774  12.079  10.687   1.217 -0.0755  0.2866 -0.0852
11591W        W27775   8.889   2.509   5.420  0.1072  0.2759 -0.4676
11592W        W27776   8.033  14.691   0.185  0.0406 -0.0085 -0.1717
11593W        W27777  15.051   9.062   3.461  0.1878 -0.2253  0.1405
11594W        W27778   2.600  16.661  14.404  0.0235  0.2107  0.3234
11595W        W27779  14.215   9.248   1.866 -0.1297  0.2561 -0.0681
11596W        W27780   7.025   7.218  15.060 -0.1233  0.1502  0.1022
11597W        W27781   3.306  10.897  15.493  0.2778  0.0924  0.2491
11598W        W27782   0.440   8.818  11.080  0.0797 -0.2432 -0.0144
11599W        W27783   5.869   8.125   2.932 -0.0382  0.0319 -0.0215
11600W        W27784   0.550   0.467  11.187 -0.3900 -0.0012  0.1027
11601W        W27785   1.398  14.419  14.971 -0.2594 -0.1553 -0.1220
11602W        W27786   0.323  12.119  12.571  0.2132 -0.0236  0.1917
11603W        W27787   3.602  12.011   0.726  0.1470  0.1065  0.1154
11604W        W27788  16.107  17.941   3.622 -0.0960  0.0655  0.3122
11605W        W27789  12.692   8.033   1.860 -0.0479 -0.0850  0.1693
11606W        W27790  13.963  18.855   1.977  0.4045 -0.2274  0.0448
11607W        W27791  11.461  10.639   4.674 -0.4327  0.2002 -0.2587
11608W        W27792  13.013   2.192  14.207 -0.1645  0.0517  0.0966
11609W        W27793   6.540  10.423   3.839  0.0072  0.1264 -0.1198
11610W        W27794  16.199  12.636   1.410 -0.2184 -0.0166 -0.1373
11611W        W27795  17.490   9.197  13.760  0.1815 -0.4321  0.0837
11612W        W27796   6.959  11.891   0.795  0.0241  0.1323  0.1269
11613W        W27797  12.395   8.358  14.155  0.1796 -0.0118 -0.3308
11614W        W27798  17.131  18.707   1.172 -0.0723  0.0414 -0.1149
11615W        W27799   2.623  15.617  12.334  0.3191  0.0096  0.0135
11616W        W27800   1.141   6.858   0.897  0.0726 -0.1780 -0.1569
11617W        W27801   2.784  18.425   4.717 -0.1797  0.2033  0.0058
11618W        W27802   3.292  16.590  15.040  0.2424  0.1343  0.1733
11619W        W27803  15.511   8.712  13.542  0.1065  0.0864  0.1236
11620W        W27804   1.058  18.493  15.393 -0.0904  0.1534  0.0489
11621W        W27805  10.963  15.188  10.933  0.0752  0.2097  0.3393
11622W        W27806   8.605  15.166  14.526  0.4252  0.2441 -0.0403
11623W        W27807   2.949  13.175  15.387  0.1235 -0.0750 -0.3207
11624W        W27808   9.065   2.179   4.668  0.1502  0.0404 -0.0073
11625W        W27809  11.801   4.945  13.385 -0.0139  0.0159 -0.1287
11626W        W27810  16.697   6.284  11.534  0.2011  0.1481 -0.1251
11627W        W27811   4.078  18.700   2.534 -0.0754  0.1150  0.0757
11628W        W27812  11.528  18.845  10.632 -0.0746 -0.0148 -0.0325
11629W        W27813   4.199  14.526  13.043  0.1250  0.4343 -0.3667
11630W        W27814   4.347  10.956  10.581 -0.5291  0.3762 -0.1252
11631W        W27815  15.083   2.764  15.275 -0.1519 -0.1048  0.0116
11632W        W27816   7.090   5.036   2.227 -0.2681 -0.0857 -0.0456
11633W        W27817  13.024   5.123   1.281 -0.1572 -0.0990 -0.0215
11634W        W27818   7.119  10.398   0.500  0.3148 -0.2178 -0.0176
11635W        W27819  11.408   7.526  12.397  0.2812 -0.2190 -0.0447
11636W        W27820   3.136   0.398  11.965  0.3193  0.1694  0.0549
11637W        W27821   1.208   3.439   1.779  0.2702 -0.4798  0.0534
11638W        W27822   1.370   0.604   2.405  0.2174 -0.0100 -0.0029
11639W        W27823   8.837   9.146  11.636  0.1804 -0.1179 -0.0678
11640W        W27824   8.663  15.271  15.337 -0.0401 -0.2676 -0.0627
11641W        W27825  15.319   7.834   0.096 -0.3141 -0.0030  0.1695
11642W        W27826   1.957   1.132  11.946 -0.1382  0.0746 -0.0330
11643W        W27827  15.252   9.505  14.211  0.1333  0.1622 -0.1226
11644W        W27828  15.500  12.152  11.191 -0.0161  0.0519  0.2220
11645W        W27829   3.852  17.364  14.946 -0.0373 -0.3181 -0.1038
11646W        W27830   5.596  14.231  13.966 -0.1200 -0.1182 -0.1510
11647W        W27831   2.316  11.935   1.864 -0.3825  0.2822 -0.0161
11648W        W27832  18.067   7.806  13.914  0.1038 -0.2337 -0.1567
11649W        W27833   7.703   5.590  14.159  0.0991  0.2314  0.2641
11650W        W27834  11.482   4.288   3.659  0.1240  0.0332 -0.0019
11651W        W27835   4.564   4.285  15.410  0.1973 -0.1101  0.1074
11652W        W27836   5.927   8.738   5.403 -0.2506 -0.1681  0.2860
11653W        W27837  17.135   7.480  11.428 -0.1114  0.1986 -0.0233
11654W        W27838  14.444   0.184   0.127 -0.0310 -0.1263  0.3440
11655W        W27839  10.475  10.108   0.609  0.1903 -0.0763 -0.1523
11656W        W27840  16.949  10.837  11.392 -0.0896  0.1111  0.1957
11657W        W27841  17.752  11.906   0.135 -0.1039  0.0302 -0.1200
11658W        W27842   5.936  11.273  11.918 -0.5356  0.2327 -0.2366
11659W        W27843   1.248   7.304   0.821 -0.0228  0.1701  0.1593
11660W        W27844  11.641  13.362  13.288 -0.2032  0.1832  0.1316
11661W        W27845  12.717  10.357  12.322 -0.6606  0.1604  0.1368
11662W        W27846   7.102   7.369   9.832 -0.5970 -0.2049  0.2332
11663W        W27847   6.012  10.009  14.888  0.1097 -0.0927  0.0433
11664W        W27848   7.382  18.719  12.991 -0.0184 -0.0607  0.1965
11665W        W27849  15.294   9.778   1.146 -0.0970  0.0716  0.6125
11666W        W27850   3.359   0.965  14.127 -0.2707  0.1469  0.0655
11667W        W27851   8.880   4.915   2.434 -0.5015  0.0330  0.2245
11668W        W27852   5.872   0.710   0.292 -0.0626  0.2520 -0.0068
11669W        W27853  10.650  16.743   3.760 -0.1080  0.0085 -0.1622
11670W        W27854   3.784   1.012  13.844 -0.0086 -0.1533 -0.1489
11671W        W27855   4.648  18.778   3.387 -0.1855 -0.1049  0.0313
11672W        W27856  12.492   9.535  11.675 -0.1014  0.1156 -0.0866
11673W        W27857  17.383   5.492  12.303 -0.1074 -0.0261  0.3303
11674W        W27858   1.361  14.248   4.978  0.2983  0.0470 -0.2551
11675W        W27859  13.389   7.412  14.789 -0.0259 -0.0860 -0.1722
11676W        W27860  15.351   8.996   3.008  0.2465  0.3341  0.2037
11677W        W27861  18.212   2.807   4.891  0.1447 -0.2358 -0.0128
11678W        W27862  11.048  11.641  13.317 -0.1476  0.1727 -0.3001
11679W        W27863  18.618  14.481   4.390  0.1021  0.1284 -0.0147
11680W        W27864  14.706   7.346   5.782 -0.3694  0.1672 -0.0279
11681W        W27865   9.433   1.491  14.696  0.0066 -0.2016  0.1595
11682W        W27866  11.155   1.336   1.831 -0.0060  0.2878  0.2118
11683W        W27867  16.127  16.202   0.671 -0.0638 -0.1261  0.2311
11684W        W27868  14.500  15.301  15.480 -0.1899 -0.2947 -0.2818
11685W        W27869  18.051  17.697   3.440 -0.0796 -0.0187  0.1242
11686W        W27870  10.925   8.090  14.567  0.1225 -0.2151 -0.2338
11687W        W27871  13.365  10.284  14.561  0.0298  0.0169 -0.0005
11688W        W27872   1.215  10.603   0.862 -0.0183  0.4609 -0.0281
11689W        W27873  14.385  11.013  15.392  0.1430 -0.0838 -0.1231
11690W        W27874   7.103   4.946   5.254  0.2414 -0.2359 -0.1089
11691W        W27875  11.435   5.845   0.771  0.5804  0.0585  0.0512
11692W        W27876   5.077  13.687   4.239  0.3966 -0.0742  0.1398
11693W        W27877  13.817   1.585  13.227  0.2306  0.0741  0.0679
11694W        W27878   3.802   9.842   0.939 -0.1145 -0.0545  0.1300
11695W        W27879   7.632   3.294  14.427  0.1958 -0.0288  0.2222
11696W        W27880  12.522  15.831   1.291 -0.2844  0.2060  0.1549
11697W        W27881   1.455   1.509   4.839 -0.1772 -0.2228  0.0834
11698W        W27882   2.667  10.953  13.230 -0.3751  0.2235  0.0066
11699W        W27883   7.171  17.370   2.648 -0.2588  0.2504  0.0396
11700W        W27884  15.018  13.777   4.481 -0.1372 -0.0622  0.3302
11701W        W27885   6.471  14.054   3.962  0.0472  0.0463  0.4227
11702W        W27886  10.448  12.682  13.889  0.3620  0.3589 -0.0714
11703W        W27887  14.989   7.724   1.959  0.0017  0.0294 -0.0114
11704W        W27888   0.983   9.635  12.808  0.3288  0.0962  0.0478
11705W        W27889  14.882  10.882   0.214 -0.1497  0.1348  0.2059
11706W        W27890   1.702   1.174  15.466  0.0747 -0.1162  0.2463
11707W        W27891  12.452  16.125   5.219  0.0951  0.3771  0.2371
11708W        W27892  12.252  17.849   1.918 -0.3234  0.0078  0.2236
11709W        W27893   8.167  18.371   1.838  0.0958  0.2469  0.2142
11710W        W27894   0.063  10.072  12.568 -0.1530  0.0388  0.2817
11711W        W27895  13.945   6.557   2.279 -0.0342 -0.0971  0.1649
11712W        W27896  12.617  11.748   5.309  0.1760  0.3820 -0.0532
11713W        W27897  18.442  17.530  15.412  0.0099  0.2255 -0.0639
11714W        W27898  18.645   5.690   3.482  0.0513  0.2135 -0.1082
11715W        W27899   6.585  14.810   0.199 -0.3260 -0.0421  0.1038
11716W        W27900  12.892   5.681  12.123 -0.3127  0.0249 -0.1243
11717W        W27901   8.680   5.741  11.361 -0.1387 -0.0551  0.1740
11718W        W27902  10.769   3.984   2.471 -0.0705  0.2134 -0.2173
11719W        W27903  16.810   7.689   3.244  0.1180 -0.2138 -0.0383
11720W        W27904   7.600   7.392   0.071  0.3847 -0.2915 -0.2157
11721W        W27905  10.947   7.585  15.211 -0.2961  0.1289 -0.2583
11722W        W27906   4.624   4.092  13.748  0.1599 -0.2007 -0.0899
11723W        W27907  14.195   8.917   0.219  0.0533  0.0869  0.4000
11724W        W27908  12.112  15.684  11.004 -0.2960 -0.0733 -0.5050
11725W        W27909   6.929  11.186  14.612 -0.1065 -0.0852 -0.0262
11726W        W27910  14.167   6.891  14.767 -0.0060 -0.0838  0.2559
11727W        W27911   5.209   5.419   1.100  0.0379 -0.4049  0.1871
11728W        W27912  14.382   7.884  14.061 -0.2108 -0.1484 -0.3642
11729W        W27913   8.308  12.880  12.584  0.2716 -0.2383  0.2388
11730W        W27914   8.668  18.681   2.466  0.1364 -0.0957  0.0081
11731W        W27915   0.668   3.873  11.359 -0.1109  0.2414 -0.0820
11732W        W27916   0.997  10.035  12.354  0.0088  0.1424 -0.1838
11733W        W27917   5.658  17.603   3.979 -0.0818  0.1484 -0.2953
11734W        W27918  15.680  13.757   2.305  0.4455  0.2126 -0.1788
11735W        W27919  12.322  16.376   2.820 -0.0520 -0.3573  0.0131
11736W        W27920   4.240   0.620  13.888  0.0884  0.0178 -0.0939
11737W        W27921   0.909   3.937  14.011 -0.2015 -0.1301 -0.2825
11738W        W27922   4.837   7.968   3.701 -0.0116 -0.0237  0.0052
11739W        W27923  13.918   5.410   6.048  0.1916 -0.2992  0.1575
11740W        W27924   4.590  10.757  15.023  0.1149 -0.1860 -0.2518
11741W        W27925  17.667   6.805   3.180 -0.1401  0.2563 -0.2850
11742W        W27926   0.325  11.192   4.270  0.1357 -0.1042  0.2238
11743W        W27927   8.247   7.969  13.290 -0.1165 -0.1903  0.0869
11744W        W27928   4.296   0.479   4.221 -0.1274 -0.2834 -0.0613
11745W        W27929   6.426   3.801   4.218 -0.1590 -0.0677  0.1326
11746W        W27930  14.436  12.630   5.106  0.0281 -0.2182  0.0332
11747W        W27931   9.534   2.821   2.103 -0.0969  0.1302 -0.2157
11748W        W27932   7.617  16.076   2.587  0.0449 -0.2850  0.1019
11749W        W27933  12.285   8.060  12.453 -0.0263  0.0699 -0.0644
11750W        W27934   8.679  17.110   2.477  0.1318 -0.1802 -0.0394
11751W        W27935   6.342  16.286   1.179 -0.0178  0.2102 -0.0131
11752W        W27936  14.315   0.474  10.933  0.0259  0.1297  0.2431
11753W        W27937  15.794  16.889  14.695  0.2915 -0.0884 -0.1977
11754W        W27938  12.724  12.444  11.827  0.1759  0.3474 -0.0687
11755W        W27939  12.472  15.609   1.979 -0.1649  0.3755 -0.0097
11756W        W27940  14.992  17.734   1.370  0.0264 -0.1818  0.1500
11757W        W27941  12.751   3.363   3.770  0.1366 -0.1367  0.0156
11758W        W27942  13.322   6.729  11.791 -0.0548 -0.1067  0.0562
11759W        W27943  14.284   0.882   2.183 -0.0845  0.0467  0.2886
11760W        W27944   3.043   5.453   4.447 -0.0420  0.0253 -0.1107
11761W        W27945   9.364  18.836  12.149 -0.4835 -0.2107  0.2752
11762W        W27946  13.405  11.730   1.993 -0.1031  0.2051 -0.1460
11763W        W27947   4.954   1.999   0.644  0.2477 -0.1245  0.0763
11764W        W27948   2.187  14.648  14.588 -0.1672  0.0946  0.1393
11765W        W27949  12.676  11.182   4.903  0.1476  0.0025  0.0560
11766W        W27950  10.158   4.392  11.767 -0.2552 -0.0383 -0.1994
11767W        W27951   9.152  13.724   4.089  0.1878  0.0237 -0.1809
11768W        W27952  11.194   4.280   0.018  0.0337  0.2570 -0.0206
11769W        W27953  17.220  13.319  15.522  0.3828 -0.1388 -0.0739
11770W        W27954  10.434   3.133   3.196 -0.2902 -0.1907  0.0658
11771W        W27955  15.562   6.294   0.034  0.0605  0.3168 -0.0362
11772W        W27956  15.000   5.751  14.094  0.3322  0.3295 -0.3195
11773W        W27957  14.974   9.254  10.976 -0.2847 -0.2212 -0.1405
11774W        W27958   2.537  17.303  13.596  0.1910  0.1205  0.2376
11775W        W27959   4.341   2.957   2.694 -0.4900  0.2771 -0.0592
11776W        W27960  16.768  11.135  10.996 -0.0044  0.0646 -0.0128
11777W        W27961  16.023  10.908   1.702 -0.1310 -0.2441  0.1540
11778W        W27962   8.838   9.642  12.418  0.3163 -0.0763 -0.1935
11779W        W27963  15.698   6.592   4.576  0.2124 -0.0213 -0.1016
11780W        W27964   4.820   2.250   4.606  0.0587  0.0320 -0.1146
11781W        W27965   5.467   5.385   3.167  0.0578  0.1632  0.4053
11782W        W27966   1.151  15.941   2.557  0.4179 -0.1988  0.1447
11783W        W27967  12.103  10.188  13.107 -0.2158  0.1261  0.1554
11784W        W27968   5.074   2.824  14.905 -0.1172 -0.0076 -0.0614
11785W        W27969   2.333  15.562  13.310  0.2242  0.0690 -0.0320
11786W        W27970   2.820  12.099  13.765 -0.1975  0.1285 -0.0519
11787W        W27971   3.019  18.214  11.262  0.0949 -0.1617 -0.1062
11788W        W27972   2.684   9.331  15.393  0.2420  0.0294  0.3240
11789W        W27973   7.338   3.060  13.849  0.2919 -0.1185 -0.0700
11790W        W27974  11.194  18.732  13.177 -0.0770 -0.0627 -0.1741
11791W        W27975   2.176  15.131  11.763 -0.0590 -0.0358 -0.3319
11792W        W27976   5.608   4.271   1.815  0.4210 -0.0574  0.1152
11793W        W27977  11.556  17.731  12.704 -0.2246 -0.3616 -0.2128
11794W        W27978   8.542   9.688   1.647  0.1462 -0.2493 -0.0906
11795W        W27979  12.720   5.789  11.287 -0.1810  0.2010 -0.1460
11796W        W27980   3.786  10.153   1.984 -0.0228 -0.0429  0.2145
11797W        W27981   8.131   3.152   5.386 -0.1466 -0.5089 -0.0298
11798W        W27982  10.880  18.567  10.403 -0.1196 -0.0433  0.0172
11799W        W27983  10.254   1.494   6.037 -0.0386  0.2082 -0.0477
11800W        W27984   5.516   6.187   4.251 -0.1351  0.0864  0.2613
11801W        W27985   4.106   9.316   5.062  0.0378  0.0037 -0.0601
11802W        W27986   9.903  18.035   2.374  0.2867 -0.0203  0.0763
11803W        W27987  13.814  12.901   4.562 -0.1294 -0.1692 -0.0917
11804W        W27988   9.971   1.221   0.677 -0.1319 -0.1857 -0.2993
11805W        W27989   2.201  16.668  14.746 -0.2855  0.4600 -0.2676
11806W        W27990   8.213  12.721  12.157 -0.3866 -0.1194  0.1921
11807W        W27991  14.576   7.092  12.271 -0.1286  0.1843  0.0393
11808W        W27992  16.592   2.421  11.582 -0.1750 -0.0548 -0.2392
11809W        W27993   8.867   8.487  11.172 -0.1527  0.1492 -0.0851
11810W        W27994   3.621  13.329   1.004  0.2914  0.2188  0.2245
11811W        W27995  10.716  11.968  14.796  0.0462  0.3187 -0.3366
11812W        W27996  17.065   6.416  12.534 -0.4027 -0.3521  0.2595
11813W        W27997  17.686  12.266   3.169  0.0700  0.0173 -0.2115
11814W        W27998   6.988   4.040  11.594  0.0266 -0.0025 -0.0501
11815W        W27999   6.939  12.669   5.978 -0.1377 -0.3348 -0.0614
11816W        W28000   0.898   8.511   4.124  0.0062  0.0134 -0.0547
11817W        W28001   4.576   8.756   3.034  0.3157 -0.0765  0.1949
11818W        W28002   4.393   3.602   0.446  0.0036 -0.3828 -0.1631
11819W        W28003   3.195  17.957  15.459 -0.1719  0.1201 -0.2012
11820W        W28004   6.961   9.493  14.893 -0.0758 -0.1652 -0.0146
11821W        W28005  10.352  17.432   0.486  0.1146  0.1485 -0.0718
11822W        W28006   8.689   6.797   2.823  0.1361 -0.3185 -0.3672
11823W        W28007   1.087   8.070   0.490 -0.0793  0.3229 -0.0454
11824W        W28008   7.369   7.289   3.672 -0.0338 -0.1272 -0.1650
11825W        W28009   7.033  11.933  13.308 -0.0075 -0.0623  0.3658
11826W        W28010   1.158  12.559  15.245  0.0823 -0.1974 -0.0327
11827W        W28011   9.293   3.526  13.670  0.0842  0.1794  0.1497
11828W        W28012  15.441   4.269  11.113 -0.0967  0.2146  0.2756
11829W        W28013  13.583   4.594  14.740  0.1942 -0.0660 -0.1748
11830W        W28014  18.412   4.070   0.482 -0.0288  0.2317  0.0928
11831W        W28015   1.010   4.994   0.104  0.1027  0.0518  0.2311
11832W        W28016  11.628   2.536  12.656 -0.0036  0.2771  0.3915
11833W        W28017  16.238   9.555  14.807  0.3032 -0.2862 -0.0444
11834W        W28018  17.654  11.150  14.005 -0.0569 -0.0956 -0.1303
11835W        W28019   1.718  15.785   4.762 -0.1320 -0.0517 -0.1098
11836W        W28020  12.015   9.154  12.508  0.0524  0.1236 -0.1658
11837W        W28021   6.604   4.718   5.331  0.0863 -0.1824 -0.0531
11838W        W28022  17.522  18.084   0.563  0.0011 -0.0886 -0.0451
11839W        W28023   9.039  15.476  14.029  0.1185  0.3921 -0.4164
11840W        W28024  13.762  16.709  12.374 -0.0891  0.2221  0.0993
11841W        W28025   2.942   6.281  12.000  0.0246  0.2543 -0.4182
11842W        W28026   8.730  18.438   3.274  0.0181 -0.0824 -0.3567
11843W        W28027  14.603  16.613   3.692  0.3731 -0.2741  0.0196
11844W        W28028   1.750  18.139   0.619 -0.0442  0.4569 -0.1702
11845W        W28029   2.461   0.795   2.116  0.0753 -0.0736  0.1802
11846W        W28030   5.326  10.795  13.302 -0.1361  0.1771  0.0855
11847W        W28031  10.760  13.291  15.418  0.0684  0.0842  0.4423
11848W        W28032   1.233   7.563  13.066 -0.1379 -0.2428  0.1939
11849W        W28033  13.876   2.285  11.667 -0.0946 -0.1556  0.2711
11850W        W28034   1.170   9.534   3.068  0.1367 -0.2815  0.0948
11851W        W28035   8.491  13.947  11.217  0.2263 -0.1133 -0.0741
11852W        W28036   6.170   7.035  10.600  0.1116 -0.1809 -0.3601
11853W        W28037  17.279   4.583   3.362  0.0819  0.4152  0.1438
11854W        W28038   7.524   5.100  14.648  0.0779 -0.0162 -0.0406
11855W        W28039  15.111   9.586   0.658  0.1433 -0.2219 -0.1848
11856W        W28040  17.113   9.581  12.435 -0.2242 -0.3230  0.1625
11857W        W28041   8.038  17.768   5.411  0.1085 -0.1898  0.0973
11858W        W28042   0.032   7.131   1.956 -0.2956 -0.3299  0.0645
11859W        W28043  14.552   7.759  14.914 -0.1763 -0.0819  0.1514
11860W        W28044  14.865   7.250   5.299  0.0602 -0.0713 -0.1676
11861W        W28045   4.488  14.238   4.637  0.2458 -0.0786  0.2751
11862W        W28046  14.170   0.586   3.356 -0.2573 -0.1769 -0.3878
11863W        W28047   0.631   0.891  10.901 -0.0934 -0.4120  0.0477
11864W        W28048   3.701   1.847  14.011 -0.6697  0.1225 -0.4755
11865W        W28049  10.275   9.195  12.711 -0.0901  0.0519 -0.2507
11866W        W28050   7.401  15.803   1.796 -0.0934  0.3309  0.0991
11867W        W28051  16.729   0.137  14.722 -0.3058 -0.1358  0.2077
11868W        W28052   8.705  16.515   4.688 -0.1878 -0.3065 -0.3716
11869W        W28053  12.173  18.743  12.864 -0.1948  0.0909 -0.2979
11870W        W28054  11.905  13.511   1.159  0.0624 -0.1131  0.1967
11871W        W28055   4.542   8.458   2.310  0.1142 -0.0841 -0.0628
11872W        W28056   2.236  12.369   3.246  0.0568  0.1632 -0.3407
11873W        W28057  10.696  13.027  15.001  0.1881 -0.2601  0.2432
11874W        W28058  18.178   0.145  11.220 -0.0447 -0.2158 -0.0221
11875W        W28059   7.435  12.374  11.994  0.2039  0.2465 -0.0581
11876W        W28060   6.024  11.679   1.075  0.2889  0.4373 -0.0291
11877W        W28061   8.043  16.363   3.712 -0.3044  0.2532  0.1274
11878W        W28062  17.206   3.308   5.441 -0.1357  0.0666 -0.3415
11879W        W28063  17.453   3.212  10.746  0.3057  0.1601 -0.0167
11880W        W28064  13.053  12.109  13.175  0.1746  0.0673  0.1927
11881W        W28065   0.967   3.387   4.826 -0.0928  0.0505  0.3781
11882W        W28066   3.484  18.678  14.628 -0.0194  0.2359  0.2435
11883W        W28067  13.729   7.379   3.697 -0.1732  0.1714  0.0545
11884W        W28068   6.621  15.595   0.308 -0.1329 -0.0852 -0.1962
11885W        W28069   6.288   9.243   0.578 -0.1211 -0.0319 -0.0401
11886W        W28070  12.311   6.373   3.485 -0.2500  0.1242  0.4853
11887W        W28071   7.173  11.650  14.855 -0.0481 -0.2935 -0.0529
11888W        W28072   2.038  10.112   0.976  0.0443 -0.1608  0.0818
11889W        W28073   4.134   7.090  13.071 -0.1035  0.1804  0.0655
11890W        W28074   7.034   8.045   1.623  0.0709 -0.0708 -0.0290
11891W        W28075   5.710  14.955   3.111 -0.0376 -0.0749 -0.0690
11892W        W28076  15.439  17.945   1.174 -0.1307 -0.1856 -0.3686
11893W        W28077  18.499  16.552   3.086 -0.2518  0.2078  0.1684
11894W        W28078   0.813   0.510   4.703 -0.2683  0.2147 -0.1211
11895W        W28079  10.079   3.710  12.038 -0.1358 -0.1729 -0.1257
11896W        W28080   4.668   7.114   2.424  0.0372 -0.2408  0.1332
11897W        W28081  14.700  14.717  12.554 -0.2623 -0.0734 -0.1902
11898W        W28082  17.543  18.218   4.314 -0.0780  0.2002  0.2061
11899W        W28083   8.135   1.594  13.814  0.0513 -0.1346 -0.0501
11900W        W28084   9.387  18.273   4.916 -0.2217  0.0784 -0.1018
11901W        W28085   6.797   4.524  10.805  0.2467  0.1352  0.2247
11902W        W28086   8.534  16.276   3.731 -0.2127 -0.2284 -0.3614
11903W        W28087  12.576   1.994   1.266 -0.1022  0.1011 -0.3681
11904W        W28088   5.384   2.931  10.165 -0.1228  0.4106 -0.1109
11905W        W28089  10.559   6.335  10.534 -0.1353  0.0389 -0.0851
11906W        W28090   1.296   1.367   0.160 -0.0757  0.2284  0.0768
11907W        W28091   8.361   3.748   0.751 -0.1467  0.0498  0.1027
11908W        W28092  13.276   3.629   4.174  0.1671 -0.0849 -0.1835
11909W        W28093  14.409   4.693  12.244 -0.0399  0.2889 -0.0273
11910W        W28094   5.867   7.684  12.787 -0.4424 -0.1439  0.1651
11911W        W28095   3.979  14.587   2.785  0.1006 -0.0447  0.1905
11912W        W28096  11.264   6.944   5.537 -0.1875  0.2631  0.0627
11913W        W28097  11.062   4.135   3.903  0.0031  0.1287 -0.1593
11914W        W28098   1.078   6.684  12.441  0.0639  0.4021  0.0302
11915W        W28099   4.007  16.168  12.766  0.1310 -0.1871  0.1594
11916W        W28100   5.736  14.527  13.581 -0.0376  0.1733 -0.1032
11917W        W28101   8.747   7.368   0.979  0.0168  0.4209  0.1345
11918W        W28102   5.726  17.562   2.454  0.2078  0.1894  0.1846
11919W        W28103   2.949  13.988   4.330 -0.1595 -0.1512 -0.2490
11920W        W28104   4.233  13.726  12.021  0.2238  0.0871 -0.0492
11921W        W28105   4.227  15.426   4.733  0.1026 -0.0943  0.1740
11922W        W28106  11.237   3.086  15.064 -0.4489  0.1934 -0.2119
11923W        W28107   2.651   1.680  13.512  0.3495 -0.1615  0.0421
11924W        W28108   4.265  13.363   0.251 -0.1068 -0.1412 -0.4005
11925W        W28109  16.441  13.919   0.424 -0.1701 -0.0323  0.0925
11926W        W28110   4.452   3.655  14.452 -0.2023 -0.1903  0.4770
11927W        W28111   9.526  15.020   4.289 -0.1445  0.1548  0.1376
11928W        W28112   5.387  14.527   3.131 -0.0442  0.0594  0.2001
11929W        W28113   2.239  11.710  13.984  0.1712 -0.1316 -0.2706
11930W        W28114   2.310  18.226  14.271 -0.1453 -0.2431 -0.1369
11931W        W28115   2.807   5.319  10.817 -0.1295 -0.1455  0.1135
11932W        W28116  13.577   6.378  11.144 -0.2059  0.1396  0.0146
11933W        W28117  18.055  17.384   2.695  0.0652 -0.1207 -0.1549
11934W        W28118   0.649  17.479   5.014 -0.0855 -0.2081 -0.0224
11935W        W28119   5.980  11.198   1.315  0.1305  0.0058  0.0288
11936W        W28120  17.974  11.169   0.629  0.2885 -0.1767  0.1610
11937W        W28121  11.481  16.833   0.399 -0.0564 -0.3499  0.0201
11938W        W28122  16.624   3.860  13.346 -0.0556 -0.1698  0.1238
11939W        W28123  13.753  16.930   4.939 -0.2053 -0.0746  0.0575
11940W        W28124  17.445  15.299  14.217 -0.0385  0.3325 -0.2006
11941W        W28125   1.414  15.566   2.740  0.0992  0.1929 -0.2708
11942W        W28126   3.388   2.976  12.877 -0.1829 -0.0487 -0.1692
11943W        W28127  12.375   0.393  12.230 -0.0411  0.2454 -0.2983
11944W        W28128  10.545   7.568  13.906  0.1522 -0.0312 -0.0356
11945W        W28129  12.132   0.392   1.050 -0.1900  0.1626  0.1000
11946W        W28130  11.048   1.671   3.717  0.4554 -0.3943  0.1102
11947W        W28131   4.199   4.633  12.193 -0.3988 -0.1383  0.2193
11948W        W28132  16.066   0.839  11.342 -0.0729  0.2927  0.0208
11949W        W28133  11.161   2.367  12.876 -0.2397  0.3391  0.0554
11950W        W28134   9.288  18.354   4.123  0.1151  0.0163  0.0835
11951W        W28135  17.762  14.798  14.932  0.3081  0.1028  0.2184
11952W        W28136  18.163  12.826   1.124  0.0521 -0.1586 -0.1867
11953W        W28137  10.657  14.500  14.089  0.1212  0.0639 -0.2772
11954W        W28138   0.188  11.614  10.872 -0.1888 -0.1207  0.0884
11955W        W28139   4.860   9.551  14.812  0.0627  0.3013  0.1483
11956W        W28140  18.499  12.848   0.212 -0.1032 -0.0484  0.3032
11957W        W28141  15.609   0.187  11.782  0.1160 -0.2031  0.1434
11958W        W28142  14.988   3.295   2.260 -0.2216  0.1002  0.4276
11959W        W28143  15.146  10.815  15.288 -0.0273 -0.1537  0.1227
11960W        W28144   0.424   3.278  14.904 -0.1681 -0.1766 -0.2057
11961W        W28145  17.617  14.722  13.870  0.0029  0.1552 -0.1017
11962W        W28146   6.735   7.192  13.759 -0.1601  0.1615 -0.1381
11963W        W28147   7.019   7.639  11.485 -0.3415 -0.1192 -0.2707
11964W        W28148   6.931  17.603   1.713 -0.1326  0.3259  0.0443
11965W        W28149  17.848  10.225  12.775  0.2038  0.0133 -0.0047
11966W        W28150   8.269  10.873  12.756  0.1128  0.0772  0.2159
11967W        W28151  11.177   3.608  14.148 -0.2892 -0.0638 -0.2011
11968W        W28152  12.378   1.828   5.203  0.1573 -0.0860 -0.0453
11969W        W28153  13.986  17.231   0.352 -0.1001 -0.0509 -0.0282
11970W        W28154  11.868   7.394  14.095 -0.2504 -0.1407  0.0046
11971W        W28155  16.397  17.408   3.789 -0.1819 -0.0024 -0.0432
11972W        W28156  17.714   8.922  13.018  0.0640  0.2373  0.3068
11973W        W28157  18.031   9.921  12.411 -0.1528 -0.0686 -0.1788
11974W        W28158  18.116   4.385  11.063  0.0485 -0.0735 -0.1628
11975W        W28159   3.833   8.674  13.736 -0.1453 -0.0012  0.0208
11976W        W28160  16.998   7.932   4.942  0.0376 -0.2398 -0.0795
11977W        W28161   5.721   8.598  14.055  0.1884  0.1018 -0.1670
11978W        W28162   0.775   5.572   3.378  0.2249  0.1762 -0.1644
11979W        W28163  15.905   7.071  14.888 -0.2791 -0.1659  0.2063
11980W        W28164  15.826  15.758   3.312 -0.1551 -0.1962  0.3294
11981W        W28165  18.678   2.797   1.585 -0.4316 -0.0680  0.0404
11982W        W28166  14.402  16.568  13.411 -0.5462  0.3815 -0.1822
11983W        W28167   7.604  17.023   5.383 -0.1046 -0.2707  0.0101
11984W        W28168  10.334  16.555   2.861 -0.0461  0.1459  0.0486
11985W        W28169   7.526   2.033   2.561  0.0513 -0.0017  0.1562
11986W        W28170  12.442   9.834  13.304 -0.0293 -0.1677 -0.1731
11987W        W28171  17.127  13.739   3.627  0.1550 -0.3551 -0.0344
11988W        W28172   6.095  12.557  13.045 -0.3011  0.0347  0.3361
11989W        W28173   0.914   1.538   3.206  0.1001 -0.1824  0.0118
11990W        W28174  16.484   9.431   2.064  0.0761  0.1370  0.1575
11991W        W28175   7.032   7.419   0.338 -0.2127  0.0850 -0.1502
11992W        W28176   6.122  12.577  12.023  0.0071  0.3022  0.1771
11993W        W28177  15.340   7.405  12.127  0.3026  0.1713  0.0556
11994W        W28178   2.305   2.362  13.977  0.2777 -0.2770  0.0892
11995W        W28179  18.178   7.281   3.239  0.1478 -0.3049  0.2280
11996W        W28180  17.103   1.513  11.296 -0.1513 -0.0874 -0.0545
11997W        W28181  15.404  17.968   9.995 -0.0880 -0.1770  0.1702
11998W        W28182   8.043  17.633   0.633  0.0904  0.0280 -0.0323
11999W        W28183  16.803   5.721   4.017 -0.2277  0.2154 -0.0761
12000W        W28184   2.147   4.947   4.989 -0.1554  0.1891  0.0965
12001W        W28185   3.322   8.934  12.965 -0.1059  0.0443  0.0233
12002W        W28186   8.546   6.371   4.120 -0.3116 -0.2169 -0.3867
12003W        W28187  17.931   0.613  13.160  0.3730 -0.0313  0.0773
12004W        W28188   6.005   2.496  14.769 -0.1932  0.0900  0.0598
12005W        W28189  15.108   5.019   1.750  0.1353 -0.0316 -0.0777
12006W        W28190   3.806  15.647   2.510 -0.0576 -0.0139 -0.1596
12007W        W28191  17.040  17.793   5.938 -0.0560  0.1074  0.2236
12008W        W28192  11.387  14.665   0.575  0.0137  0.0994  0.0100
12009W        W28193   8.674   3.431   1.768 -0.0099 -0.2366 -0.3989
12010W        W28194   7.450  11.898  12.978  0.0381  0.2319 -0.2798
12011W        W28195   6.363  17.796   0.340 -0.2433 -0.3470 -0.0747
12012W        W28196   9.201  13.722   4.792  0.0750  0.0655 -0.1600
12013W        W28197   4.770   2.273   0.161 -0.1056 -0.2285 -0.0504
12014W        W28198  11.499   3.822  14.597 -0.1842 -0.2213  0.0067
12015W        W28199  16.218  17.829   4.124 -0.1535 -0.1418 -0.1127
12016W        W28200  16.224   6.936   2.350 -0.0030 -0.2777  0.2979
12017W        W28201  17.790   7.094  12.492 -0.1570  0.2311 -0.2989
12018W        W28202   3.102   9.227   0.675 -0.0040  0.2753 -0.1236
12019W        W28203   6.095  14.608  10.834 -0.2893  0.3047 -0.0100
12020W        W28204   4.514   0.336  11.050  0.3164  0.0927 -0.2089
12021W        W28205  18.402  12.444  11.441 -0.2286 -0.0931  0.0427
12022W        W28206  15.815  12.141  11.688  0.1788 -0.1490 -0.1075
12023W        W28207   9.449   6.471  15.197 -0.1492 -0.0336 -0.3218
12024W        W28208  15.178   0.107  12.065 -0.4631  0.3253 -0.2163
12025W        W28209  10.557  10.349  13.434 -0.0964  0.2486  0.0161
12026W        W28210  14.582   8.704  10.080  0.3289  0.0866  0.0361
12027W        W28211   2.070   4.173   0.245  0.0986 -0.1980 -0.1093
12028W        W28212   8.595  16.680  12.694  0.0647  0.1552 -0.0802
12029W        W28213   9.549   4.932   1.819 -0.3586 -0.0815 -0.1078
12030W        W28214   8.324   1.855   5.254  0.0861 -0.1610 -0.2203
12031W        W28215   1.339  11.833  11.673 -0.2284  0.0488 -0.1075
12032W        W28216  10.732   4.314   0.298  0.2308  0.0343 -0.0036
12033W        W28217  16.353  16.712   2.130  0.0219  0.1974 -0.0068
12034W        W28218   8.811  18.015  14.069  0.1245 -0.2437 -0.0041
12035W        W28219   7.856   9.360   4.686 -0.0787 -0.0798  0.1224
12036W        W28220   8.746  15.054   3.494 -0.0373 -0.3388  0.1393
12037W        W28221  13.424  14.958   2.701 -0.1817 -0.3670  0.1742
12038W        W28222  14.351   9.727   3.444 -0.0854 -0.1404 -0.3140
12039W        W28223   0.415  14.228  12.445  0.0134 -0.0603  0.0071
12040W        W28224   6.538   3.549  14.615 -0.2891  0.1015  0.1276
12041W        W28225  11.416  17.333   4.277  0.3961 -0.2453  0.2041
12042W        W28226  17.148   4.671   3.957  0.1800  0.2409 -0.0757
12043W        W28227  12.602  12.127   3.408  0.2034  0.0023 -0.0449
12044W        W28228  18.614   0.736   5.279  0.2096 -0.0404  0.2313
12045W        W28229   0.601   1.993  15.434 -0.2603 -0.0739 -0.0616
12046W        W28230  18.286  11.537   1.164  0.0362  0.0710 -0.0697
12047W        W28231   2.963   4.418  11.788 -0.1790 -0.0772  0.0241
12048W        W28232  12.916  15.920   5.131 -0.1500  0.2370 -0.0079
12049W        W28233   3.554  18.134   0.263 -0.1182 -0.1050  0.0586
12050W        W28234   4.248  15.821   3.530 -0.3389  0.0190 -0.1055
12051W        W28235  17.901   2.669  14.408  0.2065  0.0482 -0.3073
12052W        W28236  11.016   7.490  13.570  0.0295  0.0997  0.0114
12053W        W28237  13.175  16.161  15.465  0.1667  0.0949 -0.1104
12054W        W28238   7.978  16.340  11.760  0.3168 -0.4108  0.0044
12055W        W28239   2.078   9.985   3.777  0.1495  0.0465  0.2420
12056W        W28240   1.125  16.926   3.638  0.0110 -0.3138 -0.2862
12057W        W28241  13.853  11.586  12.052  0.0192 -0.3438 -0.1322
12058W        W28242  16.663   6.720  13.336 -0.2699  0.0455 -0.0901
12059W        W28243   0.875   0.029  14.966 -0.1417 -0.0335  0.3308
12060W        W28244   4.878  16.752   3.547  0.1548  0.0282 -0.3962
12061W        W28245  15.670  15.474   3.725  0.0334 -0.0175 -0.0415
12062W        W28246   1.669  16.953  15.187  0.1574 -0.2676 -0.0077
12063W        W28247   5.850  14.496  14.881  0.0326  0.0447  0.0603
12064W        W28248   0.423  10.603  14.730  0.2898 -0.3118 -0.2287
12065W        W28249   5.520  16.437   2.932  0.0379 -0.0487  0.0983
12066W        W28250   9.635  10.229   0.035 -0.2262  0.1353 -0.1488
12067W        W28251  14.228   5.660   4.626 -0.0410  0.1711 -0.1103
12068W        W28252   7.936  17.764   1.135  0.0295 -0.0971 -0.0696
12069W        W28253  11.333   8.167  12.628 -0.1616 -0.2623  0.1264
12070W        W28254  16.688  17.464  14.296  0.1638  0.3016  0.1261
12071W        W28255  12.826   1.788   3.957 -0.1914  0.2508  0.1325
12072W        W28256   8.056   0.598  15.365 -0.0233 -0.2783  0.1704
12073W        W28257  16.523   2.977  13.419 -0.1972 -0.0600  0.2661
12074W        W28258  17.774  18.119  11.294 -0.0746  0.0040  0.2548
12075W        W28259  12.709   6.213   4.858 -0.1157 -0.1109  0.0819
12076W        W28260  16.395  14.379  11.115  0.1119 -0.0343  0.0341
12077W        W28261  11.098   0.921  11.372  0.1712  0.0383 -0.2104
12078W        W28262   3.445   2.543   0.655 -0.0663 -0.2214 -0.1659
12079W        W28263  13.474   0.878  12.481  0.1183  0.0595 -0.3303
12080W        W28264  14.819   5.903  10.895 -0.2018 -0.0372  0.2124
12081W        W28265  12.255   2.207  13.080 -0.0057  0.1019  0.0513
12082W        W28266   0.836  18.137   2.060  0.1487  0.0834  0.0965
12083W        W28267  18.675  14.352  14.720  0.0321  0.2217 -0.0575
12084W        W28268  17.266   3.373  12.225 -0.0920 -0.1771  0.0451
12085W        W28269  11.877  12.232   5.271  0.1242 -0.1194 -0.2589
12086W        W28270   3.715   3.528  11.035  0.0132 -0.2786  0.1008
12087W        W28271   5.726  14.642   2.263  0.0718  0.5023 -0.2052
12088W        W28272  18.096   2.816   2.329  0.4712 -0.0879  0.0912
12089W        W28273   9.212  13.847  11.563  0.0994  0.0070 -0.1757
12090W        W28274  15.785  15.353   1.714  0.2496  0.0321  0.1207
12091W        W28275  12.825  16.251   4.458 -0.2616  0.1518 -0.2909
12092W        W28276  13.246   5.200   0.263 -0.0669  0.0795  0.0486
12093W        W28277   0.948  17.906  14.984 -0.0542 -0.2849 -0.3690
12094W        W28278   3.789  17.475   4.953 -0.1600 -0.4668  0.0930
12095W        W28279   2.879  13.930  14.860  0.0809  0.0351 -0.1541
12096W        W28280  14.128   5.619   1.486 -0.3577  0.0503  0.1932
12097W        W28281   3.201  12.701   1.687  0.0291 -0.3326 -0.0917
12098W        W28282  10.119  15.537   4.948  0.0530 -0.1954  0.3511
12099W        W28283   8.065  13.257  13.404 -0.0476  0.1450  0.3347
12100W        W28284  13.362   2.886   3.203  0.1718  0.2177  0.0919
12101W        W28285  17.049   9.790   2.114 -0.0803  0.3755  0.0931
12102W        W28286   6.732  15.386   1.647 -0.1605  0.1456  0.0426
12103W        W28287  12.755  17.263   4.655 -0.0108 -0.0306 -0.2260
12104W        W28288   6.559   6.660   4.333  0.1063  0.3595  0.1384
12105W        W28289  11.149   4.333   4.472  0.2783  0.0315 -0.0575
12106W        W28290   7.788   2.787  11.969 -0.3458  0.3461  0.0430
12107W        W28291  18.648   4.360   1.377  0.0168  0.0334  0.2269
12108W        W28292   2.187  17.541  10.553  0.1577  0.1119  0.1063
12109W        W28293  10.050   5.838   3.044  0.0983  0.1275  0.0994
12110W        W28294   7.898  18.550  15.015 -0.0844 -0.1120  0.0070
12111W        W28295   7.876  16.754  14.870  0.2313  0.3066  0.1736
12112W        W28296   9.648  12.285   0.852 -0.3585  0.0501  0.2710
12113W        W28297   3.471   7.849  12.801 -0.1669  0.0570 -0.1382
12114W        W28298   7.443   6.679  14.296  0.0156  0.1851 -0.0443
12115W        W28299  16.041  10.135   3.030  0.1484  0.0660  0.0479
12116W        W28300   2.875   8.992   5.670  0.4461  0.0536 -0.4515
12117W        W28301   3.069  16.814   1.704 -0.1087 -0.0540 -0.2176
12118W        W28302   1.330   6.938   2.150  0.0300 -0.1518 -0.0217
12119W        W28303  16.428  18.634  12.893 -0.4001 -0.0117 -0.1502
12120W        W28304  17.023  10.281   1.911  0.1455  0.0847  0.3967
12121W        W28305   2.504  13.298  15.224 -0.1680 -0.0018 -0.2611
12122W        W28306   4.093   6.713   4.809 -0.2268 -0.0260 -0.0843
12123W        W28307   1.588   1.874  13.799 -0.0735  0.1537  0.1479
12124W        W28308   4.110  15.569   5.691  0.1879 -0.2685 -0.1566
12125W        W28309   4.291   3.325  11.240  0.0699 -0.2690  0.2603
12126W        W28310   8.858   1.920   0.707  0.0452  0.1445 -0.0338
12127W        W28311   4.792  15.749  11.722  0.1761 -0.0217  0.0162
12128W        W28312   3.602  13.524   0.582  0.1086 -0.3995  0.1114
12129W        W28313  11.226   2.535   2.214 -0.0994 -0.1755  0.1802
12130W        W28314  12.218  17.548  11.962  0.1709  0.0216 -0.2411
12131W        W28315  11.498  15.255   2.551 -0.0582  0.0234 -0.1281
12132W        W28316   9.896   1.697   2.833 -0.0132  0.0235  0.0932
12133W        W28317  17.205  15.769  14.565 -0.0187 -0.1784  0.2909
12134W        W28318  10.101   7.451  13.754  0.1343  0.4392 -0.0359
12135W        W28319  10.959   6.941  13.901  0.1773  0.0688 -0.0151
12136W        W28320  16.313  14.272   3.381 -0.4236 -0.0326 -0.0200
12137W        W28321  16.410  10.693   9.948 -0.3508  0.1062  0.1235
12138W        W28322   3.331  14.443  15.124 -0.1265  0.0421 -0.1531
12139W        W28323  17.070  13.837  13.781 -0.3869 -0.5007  0.2079
12140W        W28324  14.204  11.705  12.493  0.0376 -0.0788  0.1030
12141W        W28325   4.560   5.950  12.676 -0.0386 -0.2918  0.0396
12142W        W28326   8.981   7.521   3.288  0.1063  0.4325 -0.0434
12143W        W28327  18.152   8.360  13.563 -0.1656 -0.1477  0.2032
12144W        W28328  12.093   3.482  15.038  0.1007 -0.1430 -0.1683
12145W        W28329  17.735   8.642   5.399 -0.0413 -0.0501  0.2377
12146W        W28330  10.850  13.537  12.687  0.0082 -0.1876 -0.0495
12147W        W28331  18.129   8.578  12.543  0.4240 -0.1594 -0.0328
12148W        W28332   3.090   3.883   5.039  0.1146 -0.1005 -0.0663
12149W        W28333  12.097  11.777   5.095  0.1552  0.1968  0.3557
12150W        W28334   3.543  15.719  14.921 -0.0409 -0.2591 -0.0275
12151W        W28335   9.740   6.412  14.743  0.1799 -0.1665 -0.1175
12152W        W28336  16.349   6.498  14.495 -0.1328 -0.0204  0.2174
12153W        W28337  12.548   6.374   5.298 -0.0547  0.3979  0.3349
12154W        W28338  18.594  15.052  12.151 -0.0615  0.4378  0.4423
12155W        W28339   7.350  11.189   1.487  0.2243 -0.3866 -0.4477
12156W        W28340   6.986  11.348   4.245  0.2379  0.3452 -0.0154
12157W        W28341   4.217   8.561  14.137  0.0147 -0.0903 -0.4078
12158W        W28342  16.342   4.514  14.433  0.1611  0.1388 -0.0626
12159W        W28343  15.796   0.539   4.915 -0.0353 -0.0209  0.2124
12160W        W28344   1.095   8.843  13.602  0.0784 -0.0160 -0.1956
12161W        W28345  15.800  12.946  13.847 -0.2303 -0.0701 -0.3450
12162W        W28346   9.239   2.745   0.350  0.3857 -0.0930 -0.1961
12163W        W28347   3.357   0.554  14.528  0.0004  0.1228  0.2060
12164W        W28348   0.437   6.341   2.014 -0.1304  0.0046 -0.0144
12165W        W28349   3.793  15.698  10.842  0.0732  0.0554  0.0873
12166W        W28350  16.527   5.638   3.140 -0.1745  0.0538  0.0692
12167W        W28351   3.212   0.173  15.528  0.0020  0.0259 -0.4910
12168W        W28352  16.994  12.561  11.561  0.1407 -0.1117  0.3127
12169W        W28353   7.601   0.184  12.629 -0.0803 -0.0507  0.5512
12170W        W28354  17.358   8.048   1.694 -0.0303 -0.1807  0.1281
12171W        W28355  17.442  10.265  11.891  0.1747 -0.2195  0.1209
12172W        W28356   1.993   0.770   3.455 -0.4685  0.3238  0.1511
12173W        W28357   1.664  18.759  14.662 -0.2315  0.1111  0.2875
12174W        W28358  17.216   2.364  12.501 -0.3904  0.0009 -0.2586
12175W        W28359   7.005  14.712   0.531  0.1804 -0.2410  0.1086
12176W        W28360   1.144   8.997   3.891  0.0432 -0.1746  0.1544
12177W        W28361   9.292  14.923  13.453 -0.1074  0.1028  0.1327
12178W        W28362  17.045   9.140   2.748 -0.4264  0.1221  0.1905
12179W        W28363  17.371   4.847  11.655 -0.1186  0.0775 -0.2182
12180W        W28364   6.311  17.351   0.502  0.1971  0.0669  0.2014
12181W        W28365  17.984   8.879   3.354 -0.1143 -0.0888 -0.0460
12182W        W28366  18.412   9.474   2.915 -0.0789 -0.0829 -0.1648
12183W        W28367   2.063  17.863   1.890  0.0644 -0.0216  0.0417
12184W        W28368  10.724   5.960  14.164  0.0540  0.2460  0.2980
12185W        W28369   1.276  14.524  13.422  0.1452  0.2268  0.1497
12186W        W28370  17.585   7.996   0.350 -0.1734  0.1602  0.0711
12187W        W28371   7.854   0.816   5.109  0.0428  0.4450  0.3656
12188W        W28372   2.007  13.895   5.530  0.0585  0.0350 -0.2510
12189W        W28373  13.444  16.541   1.514  0.1289  0.0083  0.1699
12190W        W28374   7.576   5.163   4.355  0.2374 -0.3025 -0.2560
12191W        W28375   5.066  11.568  11.997 -0.2535 -0.0670 -0.1298
12192W        W28376  12.866   4.461  12.851 -0.1532 -0.2304  0.0699
12193W        W28377  12.775  12.187   5.563 -0.1672  0.0475 -0.1501
12194W        W28378   6.972  16.361  14.002 -0.1392 -0.3778  0.0060
12195W        W28379   4.813   9.727   0.169 -0.1659 -0.1161  0.0381
12196W        W28380   4.517   2.669  14.933 -0.1626  0.2347 -0.1218
12197W        W28381   8.113   6.973  11.722 -0.0079  0.0013  0.1251
12198W        W28382  17.970  14.653   0.838 -0.2132 -0.3128  0.0193
12199W        W28383   1.535   2.488   0.681 -0.0259 -0.2595  0.1074
12200W        W28384   1.693   6.306   3.690  0.0302  0.0772 -0.3280
12201W        W28385  16.815  12.208   2.943 -0.0203  0.3280  0.2606
12202W        W28386   5.737   0.717  11.206  0.0734 -0.2723 -0.1194
12203W        W28387   4.450   2.695  12.208 -0.0052 -0.1663 -0.1451
12204W        W28388  18.206   0.949  11.220 -0.0189  0.2728  0.0012
12205W        W28389  13.643  12.408   4.488 -0.0867  0.0507 -0.0009
12206W        W28390   4.410   9.992  13.488 -0.2304 -0.0290 -0.1470
12207W        W28391  10.528   1.733  12.555 -0.1830  0.0151  0.4075
12208W        W28392  14.308   7.479  12.018 -0.1568  0.0467 -0.1586
12209W        W28393  13.302   2.664   1.455  0.0718 -0.0488  0.1035
12210W        W28394  17.163   0.160   4.800  0.0108 -0.0597 -0.2048
12211W        W28395  12.278   2.390   2.964 -0.1922  0.0691 -0.0801
12212W        W28396   4.420  12.555  11.450  0.0243 -0.1366  0.0682
12213W        W28397  18.318   0.579   5.705  0.1660  0.1891  0.0145
12214W        W28398   1.336   3.973  12.266 -0.0090 -0.2042  0.2021
12215W        W28399  16.376   0.059   4.534 -0.0253  0.0077 -0.0168
12216W        W28400  14.002   8.929  10.883  0.2506  0.2404  0.0296
12217W        W28401   3.704   7.250   5.571  0.1729  0.1017 -0.3851
12218W        W28402   8.529   9.452   5.464  0.2858 -0.2487  0.0346
12219W        W28403  10.833  16.691  13.431 -0.0548 -0.1324  0.0574
12220W        W28404  15.571  11.042   3.961  0.3485 -0.2798  0.1119
12221W        W28405   8.443  14.438  11.429 -0.2315  0.0242 -0.3438
12222W        W28406   2.109  12.996  12.959 -0.4693  0.0414 -0.1898
12223W        W28407  13.384   3.268   0.511  0.1899  0.0640  0.1283
12224W        W28408   3.866  18.211  15.255  0.2878  0.0112 -0.0357
12225W        W28409  14.900  15.352  12.521  0.1398  0.1820  0.1567
12226W        W28410  12.947   5.410   5.004  0.2089  0.2010  0.0065
12227W        W28411  13.347   0.315   3.275 -0.0523  0.0380 -0.2220
12228W        W28412   0.015   5.213  15.279 -0.1705 -0.4184 -0.0304
12229W        W28413   0.481  16.450  12.408  0.0953  0.3439 -0.0445
12230W        W28414   7.140   7.304   0.989 -0.1424 -0.0973  0.1013
12231W        W28415   7.607   3.206  13.349 -0.0114  0.2827 -0.2080
12232W        W28416  18.641  16.824  14.310 -0.3264 -0.0925  0.4037
12233W        W28417   6.470  17.360   2.978  0.2029  0.0769 -0.0973
12234W        W28418   7.498   9.284  14.255 -0.0212 -0.0876 -0.2597
12235W        W28419   7.215  17.851   4.822  0.0193 -0.0727  0.2740
12236W        W28420  12.303  12.226   1.435 -0.0694  0.1293  0.0506
12237W        W28421  12.672  16.975   5.128 -0.0785 -0.1465  0.0527
12238W        W28422   4.554  11.321  11.452 -0.0449 -0.0534 -0.2393
12239W        W28423   2.701   6.180   0.745  0.2336 -0.2148  0.0684
12240W        W28424   7.896   2.905  14.527  0.0743 -0.1900 -0.0950
12241W        W28425  12.250  11.786  14.700  0.0570 -0.1809  0.1361
12242W        W28426  12.323  17.367   0.360  0.1616 -0.1405 -0.0747
12243W        W28427  17.456   5.171  10.826  0.0273  0.0965  0.0007
12244W        W28428  15.350  16.241   1.775 -0.1955 -0.2757  0.0439
12245W        W28429   6.527  12.108  10.757  0.0043 -0.0350 -0.2055
12246W        W28430   8.640  10.884   2.071 -0.0313 -0.0858 -0.0374
12247W        W28431  12.700   7.037   2.753 -0.0088 -0.1776 -0.2176
12248W        W28432   1.833  12.022   3.269 -0.0236  0.2394 -0.0457
12249W        W28433   1.303   2.774   1.571 -0.0872 -0.0558 -0.0390
12250W        W28434   4.160  11.258   1.332  0.1320  0.1021 -0.2708
12251W        W28435  17.387   1.188   5.555  0.3462 -0.0664 -0.2881
12252W        W28436  12.018  18.383   1.839 -0.0003  0.3685  0.1609
12253W        W28437  16.325   1.999  10.750  0.3123  0.0103  0.2257
12254W        W28438  15.096  12.124  12.633 -0.1977 -0.2746  0.0084
12255W        W28439  18.616   9.489  11.847 -0.3789 -0.0198  0.3416
12256W        W28440  10.889   5.824  13.664  0.0209  0.0118  0.1085
12257W        W28441  14.444   1.320  10.078 -0.3042 -0.0005  0.0582
12258W        W28442   9.202  14.707   1.290 -0.0348  0.0991 -0.0031
12259W        W28443  16.403  16.239   2.897  0.1486 -0.2260  0.2485
12260W        W28444   5.033  10.321   3.847  0.0491  0.1727  0.2144
12261W        W28445   5.222   0.810  11.301 -0.1882 -0.1538  0.0383
12262W        W28446   4.868  17.542  10.945  0.1362  0.0658 -0.0315
12263W        W28447  17.671  16.196  12.510 -0.0621 -0.0452 -0.2232
12264W        W28448  10.674   5.546   0.385 -0.0463  0.0167  0.1547
12265W        W28449   1.319  14.061   3.843  0.1693 -0.2566  0.0605
12266W        W28450  13.447   4.114  15.269  0.2726 -0.1493  0.1470
12267W        W28451  13.111   5.183   3.877  0.2277  0.0352  0.1354
12268W        W28452  15.673   3.590  11.499  0.0811 -0.1470  0.0074
12269W        W28453  12.884  14.445  13.851 -0.1838 -0.0570  0.3041
12270W        W28454   1.291  16.555   1.079 -0.0908  0.1504  0.0016
12271W        W28455   8.463   0.466  13.624  0.5287  0.4060  0.2599
12272W        W28456   4.333   0.907  10.967  0.0582  0.3298 -0.3635
12273W        W28457  15.978   6.288   2.798 -0.3868 -0.1538  0.2235
12274W        W28458   5.158  18.632   0.760 -0.2720 -0.4702 -0.2692
12275W        W28459  15.214   2.681   2.189 -0.1328 -0.0788  0.3435
12276W        W28460  10.888   1.496   3.181 -0.0089 -0.1649 -0.0567
12277W        W28461  18.345   6.351  13.621  0.0741  0.1567 -0.4508
12278W        W28462   4.621   1.773  14.385  0.2684  0.0678 -0.1322
12279W        W28463   5.675  11.089   0.269  0.0921  0.0828 -0.0626
12280W        W28464   5.566  13.307   3.155  0.1083 -0.1557  0.0178
12281W        W28465   4.098   6.717  12.763 -0.2670  0.1957  0.1903
12282W        W28466   2.341  15.621   3.960  0.1394  0.1752  0.0531
12283W        W28467  17.156  13.437   1.970 -0.1133  0.3307  0.0034
12284W        W28468  11.591   1.587  13.506 -0.1610  0.1959  0.3060
12285W        W28469  11.647   8.840  12.328  0.0460  0.0391 -0.1751
12286W        W28470   3.829   4.188   3.569 -0.1995 -0.0136 -0.1554
12287W        W28471   6.256  11.863  11.212 -0.0467  0.0478 -0.1853
12288W        W28472  18.054  13.917  13.404 -0.1435 -0.0835  0.4177
12289W        W28473   8.286   6.470   2.766 -0.1790  0.1535 -0.1605
12290W        W28474   2.440   3.842  13.900 -0.3959 -0.0552 -0.3731
12291W        W28475   2.200   6.940  14.929  0.1679 -0.2812  0.3149
12292W        W28476  12.837   9.805  13.839 -0.1912  0.0772  0.3371
12293W        W28477   0.374  12.598   1.022  0.0233  0.0229 -0.3205
12294W        W28478   8.067   6.541   3.473  0.0120  0.0013 -0.0328
12295W        W28479   8.523  16.990  14.034  0.2025 -0.1549 -0.2015
12296W        W28480  16.825  15.566   4.231 -0.0919  0.0440  0.1145
12297W        W28481   5.982  18.673   3.964 -0.1650 -0.0120  0.1020
12298W        W28482   6.881  12.611  12.564 -0.1662  0.0248 -0.1700
12299W        W28483   5.005   2.726   4.906 -0.3046  0.0845 -0.2065
12300W        W28484  13.446  14.877  11.304  0.2040  0.2904  0.0880
12301W        W28485   9.760  17.588   3.405  0.0838  0.2112 -0.1313
12302W        W28486   8.744   0.007   4.744  0.0094  0.2024  0.1851
12303W        W28487  17.190  11.837   0.246  0.0476  0.0245  0.1720
12304W        W28488   9.371  17.476  14.749 -0.3122 -0.2416 -0.0256
12305W        W28489  17.526   1.576   2.934 -0.2154 -0.3350  0.0455
12306W        W28490  14.331   1.741  13.381  0.2419  0.1443 -0.2173
12307W        W28491  13.549   6.034   0.260 -0.0931  0.2047 -0.1715
12308W        W28492   7.161   0.374  12.171 -0.1608  0.1625  0.1830
12309W        W28493  14.962  16.855  12.520  0.0278 -0.2336  0.1926
12310W        W28494   3.927  14.500  10.654  0.3627 -0.0729 -0.1541
12311W        W28495   9.439   6.941  12.059  0.0578 -0.2011  0.1326
12312W        W28496   8.466   8.189  14.163  0.2108  0.0369 -0.2249
12313W        W28497   1.498   0.030  13.126 -0.0058 -0.1076 -0.1827
12314W        W28498  11.237   5.479  12.880  0.0183 -0.0396 -0.0278
12315W        W28499  16.344   6.819   2.931  0.1666 -0.0532  0.0778
12316W        W28500  14.708   7.406  12.712 -0.1435 -0.1466  0.0559
12317W        W28501  11.261  11.126   2.925  0.0705 -0.0945 -0.1418
12318W        W28502  17.778  17.442   1.432  0.0741  0.0704  0.2273
12319W        W28503  15.635  16.727   0.738 -0.0564  0.0198 -0.1141
12320W        W28504   2.324  14.136  14.059  0.2616 -0.1033 -0.0016
12321W        W28505  18.596   7.500  14.142  0.0644 -0.1557  0.1998
12322W        W28506  10.118  13.954  10.719 -0.0424 -0.0729  0.2422
12323W        W28507   9.963   3.353  13.230 -0.0424 -0.1202  0.0806
12324W        W28508   6.054   7.766   1.457  0.1180  0.2863  0.2767
12325W        W28509  17.806  16.401   0.836  0.2404  0.1428 -0.0775
12326W        W28510   4.000  18.187  11.799  0.3529 -0.0149 -0.3636
12327W        W28511   3.719   2.253   2.372 -0.0327 -0.1129  0.0044
12328W        W28512   0.751   3.726   4.103 -0.0251  0.0288  0.0638
12329W        W28513   2.077   8.775   4.397  0.3694  0.3378  0.1045
12330W        W28514  13.029  15.073   5.149 -0.1946  0.0918 -0.3153
12331W        W28515  10.906   8.722   4.528  0.1148  0.2403 -0.0559
12332W        W28516   1.418   5.350  10.713  0.2272  0.0593  0.0517
12333W        W28517  16.298  13.512  14.034 -0.0896 -0.0170 -0.2236
12334W        W28518   1.451  18.414   4.727 -0.1512 -0.0589  0.0456
12335W        W28519  14.505  13.551   0.407 -0.1464  0.0556  0.0978
12336W        W28520  13.742   4.684   4.840  0.0034  0.0533 -0.0060
12337W        W28521   9.196   6.820  14.257 -0.1521 -0.0867 -0.1958
12338W        W28522   7.484  13.854  15.024 -0.1019  0.3397 -0.3215
12339W        W28523   4.602   3.428   0.899 -0.3336  0.4157  0.1300
12340W        W28524  16.612   9.619  11.902  0.0158 -0.3467 -0.0975
12341W        W28525   9.944   7.692  15.230 -0.1289  0.4869  0.1715
12342W        W28526  13.654  14.901  15.206 -0.0569  0.1323 -0.1426
12343W        W28527  17.883   8.560   4.489  0.3223  0.0093  0.1181
12344W        W28528   4.173   6.367  11.582  0.1072  0.2085 -0.0455
12345W        W28529  12.688   9.566   1.783  0.2490 -0.3252  0.1437
12346W        W28530  16.348  12.523  14.673  0.0316  0.0604 -0.1881
12347W        W28531  11.167  11.871  15.527 -0.0537 -0.2305  0.0395
12348W        W28532   8.563  14.297  13.811 -0.0654 -0.1108  0.1963
12349W        W28533   0.784   8.986  14.077 -0.4741 -0.0603  0.0439
12350W        W28534   7.239  14.896   5.453 -0.1019  0.2706 -0.0268
12351W        W28535  10.390   4.230   1.017  0.0559 -0.4235  0.1499
12352W        W28536   8.860  15.759   1.849 -0.1907 -0.1141  0.0352
12353W        W28537  14.465  10.703  11.167 -0.1300  0.0656  0.1763
12354W        W28538  16.902   8.004  11.272 -0.1624 -0.0697 -0.1128
12355W        W28539   6.325   7.152   4.254 -0.0567  0.4080 -0.0635
12356W        W28540  16.096   0.423   3.363 -0.2411 -0.1204  0.1273
12357W        W28541   3.148  16.228  13.998  0.2423  0.3021 -0.3779
12358W        W28542  15.474  16.433  14.649  0.1044 -0.2304  0.0416
12359W        W28543   3.299  17.226   1.860  0.0239 -0.2054  0.3578
12360W        W28544   5.321   3.846  11.060  0.0603  0.0484 -0.0465
12361W        W28545  12.848  11.053   1.303 -0.4778 -0.0037 -0.0433
12362W        W28546   5.615  13.198  12.346 -0.2587  0.0026 -0.4574
12363W        W28547   3.100  11.250   3.696 -0.1017  0.0327 -0.2678
12364W        W28548   1.929   0.051   1.938  0.1569  0.1010  0.0140
12365W        W28549  18.259   1.639   2.374  0.0581  0.2051 -0.2069
12366W        W28550  17.038   3.170   9.532  0.2400  0.0328  0.5309
12367W        W28551   6.742   1.544  14.660  0.0380  0.0227  0.1604
12368W        W28552  16.583   1.837   1.192  0.2927  0.0236 -0.0591
12369W        W28553   3.403  15.575   0.433  0.0662 -0.0061 -0.0658
12370W        W28554   0.180  10.681  11.077 -0.1213 -0.1106  0.0901
12371W        W28555   9.556  17.076   0.603 -0.4293 -0.3353  0.3868
12372W        W28556   1.176  18.384   2.317  0.1597 -0.0477 -0.1187
12373W        W28557  17.259   5.561  10.348  0.1632  0.0922  0.0351
12374W        W28558  10.729  18.002  13.767 -0.0251 -0.0799  0.2913
12375W        W28559   3.999   7.419  14.256  0.0812  0.1793  0.1024
12376W        W28560   4.228   3.424   2.902 -0.1157  0.0386  0.0423
12377W        W28561  11.342  16.295   3.175  0.2804  0.3045  0.0185
12378W        W28562   0.890   7.449  11.801  0.1176 -0.2358 -0.2501
12379W        W28563  17.956   3.138  10.717 -0.1435  0.1155  0.3207
12380W        W28564   6.399  14.743  14.257 -0.0912  0.1360 -0.0357
12381W        W28565   7.630   7.639   3.311  0.2346 -0.0355  0.2370
12382W        W28566  10.968   1.714   5.040 -0.2618 -0.2449 -0.1911
12383W        W28567  13.454  18.443   0.930  0.1001  0.0445 -0.1476
12384W        W28568  13.260  10.516   2.858  0.0738 -0.1512  0.0942
12385W        W28569   9.053   2.199   3.883  0.1387  0.3434  0.0669
12386W        W28570   7.030  11.236   9.726  0.0817  0.0730 -0.5123
12387W        W28571  12.767   8.884  11.971 -0.2702  0.1957 -0.1810
12388W        W28572   0.564  16.568   2.908 -0.0934  0.1546  0.1156
12389W        W28573   1.947   3.556  12.642 -0.3430 -0.3178  0.1444
12390W        W28574   6.846  14.035  12.281  0.1248  0.0711  0.1428
12391W        W28575   3.116   8.980   2.345  0.4519  0.1328  0.0229
12392W        W28576   1.582   1.513   2.281 -0.4354 -0.2358 -0.0105
12393W        W28577   4.074   3.260  12.821  0.0266  0.0009 -0.3023
12394W        W28578  17.286  18.265   0.922  0.0674  0.2563  0.0063
12395W        W28579   1.850  11.000   1.788  0.2257 -0.3812  0.2327
12396W        W28580   1.051  14.964   1.092  0.3311 -0.0340  0.1310
12397W        W28581  12.307  10.882  11.865 -0.0787  0.1012 -0.2038
12398W        W28582  18.767   6.512  10.712 -0.1778 -0.1643 -0.0942
12399W        W28583   2.396   8.051   0.254 -0.0745 -0.1719 -0.0161
12400W        W28584  15.103   6.825   5.450 -0.1177 -0.2621 -0.2737
12401W        W28585  10.631   6.285   3.716 -0.0881 -0.1270  0.1929
12402W        W28586   5.052  16.557  11.185 -0.0966  0.2468  0.1442
12403W        W28587  14.994  18.365   4.073 -0.3609  0.1335 -0.2374
12404W        W28588  11.907   4.796   5.019  0.1040  0.0071  0.0746
12405W        W28589  12.905   1.084   0.098 -0.1984  0.4338  0.1226
12406W        W28590   7.103   7.926  11.033  0.0611  0.1038  0.0354
12407W        W28591   8.852  13.826   2.622 -0.1780  0.0435 -0.2699
12408W        W28592   3.803   8.947   3.924 -0.1606  0.1362 -0.2975
12409W        W28593   6.103   8.294   3.775 -0.1831  0.0888  0.3510
12410W        W28594  12.267   6.972  13.369  0.1688 -0.0294  0.2874
12411W        W28595  12.043  15.173   0.092  0.3440  0.3269  0.1301
12412W        W28596   7.093   9.536   3.508  0.0863 -0.0363 -0.2131
12413W        W28597   1.358   5.907  12.807 -0.1203  0.0479  0.4599
12414W        W28598  12.977  12.074  13.768 -0.2092 -0.2718 -0.3699
12415W        W28599  14.341  12.308   2.328  0.2483 -0.0038 -0.2566
12416W        W28600  13.587  14.437   2.444  0.0902  0.1365  0.2894
12417W        W28601   8.459   6.131  14.249 -0.1828  0.0161  0.0397
12418W        W28602   6.598   4.751   3.364  0.0455 -0.2023 -0.0954
12419W        W28603  14.403  15.413   0.423  0.0390  0.1269 -0.0812
12420W        W28604  18.083  14.711   2.212 -0.1513 -0.0160 -0.2466
12421W        W28605  18.479   2.231  10.899 -0.0835  0.3321  0.0237
12422W        W28606   5.072   8.160   0.696 -0.0271  0.0738 -0.1817
12423W        W28607   8.270   3.776  14.430 -0.2139 -0.0009 -0.2825
12424W        W28608  10.749   4.988   2.446  0.0523 -0.0971 -0.1131
12425W        W28609   2.526  15.786   5.392  0.1480  0.0566  0.1314
12426W        W28610   3.851   1.193  15.511 -0.0485  0.0659  0.0128
12427W        W28611  13.059  17.161  13.548  0.2618 -0.2871  0.1850
12428W        W28612  17.868  11.795  14.679  0.0855 -0.1381 -0.0411
12429W        W28613   3.984  10.333  14.318  0.0074 -0.3200  0.1066
12430W        W28614  15.749   8.235   1.848  0.4341 -0.1262  0.0011
12431W        W28615   2.305  14.839   1.002  0.1369  0.2475 -0.1138
12432W        W28616   0.622   0.898   4.510 -0.2242  0.1534 -0.0550
12433W        W28617   5.885  10.884  15.356 -0.0418  0.1910  0.4758
12434W        W28618   0.123   8.962  12.672  0.0156  0.1167 -0.3985
12435W        W28619  11.609  11.535   1.600  0.0476 -0.0682  0.1225
12436W        W28620  16.123  14.264  13.349  0.1349 -0.0607 -0.0802
12437W        W28621  12.091  13.220   4.072 -0.1757 -0.1892 -0.0998
12438W        W28622  17.038   4.895   1.060  0.2314  0.0537 -0.0788
12439W        W28623  13.383  12.032   4.767 -0.1184 -0.2494  0.0133
12440W        W28624  18.076   1.035   0.311 -0.2710 -0.2131  0.1856
12441W        W28625  15.754  14.154   2.037  0.0250  0.1629  0.0211
12442W        W28626   6.061   3.263   2.043 -0.0857 -0.1110  0.2540
12443W        W28627   2.450  15.666   9.753  0.0849 -0.2093  0.0400
12444W        W28628  15.952   8.479  11.399  0.2224 -0.0107 -0.1627
12445W        W28629  17.373   4.484  14.146 -0.2759 -0.2870 -0.2158
12446W        W28630  15.043  15.065  15.337 -0.1457 -0.1153  0.0994
12447W        W28631   6.148  14.023  12.397 -0.0961 -0.1768  0.1255
12448W        W28632   4.943   1.794   0.146  0.1154 -0.2035  0.0709
12449W        W28633  15.483   5.289   0.824  0.6167  0.3517  0.0142
12450W        W28634  18.336  10.377   4.887  0.0420  0.1600 -0.0773
12451W        W28635   9.216   7.207   4.025 -0.1138 -0.1572 -0.2328
12452W        W28636   4.178   4.483   4.399 -0.0242  0.0061  0.0672
12453W        W28637  14.633  14.920  13.440 -0.3854  0.1937  0.0747
12454W        W28638   6.007  17.906  13.520  0.1539  0.1302  0.1929
12455W        W28639   5.362   0.233  14.789  0.1037  0.1722 -0.3120
12456W        W28640  10.947   4.490  14.554 -0.1984  0.1064 -0.3415
12457W        W28641   0.003  11.170  12.686  0.0807  0.0018 -0.4220
12458W        W28642   3.464  16.946  12.765  0.1894 -0.1087 -0.1742
12459W        W28643   0.228   8.458   1.571 -0.0181 -0.3665  0.0955
12460W        W28644   3.444  15.973  10.682 -0.1913  0.5004 -0.2900
12461W        W28645  12.437  17.146  14.552 -0.0040  0.0837 -0.3283
12462W        W28646   8.384   9.383   4.990  0.0823  0.1468  0.2042
12463W        W28647   3.783   5.414   4.288  0.1943 -0.0906 -0.2214
12464W        W28648   3.466   8.572  12.187 -0.2778 -0.3290  0.1119
12465W        W28649  13.082  10.182   3.163 -0.0224 -0.2650 -0.1149
12466W        W28650   6.313   8.279   2.274 -0.1214 -0.1026  0.4652
12467W        W28651   3.102  11.656   3.360  0.0018  0.2633 -0.0506
12468W        W28652  10.924   8.051   5.009 -0.2437  0.1516  0.0566
12469W        W28653   4.390  18.199   3.170 -0.0511 -0.1853  0.2707
12470W        W28654   7.423   7.128  14.507  0.0838  0.0857 -0.1487
12471W        W28655  17.502   7.558   1.567 -0.4179  0.1950  0.1771
12472W        W28656   1.901  14.887   4.561  0.0660  0.2510  0.0605
12473W        W28657  15.697   6.589  13.411 -0.4128  0.3795 -0.2007
12474W        W28658   2.977  13.848   2.563 -0.1207 -0.1572 -0.1732
12475W        W28659   3.807   0.093   0.433  0.0726 -0.3119  0.0274
12476W        W28660  15.890   6.505  14.109 -0.2280  0.1238 -0.1349
12477W        W28661   3.528   2.416  10.831  0.0009  0.1695 -0.1944
12478W        W28662   7.111  18.728  14.829 -0.0608 -0.4845  0.0121
12479W        W28663   4.965  15.348   1.566 -0.2037 -0.2955 -0.0684
12480W        W28664   9.698   7.764  12.407  0.0079  0.1576 -0.1014
12481W        W28665   2.951  11.225  10.488 -0.0148  0.1039 -0.1277
12482W        W28666  11.332   2.524  14.426 -0.0138 -0.0125 -0.3196
12483W        W28667  12.070   8.213   0.630  0.0846 -0.0825 -0.1949
12484W        W28668  17.092   6.387  15.238 -0.0674 -0.0205 -0.2241
12485W        W28669   3.911   0.181   4.394  0.2788  0.1082  0.2495
12486W        W28670   0.653  16.876  11.021 -0.0580  0.2879 -0.1435
12487W        W28671   7.499  10.037  15.252 -0.2148 -0.0538  0.4220
12488W        W28672  17.581   3.709   2.897  0.2613 -0.1044  0.0879
12489W        W28673   0.706   8.415  11.357  0.1738 -0.0312  0.0776
12490W        W28674  17.647   6.776   3.674 -0.0712  0.0421 -0.1185
12491W        W28675  16.442  12.752   2.269 -0.1837 -0.0522  0.0763
12492W        W28676  16.075   6.178   4.723  0.0377  0.0483  0.1619
12493W        W28677  10.627   6.015  12.586 -0.4931 -0.1680  0.3188
12494W        W28678   9.101  10.424   2.591  0.1997  0.1252  0.2423
12495W        W28679  11.174   2.929  14.188 -0.2140 -0.2654  0.0134
12496W        W28680   6.668  12.741   3.316  0.0666 -0.1443 -0.1843
12497W        W28681   0.987   6.556  10.929  0.0546 -0.0449  0.0381
12498W        W28682   0.640  12.700   4.613  0.0963  0.1842  0.0930
12499W        W28683   2.024  14.897   5.240  0.1602 -0.0268  0.3529
12500W        W28684   4.527  15.161   2.854 -0.2845  0.1024 -0.0864
12501W        W28685  13.820   6.776  13.410 -0.3527  0.1257 -0.0895
12502W        W28686  10.643   0.340  11.579  0.1743 -0.0152  0.0270
12503W        W28687   3.239   5.983   5.217 -0.1174  0.1464 -0.0005
12504W        W28688   4.661  15.558   2.500 -0.2624 -0.0882 -0.1043
12505W        W28689  16.664  15.551   3.712 -0.0775  0.0552  0.1053
12506W        W28690   2.385   7.583   2.679 -0.1398  0.2004 -0.0641
12507W        W28691   9.095   5.433   1.654  0.2141  0.0235  0.1791
12508W        W28692  14.324   4.775  11.768  0.1358  0.0416 -0.1280
12509W        W28693   2.894   3.618   4.068  0.0295 -0.2186 -0.2450
12510W        W28694   0.804   0.877  13.598 -0.2673 -0.0220  0.2188
12511W        W28695  15.626   5.737   2.812  0.0425 -0.0936  0.1007
12512W        W28696   5.732   3.230   0.719 -0.0139 -0.0527  0.2195
12513W        W28697   6.771  15.572  11.573 -0.1939  0.2876 -0.0193
12514W        W28698   3.674  10.292   2.526  0.0564  0.1278 -0.2003
12515W        W28699  15.888  14.960   2.755  0.0619 -0.0004 -0.0183
12516W        W28700   9.419  14.952  12.408 -0.2752 -0.0164  0.0878
12517W        W28701  16.253  15.906  10.913 -0.1031  0.1006  0.0869
12518W        W28702   4.176  11.338  13.582 -0.1385 -0.1735 -0.1021
12519W        W28703  17.715   6.488  10.469  0.1067 -0.1342 -0.1236
12520W        W28704  17.347  15.347  11.662 -0.2009  0.0861  0.0388
12521W        W28705  10.807  10.925   4.696  0.1575 -0.2340 -0.4074
12522W        W28706   0.908   0.639   3.191  0.1670 -0.2676 -0.0897
12523W        W28707   4.940   5.293  13.092 -0.2770  0.0480  0.0636
12524W        W28708  11.612   7.277   0.750  0.0545 -0.1714  0.0676
12525W        W28709  14.749   5.018   3.607  0.0469  0.2039 -0.1408
12526W        W28710   6.442   6.154   0.322  0.2729 -0.0383 -0.1358
12527W        W28711  17.622  18.363   1.971 -0.1281 -0.1987  0.0867
12528W        W28712   7.780   6.987   4.392  0.4794  0.1398  0.2499
12529W        W28713  14.141   4.662  14.059 -0.1321 -0.0140 -0.0907
12530W        W28714   7.240   7.007  10.838  0.1213  0.1790 -0.5125
12531W        W28715   6.965   2.761   1.216  0.1340  0.0445 -0.0629
12532W        W28716  13.444  17.763   4.805  0.0649  0.0371 -0.0281
12533W        W28717  18.128  14.208   2.354  0.2671  0.1779  0.1830
12534W        W28718  14.000   1.598  11.800 -0.1617 -0.3709  0.1010
12535W        W28719  15.138   7.933  11.492  0.3570  0.0885 -0.2406
12536W        W28720   2.208   8.854  11.542  0.0916  0.0252 -0.1423
12537W        W28721   3.382   2.713  11.224  0.0555  0.0645  0.0764
12538W        W28722   9.578  10.307  12.280 -0.0180 -0.1448 -0.1769
12539W        W28723  17.055  16.789   0.551 -0.1220 -0.2007 -0.2689
12540W        W28724   1.612  17.509   0.893 -0.0069  0.0407 -0.0380
12541W        W28725  10.015   9.287   0.669 -0.1549 -0.2101 -0.2117
12542W        W28726   9.709  15.983   1.601  0.3578 -0.1542  0.0028
12543W        W28727  18.048   3.421  15.368 -0.0147  0.1728 -0.0432
12544W        W28728   5.504   1.713  14.931  0.1486  0.0409 -0.1220
12545W        W28729   7.451   9.257   4.273 -0.1259  0.1083  0.0362
12546W        W28730  15.264  17.050   3.349 -0.0558  0.3029 -0.0148
12547W        W28731   8.618   1.476  14.490 -0.0885  0.2245  0.0056
12548W        W28732  18.261  17.143   1.443 -0.0292 -0.0243 -0.0452
12549W        W28733   8.166  13.412   0.732 -0.0415 -0.1881 -0.0904
12550W        W28734  15.231   0.094   3.743 -0.0444  0.1524  0.4535
12551W        W28735  12.206  15.320  11.397 -0.2487 -0.1116  0.3077
12552W        W28736  14.882   8.677  12.860  0.2821 -0.0509 -0.1819
12553W        W28737   7.028  14.562   5.187  0.0839 -0.0724  0.0509
12554W        W28738   3.554   2.087  14.511 -0.1327  0.2203 -0.0182
12555W        W28739  17.093  12.639   0.114  0.0244  0.2164  0.2804
12556W        W28740   3.170   2.096   3.761 -0.0204 -0.0950 -0.1472
12557W        W28741  11.733   3.332   4.020  0.2104  0.1071 -0.1909
12558W        W28742   5.765   6.407  10.848 -0.0281 -0.2189 -0.0778
12559W        W28743   8.536   3.341   3.532 -0.2656 -0.0091  0.0520
12560W        W28744   1.114   2.635   5.053 -0.1024 -0.1089 -0.2900
12561W        W28745   0.134   9.738   1.099 -0.0583  0.0985  0.1208
12562W        W28746   8.692   7.173   4.749 -0.1564 -0.3845 -0.1176
12563W        W28747  13.263   0.739  13.330 -0.2021 -0.2071 -0.2611
12564W        W28748  18.516   2.409   2.332 -0.0853 -0.0592  0.0368
12565W        W28749   7.692   6.316  12.240 -0.0697 -0.2319  0.1246
12566W        W28750   6.973  15.555   3.583  0.1000 -0.0752 -0.0441
12567W        W28751  18.677  10.306   3.595 -0.0922 -0.0938 -0.0718
12568W        W28752  10.680   7.420  12.263  0.2377 -0.0674  0.0276
12569W        W28753   0.670   7.814  14.588 -0.1735  0.1870  0.1828
12570W        W28754   1.744   0.900   1.295  0.0657  0.3099 -0.1888
12571W        W28755   4.960   8.628   0.642  0.0729 -0.0513 -0.1128
12572W        W28756   8.129   5.800  13.949  0.0736  0.0187 -0.1592
12573W        W28757  15.764  18.294  10.591  0.0358  0.0791 -0.2093
12574W        W28758  10.748   8.337  12.338  0.2804 -0.0316 -0.0619
12575W        W28759   3.661   4.071  13.433  0.1247 -0.0906 -0.0164
12576W        W28760   1.425  15.492   5.651  0.0599  0.1222 -0.0156
12577W        W28761  14.609   9.691   0.424  0.1527 -0.1859 -0.0032
12578W        W28762  12.656  13.282  15.451 -0.2186 -0.1113  0.0498
12579W        W28763  14.831   1.443   0.438 -0.0890 -0.2195  0.0685
12580W        W28764   9.069  15.734  11.793 -0.1015 -0.0962 -0.0268
12581W        W28765  14.668  12.585   0.025 -0.0696 -0.0255 -0.2190
12582W        W28766  12.221   3.338   0.867 -0.2023 -0.0244 -0.1580
12583W        W28767  14.163  15.707   2.519 -0.3225 -0.2214  0.1417
12584W        W28768   1.806   6.666  11.259 -0.0262  0.0357 -0.2416
12585W        W28769   1.097   2.382   4.615 -0.0652  0.0827  0.1917
12586W        W28770   1.354  17.360  13.101 -0.1992 -0.2215  0.2221
12587W        W28771   2.775  16.849   3.644 -0.2192  0.0776 -0.1144
12588W        W28772   8.175   2.212  14.430  0.0745 -0.0587 -0.1627
12589W        W28773  12.452   7.960  13.745  0.2874  0.0123 -0.1596
12590W        W28774  18.763   2.801   4.148 -0.3132  0.2759  0.2941
12591W        W28775  17.543   3.970  11.652  0.0438  0.1937 -0.4490
12592W        W28776   2.947  12.991   1.005  0.0336  0.1850  0.0164
12593W        W28777  14.243   2.718   4.893  0.0913  0.1179  0.1056
12594W        W28778   7.192   6.862  12.006 -0.2116  0.1837  0.2312
12595W        W28779  15.549  15.342  14.091 -0.1424  0.2265 -0.0636
12596W        W28780   5.804  16.688   2.660 -0.0369 -0.0604 -0.2334
12597W        W28781   5.309   4.534   5.966 -0.2901  0.1234  0.2899
12598W        W28782   8.698  12.193  12.940 -0.0839 -0.3323 -0.1231
12599W        W28783   4.104   0.111   3.279 -0.2296  0.2642  0.4131
12600W        W28784  14.688  18.373  12.612  0.1253  0.0239  0.2081
12601W        W28785   4.534  16.351   1.806 -0.0543 -0.1028  0.2071
12602W        W28786  17.195  13.393   4.434  0.2725  0.0270 -0.2606
12603W        W28787  15.460   4.159   1.445 -0.5453  0.1732 -0.0979
12604W        W28788   8.010   3.707  13.987 -0.1071  0.2664 -0.0872
12605W        W28789   0.468   0.467   1.756  0.1821 -0.1299 -0.4397
12606W        W28790   2.686   2.631  10.515  0.0407  0.1126  0.1709
12607W        W28791   0.352  17.525  14.652  0.1744 -0.0461 -0.1554
12608W        W28792   6.576  12.003   0.001 -0.0322 -0.1458 -0.1871
12609W        W28793   8.642   4.473  15.138  0.0734  0.0048 -0.2622
12610W        W28794   0.314  18.620  15.001 -0.2497 -0.1044  0.1024
12611W        W28795   6.708   6.714   0.825  0.2212  0.0394  0.0178
12612W        W28796   8.418  13.444   2.773 -0.0348 -0.2005 -0.1995
12613W        W28797  10.894  18.464   4.676  0.2115 -0.2093  0.0012
12614W        W28798   5.164   5.355   3.825 -0.1979 -0.0855 -0.0867
12615W        W28799   0.240   7.214   4.472 -0.0457 -0.0963 -0.1719
12616W        W28800  12.398  16.261  10.801 -0.0058 -0.2640 -0.0021
12617W        W28801   7.300   8.083   2.579  0.0076 -0.2444  0.2882
12618W        W28802   9.052  12.762  11.475 -0.1043 -0.2653 -0.1001
12619W        W28803  17.509   8.610   1.644 -0.0176 -0.0202 -0.0638
12620W        W28804   0.996  10.102   3.972 -0.0565  0.1138  0.2749
12621W        W28805   8.599   5.661   0.430  0.1568 -0.1553  0.2205
12622W        W28806   1.072  13.760  14.612 -0.2442 -0.3100  0.2939
12623W        W28807  15.937   7.129   1.086  0.2922 -0.0752  0.0053
12624W        W28808  12.139  13.043  14.386  0.1873 -0.1524 -0.0174
12625W        W28809  12.025   5.725   3.013 -0.0224  0.0042 -0.1647
12626W        W28810   0.912   1.340   1.081 -0.1081 -0.2600  0.0910
12627W        W28811   9.782   6.737  11.395 -0.3025  0.1982 -0.1573
12628W        W28812  14.259  17.723  13.103 -0.0310 -0.1868  0.1394
12629W        W28813  16.136  10.741   5.137  0.3383  0.3065  0.1979
12630W        W28814   5.862  14.612   2.774 -0.1198 -0.4206 -0.0207
12631W        W28815   2.180   6.620   2.362 -0.0200  0.0687  0.1231
12632W        W28816   5.338   9.843   3.953  0.1680  0.2455 -0.2325
12633W        W28817  18.352   0.827  14.628  0.0594  0.0493  0.1490
12634W        W28818  18.591  17.557  14.593 -0.0737  0.1761  0.0370
12635W        W28819   7.361   0.617  12.489 -0.1011 -0.0453 -0.1296
12636W        W28820   7.928   9.539  15.167  0.0094 -0.1356 -0.2177
12637W        W28821  12.551   9.899  12.842 -0.3323 -0.0119  0.1046
12638W        W28822  10.198   6.600   3.637 -0.2441 -0.2414  0.0830
12639W        W28823   6.574  16.720   4.324  0.0398  0.3003  0.2019
12640W        W28824   7.289  14.598   1.900  0.2593  0.1517 -0.0643
12641W        W28825   7.049   1.592  13.936 -0.3112 -0.0528 -0.2505
12642W        W28826  12.536   0.918  12.456  0.1335  0.1347 -0.0623
12643W        W28827   6.225  14.846  15.235 -0.5892  0.0642  0.0415
12644W        W28828   2.672   2.330  14.396  0.0570 -0.1888  0.2082
12645W        W28829   5.228  12.107  13.819 -0.0057 -0.1621  0.0608
12646W        W28830   6.446   5.936   1.570  0.0395 -0.1365 -0.0198
12647W        W28831   2.797  11.953   4.256  0.2278 -0.1918 -0.0146
12648W        W28832   6.941   6.413   2.142  0.3375 -0.0318  0.1168
12649W        W28833   6.994   9.660   4.038 -0.2885 -0.3206  0.1247
12650W        W28834   6.342  10.619   1.925 -0.1162 -0.0288  0.4781
12651W        W28835  11.088  14.949  12.917 -0.5121  0.1477  0.1987
12652W        W28836   9.368   2.425  14.906  0.1361 -0.0918  0.1031
12653W        W28837   7.069   5.336   3.650  0.0437  0.1011 -0.0788
12654W        W28838  11.827   7.712   0.959 -0.2466  0.1059  0.1993
12655W        W28839   4.462  14.124   4.050 -0.3211 -0.3136  0.1755
12656W        W28840  11.228  16.694   2.325 -0.4316 -0.0898  0.2421
12657W        W28841   4.836  14.499  14.058  0.1032 -0.0533 -0.2046
12658W        W28842  16.313  11.728  13.602 -0.0173 -0.1212 -0.0612
12659W        W28843  10.751  12.769   0.041 -0.3949 -0.0075  0.0520
12660W        W28844  11.048   4.873  10.897  0.0153 -0.1285  0.0125
12661W        W28845   6.920   9.896  10.561 -0.2466  0.0335 -0.1718
12662W        W28846   1.347  10.471  13.339  0.1390  0.2934  0.1152
12663W        W28847   6.404  18.073  11.691  0.0233  0.0867  0.1976
12664W        W28848  16.632   4.519   4.503 -0.2162 -0.0502  0.2223
12665W        W28849   3.941  13.211   4.952 -0.4134  0.1047  0.2465
12666W        W28850  11.782  10.539   5.398 -0.0811  0.1462 -0.0382
12667W        W28851   9.038   1.112   1.133 -0.2178  0.1085  0.0876
12668W        W28852   0.174   7.312   3.413  0.2033  0.0684  0.1970
12669W        W28853  17.227  12.138   2.568 -0.2148  0.2183  0.0365
12670W        W28854   6.864   2.405  11.467 -0.3688 -0.1811  0.1328
12671W        W28855   3.634   8.171  15.087 -0.0826  0.1208  0.0026
12672W        W28856   0.542   0.081   1.498  0.0238 -0.0037 -0.3374
12673W        W28857   7.266  13.444   0.705  0.0837  0.4062  0.0977
12674W        W28858  10.682  17.684   4.196 -0.1421 -0.0180  0.0183
12675W        W28859  11.392   6.293   1.752  0.0137 -0.1367  0.1482
12676W        W28860  10.711  18.045  14.265  0.0795 -0.1313 -0.2642
12677W        W28861  10.396   3.547  13.496 -0.0135  0.2680 -0.1147
12678W        W28862   1.570  10.498   3.189  0.0247  0.2755  0.1294
12679W        W28863  11.882   7.824  15.124  0.1274 -0.1232 -0.1158
12680W        W28864  17.733  16.266   2.249  0.0064 -0.0018 -0.1744
12681W        W28865  13.608  18.241  11.919 -0.0019 -0.0251  0.2443
12682W        W28866   5.823  15.806   4.106 -0.0904  0.0690  0.0271
12683W        W28867   4.498   3.605   2.037  0.0458 -0.0245  0.2479
12684W        W28868   2.834   7.542   4.467  0.3212 -0.0208 -0.2079
12685W        W28869  14.708   8.109   3.161 -0.1339  0.3429  0.0426
12686W        W28870  10.879   5.535   3.411 -0.2459 -0.1659 -0.1545
12687W        W28871   1.622   5.160   1.800 -0.1749 -0.1064  0.0342
12688W        W28872  12.050   9.373   4.885  0.2876  0.0289  0.1231
12689W        W28873  11.241  12.445   3.894 -0.4083 -0.0821 -0.2777
12690W        W28874   3.398  13.393  15.314 -0.2612  0.0724  0.4318
12691W        W28875  14.458   5.116  14.744  0.1460 -0.0776  0.0836
12692W        W28876   5.246  10.339   4.419 -0.2778  0.0904 -0.2013
12693W        W28877   0.483   0.508   2.983  0.0547 -0.3126  0.0384
12694W        W28878  13.798   5.396  10.801  0.2620 -0.0626 -0.2017
12695W        W28879   5.479  15.408   3.077 -0.1689 -0.2059  0.0464
12696W        W28880  18.016  14.782  11.991  0.0139 -0.2622  0.0807
12697W        W28881  10.072   1.419   1.201 -0.0521 -0.0263 -0.0047
12698W        W28882  17.433  10.175  15.392 -0.0471  0.1326  0.1246
12699W        W28883  16.540  13.261   5.450  0.3621  0.1928  0.2780
12700W        W28884   4.592   4.793  11.869  0.3194  0.1777 -0.0006
12701W        W28885   5.109   4.448   3.696  0.2256 -0.2903 -0.1758
12702W        W28886  18.580  16.930   3.422 -0.3064 -0.2430  0.2015
12703W        W28887  13.366   5.497  13.414  0.2030 -0.4665 -0.0825
12704W        W28888   2.736   6.179   3.952 -0.1763  0.0372  0.1148
12705W        W28889   8.558  13.790   1.859  0.1617 -0.0440  0.5283
12706W        W28890  15.602   9.529   5.140  0.2717  0.2773 -0.1139
12707W        W28891   7.011   1.427   3.021  0.0446  0.2980 -0.0536
12708W        W28892  10.090  11.029   1.252  0.2893 -0.2089  0.2656
12709W        W28893  17.539   1.622  14.862  0.2425  0.0101 -0.0135
12710W        W28894   6.524   6.101  10.515 -0.0323  0.0956 -0.0980
12711W        W28895   7.703   6.276   1.146  0.1219  0.3702  0.4892
12712W        W28896  16.458   3.642   2.439  0.4826  0.2671  0.0638
12713W        W28897   7.991  16.264  14.151  0.1455  0.1838 -0.0893
12714W        W28898  13.918   3.402  13.061  0.2663  0.1387  0.1175
12715W        W28899  11.684  10.281   1.264  0.1795 -0.0796 -0.3768
12716W        W28900   2.954   8.684   0.767  0.0224  0.0083  0.0979
12717W        W28901   4.233  14.037  14.919 -0.1254  0.0652 -0.3495
12718W        W28902   5.869   3.657   0.597 -0.2337  0.1305 -0.2162
12719W        W28903  16.099  14.142  12.129  0.1230 -0.1693  0.0700
12720W        W28904   2.633   7.182   3.963  0.0890  0.2697 -0.0058
12721W        W28905  12.580   4.353   3.420 -0.1409  0.1509 -0.0328
12722W        W28906   9.259  14.576  14.947 -0.0558  0.2122 -0.2187
12723W        W28907   1.132   8.480   4.626  0.0287  0.1822  0.0742
12724W        W28908   9.978  14.212   2.114 -0.2188 -0.2226 -0.0029
12725W        W28909  12.638  12.671   5.325 -0.0806  0.1559 -0.0686
12726W        W28910   2.599  11.914  14.648 -0.2751  0.0853 -0.4217
12727W        W28911   0.454   6.748   1.735 -0.2722 -0.1314 -0.0742
12728W        W28912  13.113   1.239   3.091  0.3139 -0.1396  0.0755
12729W        W28913  18.808  10.099   0.335  0.2088 -0.2324 -0.1642
12730W        W28914  13.117  12.969   2.169 -0.0810  0.3030  0.0682
12731W        W28915  10.153   1.052  14.641 -0.3150 -0.2450  0.0641
12732W        W28916   7.557   0.811   0.094  0.0301  0.0205 -0.2388
12733W        W28917   4.234  17.193  14.571 -0.0254 -0.5114 -0.2044
12734W        W28918  10.413  15.245  13.535  0.1303 -0.0091  0.4111
12735W        W28919  16.898   5.671  11.145  0.3035  0.3037  0.3117
12736W        W28920   4.566  13.796  12.374  0.0223 -0.1678  0.2845
12737W        W28921  15.656  12.020   2.496 -0.0349  0.2584  0.1370
12738W        W28922  18.600   8.421  12.725  0.0351  0.0659  0.0265
12739W        W28923  13.362   0.646   4.609  0.0095  0.0218 -0.0323
12740W        W28924  15.701  10.383  14.617 -0.2917  0.1761  0.0442
12741W        W28925   4.630   0.913  14.029  0.0648 -0.1467  0.1859
12742W        W28926   6.024  13.171  15.342  0.0815 -0.1902  0.1283
12743W        W28927  18.681  12.805  11.683 -0.1663 -0.1584  0.0009
12744W        W28928   8.070   9.576  11.892  0.1583 -0.1849  0.0269
12745W        W28929   9.808   4.828   2.671 -0.3736  0.0691  0.1174
12746W        W28930  18.731   2.573  10.671  0.1064  0.0485  0.2299
12747W        W28931   8.293   6.122  12.658 -0.2636 -0.2532  0.1314
12748W        W28932   8.708  13.270   1.557  0.2974 -0.5053 -0.1577
12749W        W28933   2.947   6.661   3.151 -0.0613  0.1992 -0.0637
12750W        W28934  13.846  17.325  13.283  0.1229  0.3753 -0.0278
12751W        W28935  11.067  13.143   1.409  0.0366  0.2275  0.0030
12752W        W28936  13.874   4.376   1.656  0.1895  0.0014 -0.1453
12753W        W28937  12.532   1.381  13.697 -0.1402 -0.0543 -0.0039
12754W        W28938  17.644  16.321   3.257 -0.2325 -0.4160 -0.0840
12755W        W28939   4.355  10.266  11.661 -0.1038 -0.1296  0.0988
12756W        W28940  11.107  17.094   5.108  0.1994  0.0874 -0.0733
12757W        W28941   0.721   5.240  13.536 -0.2037 -0.0637 -0.1913
12758W        W28942  18.143   1.884  15.522  0.1948  0.2759 -0.2053
12759W        W28943   1.637  13.495   2.631  0.0957 -0.0223  0.0953
12760W        W28944   5.477   9.385   3.646 -0.0812 -0.3323  0.0403
12761W        W28945   1.350   5.067   3.996 -0.1283 -0.0841 -0.1607
12762W        W28946  17.910  11.371   0.117 -0.3159  0.1031 -0.0810
12763W        W28947  12.855   3.057  14.449  0.1750 -0.1499 -0.0008
12764W        W28948  14.932  11.582   5.149  0.1289 -0.0467 -0.0895
12765W        W28949  11.361   4.256   2.552  0.0785  0.3699  0.0375
12766W        W28950   9.820  16.616   4.784  0.6969  0.1026  0.1877
12767W        W28951  18.542   2.392   1.274  0.1503 -0.1941  0.2408
12768W        W28952   2.502  15.298  11.269 -0.0827 -0.2205 -0.2238
12769W        W28953  16.302   6.458   3.509  0.3127  0.0464 -0.0233
12770W        W28954   7.175  11.852  10.739  0.2263  0.3339  0.1930
12771W        W28955  18.556   8.436   0.795  0.1951 -0.2377  0.0726
12772W        W28956  10.451   3.059  12.224 -0.1668  0.0097  0.2319
12773W        W28957   4.967  14.204  13.188  0.2529  0.3017 -0.2900
12774W        W28958   3.706  18.096  14.496  0.2184  0.0522  0.0595
12775W        W28959  15.330  11.334  11.274 -0.1484 -0.1833 -0.3182
12776W        W28960  17.977   0.023  10.777 -0.0315 -0.1152 -0.0092
12777W        W28961   3.591  17.908  11.001  0.0497  0.1471  0.1382
12778W        W28962   4.060  14.828  14.463 -0.0717 -0.1850  0.0528
12779W        W28963   0.337   3.944  10.379  0.0065 -0.0491  0.3416
12780W        W28964  16.049  16.799  13.810 -0.0229  0.2718  0.0035
12781W        W28965  12.653  17.626  14.787  0.3532 -0.2763 -0.0478
12782W        W28966  17.403  10.682  15.440 -0.2985 -0.0158 -0.3278
12783W        W28967  15.778   7.877   1.463  0.1279  0.1716  0.0846
12784W        W28968  14.461  16.211  14.342 -0.0235 -0.1478 -0.2336
12785W        W28969   9.561  16.305   3.442 -0.0845 -0.0514 -0.4062
12786W        W28970  11.280   6.131  11.188 -0.2409  0.1111 -0.1217
12787W        W28971  12.886  14.265   5.191  0.3143 -0.2373 -0.1790
12788W        W28972   7.791   9.067  10.615 -0.0628  0.0521  0.2316
12789W        W28973   9.282   0.641   1.269 -0.1776  0.1073  0.0895
12790W        W28974  12.090   8.578  13.790 -0.0107 -0.0367  0.1307
12791W        W28975  12.242   4.589   5.278 -0.3321  0.2223  0.0656
12792W        W28976   4.052   3.440  12.186  0.3777 -0.0260  0.1697
12793W        W28977  13.793  18.319  13.542  0.1809  0.0161  0.0526
12794W        W28978   1.693  10.964   3.379 -0.1335 -0.0341 -0.2287
12795W        W28979  14.794   7.549  12.186  0.0131  0.0356  0.3517
12796W        W28980  15.723   7.032  12.404 -0.2529  0.0306 -0.1987
12797W        W28981  17.536   4.238  10.962  0.0695 -0.0544  0.2725
12798W        W28982  12.187  18.484  11.110  0.2082  0.2266  0.1937
12799W        W28983  12.787   1.612  13.370  0.1582 -0.1675  0.0745
12800W        W28984  13.141  13.888   4.965  0.1453 -0.1612  0.3289
12801W        W28985  17.641  11.112  11.664  0.0346 -0.2145 -0.3890
12802W        W28986   2.368   0.400   5.351  0.1224 -0.0263 -0.2331
12803W        W28987  16.139   5.402  13.465  0.1225  0.2419 -0.1323
12804W        W28988   7.934  12.304   0.937  0.2079  0.2424  0.1637
12805W        W28989   4.702   8.736  13.999 -0.0618 -0.0126 -0.1809
12806W        W28990   5.850  12.090  12.131 -0.1051  0.1963  0.3151
12807W        W28991  15.346   3.410   4.722 -0.0273 -0.0389  0.0929
12808W        W28992   7.487   6.419   2.031 -0.1166 -0.0793 -0.0759
12809W        W28993   2.489   9.839   1.019  0.0581  0.0155  0.0410
12810W        W28994   5.080  11.901  15.510 -0.2543 -0.1014 -0.2164
12811W        W28995   1.869  15.306   4.846  0.2223 -0.3755  0.0086
12812W        W28996  12.973  12.530   0.933 -0.3766  0.0843 -0.1638
12813W        W28997   0.293   7.993   1.260 -0.3582  0.0760 -0.0805
12814W        W28998  16.469  15.058   3.777  0.0633 -0.0170 -0.0330
12815W        W28999   6.579   9.005   4.215 -0.2767 -0.0819 -0.0260
12816W        W29000  15.998  11.316   1.282  0.0478 -0.1806  0.1415
12817W        W29001   3.963   7.210  12.171 -0.2725 -0.0503  0.1063
12818W        W29002  14.291   6.283  15.249  0.1199 -0.0597 -0.0849
12819W        W29003  13.912   0.259  13.522 -0.0702  0.0374  0.1540
12820W        W29004   6.562  15.177  12.493  0.2883 -0.5051  0.3736
12821W        W29005  18.706  13.409   3.204  0.0153  0.0546  0.0207
12822W        W29006   1.386   5.438  12.280  0.1017 -0.1077  0.1281
12823W        W29007   8.990   6.065  14.343  0.1992  0.1386  0.1170
12824W        W29008  10.393  14.712  13.623  0.2735 -0.0492 -0.0679
12825W        W29009   3.978  16.063  11.225  0.0575  0.0543 -0.3468
12826W        W29010  15.144   0.391  10.913  0.0131  0.1694 -0.4008
12827W        W29011  14.836  15.211   3.144 -0.3939  0.0642 -0.2024
12828W        W29012   8.462   1.959   1.579  0.1576 -0.2783  0.0429
12829W        W29013  18.017   0.380  12.699 -0.0823 -0.1734  0.1221
12830W        W29014  18.603   2.821  12.032 -0.0822 -0.1113  0.1389
12831W        W29015  13.385   4.810  13.845  0.0225 -0.0833 -0.2059
12832W        W29016  11.218   8.737  11.527 -0.2387  0.1031 -0.1072
12833W        W29017  12.821  14.692   0.551 -0.0347 -0.0696  0.2400
12834W        W29018   9.630  18.853  11.304  0.0982  0.0537 -0.1607
12835W        W29019  13.584   1.861  11.819 -0.0344 -0.0810  0.1008
12836W        W29020   8.413   8.128  12.373 -0.2349 -0.2440 -0.0848
12837W        W29021  15.938   5.322   4.159 -0.0322  0.0786 -0.1898
12838W        W29022   4.285  18.855  10.740  0.3472  0.0336  0.1323
12839W        W29023   0.526   8.316  13.313 -0.1514 -0.0462 -0.0554
12840W        W29024   6.099   1.223   1.556  0.2071  0.4427  0.0645
12841W        W29025  15.569  15.777  11.727 -0.0211 -0.0938  0.1089
12842W        W29026   7.889   0.649   0.888  0.2644  0.3813 -0.0137
12843W        W29027   3.478   7.274   2.315  0.0897 -0.1005  0.1770
12844W        W29028  17.024   4.746  13.023 -0.1714  0.0867 -0.3912
12845W        W29029   8.614   1.331  14.948 -0.0706  0.3286  0.0619
12846W        W29030   4.268   0.783   1.900  0.1403  0.2575  0.0775
12847W        W29031   6.718   2.597   2.675 -0.2044 -0.0980 -0.1978
12848W        W29032   0.621  13.199  11.685  0.0833 -0.2769  0.1992
12849W        W29033   3.304   9.015   3.308 -0.0136 -0.3059  0.1636
12850W        W29034  10.338  13.426   4.795 -0.2723  0.2062 -0.1589
12851W        W29035   3.178   8.092   0.370  0.0894  0.2796  0.1528
12852W        W29036  10.230   6.991   0.437  0.0868 -0.0627  0.2999
12853W        W29037   2.110   7.644   3.173 -0.0338  0.1934  0.1294
12854W        W29038  13.656  18.825   4.218 -0.1939  0.1266  0.0081
12855W        W29039  13.824   2.010  15.313 -0.2284  0.1897  0.1311
12856W        W29040   2.485   7.204  11.166 -0.0173 -0.2031 -0.3113
12857W        W29041   4.651  10.660  11.775  0.1195 -0.1059  0.2391
12858W        W29042  16.723  13.748   1.827  0.0726 -0.0220 -0.0120
12859W        W29043   9.347  12.507   4.885  0.1143  0.0013  0.3138
12860W        W29044  17.362  10.791  14.009  0.3909 -0.1160 -0.1212
12861W        W29045   7.631   1.145   2.698 -0.1867 -0.0405 -0.0450
12862W        W29046  14.998   7.489   2.403  0.2396 -0.0452 -0.5130
12863W        W29047   0.095   1.782  13.917 -0.3318 -0.0931  0.4115
12864W        W29048  13.945  11.352  15.373  0.2305  0.1551  0.3231
12865W        W29049  12.218  17.403   4.575 -0.1317 -0.0835 -0.0794
12866W        W29050   4.304  12.068  13.944  0.1035 -0.0063  0.1547
12867W        W29051   9.681   0.305   1.684 -0.2222  0.1315 -0.0611
12868W        W29052   1.350   1.779  13.368  0.0665  0.0699 -0.0878
12869W        W29053  15.914  14.454  11.587 -0.1607 -0.1056 -0.2277
12870W        W29054  10.198  12.657   4.405 -0.0299  0.0164 -0.0870
12871W        W29055  17.076  13.607  11.670 -0.1151 -0.0677  0.3587
12872W        W29056   9.198  14.442   5.936  0.0182  0.0107  0.1169
12873W        W29057   4.476   9.211  10.917 -0.1673 -0.0658 -0.0227
12874W        W29058   0.161   2.280   1.356  0.0330 -0.1372 -0.3123
12875W        W29059  13.792   0.825   2.003 -0.1780 -0.2307  0.0531
12876W        W29060   2.127   1.483  12.234  0.4094 -0.0156  0.1858
12877W        W29061  13.384  10.342   1.215  0.0672 -0.0702  0.1027
12878W        W29062   2.118  15.543  15.539 -0.0713  0.2880  0.0763
12879W        W29063  11.666   7.632   1.809 -0.1053 -0.2485  0.1572
12880W        W29064   0.951  17.150   2.581 -0.1290  0.2263  0.0388
12881W        W29065   2.583   9.640  12.358  0.2283 -0.0277  0.2385
12882W        W29066  12.580   5.208   2.544 -0.1063 -0.1199  0.1925
12883W        W29067  14.249  17.191  15.392  0.2240 -0.1642  0.1139
12884W        W29068   0.562  15.735   4.979  0.0575 -0.2090 -0.3032
12885W        W29069  11.559   7.318   0.284 -0.0307  0.2352  0.3569
12886W        W29070  14.619  11.839  12.765  0.0108 -0.0981 -0.2119
12887W        W29071   7.184  13.228   1.572  0.0424 -0.0317 -0.1510
12888W        W29072   9.373   0.986  11.321  0.3821 -0.1299 -0.1672
12889W        W29073   1.204  10.689   0.370  0.0254  0.3739  0.0908
12890W        W29074   9.813  13.079  10.888  0.0944 -0.0432  0.0622
12891W        W29075   9.958   7.082  14.563  0.4165  0.0825 -0.2344
12892W        W29076   3.522   3.098  10.242 -0.0781  0.0747  0.0358
12893W        W29077  17.545   8.001  12.898  0.1843 -0.1470  0.3785
12894W        W29078   0.135  13.149  14.079 -0.0711 -0.3588  0.1196
12895W        W29079   7.444   1.860  12.667  0.1750  0.1833 -0.1158
12896W        W29080  13.089   9.463  12.665  0.0646 -0.0360  0.0301
12897W        W29081   1.112   3.349   4.352 -0.0105  0.1002  0.1776
12898W        W29082  15.801   0.068   2.085  0.1975 -0.0854 -0.0832
12899W        W29083   8.349  15.631   1.485 -0.0521  0.0130 -0.2293
12900W        W29084   7.722  17.356   2.784 -0.0115  0.2031  0.3360
12901W        W29085   2.859  14.326  11.911 -0.1027  0.0013 -0.0314
12902W        W29086  10.574  15.088  11.614  0.1520 -0.3262  0.0214
12903W        W29087   2.514   0.633   2.604  0.2433 -0.1855  0.1482
12904W        W29088  12.895  16.100   0.392 -0.0432 -0.3816 -0.0818
12905W        W29089  13.101   6.479  13.008 -0.1586 -0.0086 -0.1746
12906W        W29090   8.944   9.224  13.089  0.1356  0.0292 -0.1125
12907W        W29091   9.304   5.343  13.109  0.0763 -0.0405  0.1622
12908W        W29092   8.557   0.333   4.248  0.2223 -0.0153 -0.3197
12909W        W29093   0.176   1.016   5.296 -0.2115 -0.1387  0.1592
12910W        W29094   6.191  11.579  12.673  0.3437 -0.0111  0.1299
12911W        W29095  11.718  18.147  13.836 -0.1643  0.1218  0.0935
12912W        W29096   4.995  13.903   0.518 -0.1231 -0.1248 -0.0769
12913W        W29097  12.200   0.355   3.012 -0.3831  0.0528 -0.0788
12914W        W29098   9.033   1.440  11.945 -0.1879 -0.2255 -0.0118
12915W        W29099  11.832   3.977  15.012 -0.0409  0.1251  0.2105
12916W        W29100  14.883   2.170   4.541  0.0440 -0.1698 -0.0795
12917W        W29101  10.366  13.623  12.676  0.2075  0.1037 -0.3161
12918W        W29102  18.117  18.627   0.777  0.0074 -0.4309  0.2187
12919W        W29103  16.981  16.960   2.150 -0.2377  0.0725  0.0825
12920W        W29104  15.066   9.139  14.690  0.0729  0.1059 -0.0126
12921W        W29105  13.774  13.455  13.657  0.3304  0.3595 -0.1562
12922W        W29106   7.795   3.636  12.749 -0.1402 -0.1422  0.0787
12923W        W29107   0.262   9.291   2.056  0.0772  0.4369 -0.0115
12924W        W29108   9.191  16.972  12.160  0.0084 -0.2661  0.2608
12925W        W29109   6.619  12.186  14.622 -0.2292  0.2521 -0.1984
12926W        W29110  16.831   8.523   3.119 -0.1878  0.2784  0.0390
12927W        W29111   8.409  16.132   4.382  0.0386  0.1490 -0.0018
12928W        W29112  11.098   4.761   4.211  0.1922 -0.0144  0.3729
12929W        W29113   1.654  15.575   1.381 -0.2990 -0.1057  0.1915
12930W        W29114  12.027  18.805  15.530  0.0713 -0.1962 -0.2259
12931W        W29115   1.937  12.259   4.800  0.0131 -0.1512  0.1477
12932W        W29116  11.799   5.864  15.383 -0.2284  0.0777  0.0014
12933W        W29117  12.208   4.997   0.753 -0.1029  0.0407 -0.1092
12934W        W29118   9.620   5.976  15.051 -0.2775 -0.0198  0.2700
12935W        W29119   1.871  15.494  11.475 -0.0221 -0.0422  0.2097
12936W        W29120  14.002  13.832   9.747 -0.1609  0.2225  0.1004
12937W        W29121  13.208  13.564   1.549  0.0294 -0.0063 -0.1222
12938W        W29122   7.528   0.698  13.384  0.2878 -0.0785  0.1142
12939W        W29123  18.318   3.746   0.104 -0.0336  0.2313  0.0517
12940W        W29124  18.801  16.367   0.130  0.2630  0.6528 -0.2228
12941W        W29125   5.532   9.931  12.449 -0.1048  0.4636  0.1245
12942W        W29126   8.678  12.392  11.431 -0.2717 -0.2546  0.2783
12943W        W29127   5.298   5.402   1.731 -0.2411 -0.3597  0.0188
12944W        W29128   7.739   9.739  14.245  0.4673 -0.2239 -0.1528
12945W        W29129   6.959   5.503  10.935 -0.0693 -0.0097 -0.2444
12946W        W29130   3.839   3.821   4.461  0.0686  0.0393 -0.0449
12947W        W29131  15.327   5.880  13.298  0.1312  0.4410 -0.0012
12948W        W29132   3.814   2.226   3.247  0.0180 -0.2319 -0.0021
12949W        W29133  14.126  15.300  11.326  0.0733  0.0372  0.1793
12950W        W29134  13.824  18.219   4.932 -0.0216 -0.1591  0.4414
12951W        W29135  12.618   2.455   0.690  0.0774 -0.0510  0.1017
12952W        W29136  15.781   1.183  14.546  0.0757 -0.2665  0.0534
12953W        W29137   5.978   5.917   4.290 -0.1267  0.0487 -0.4756
12954W        W29138   9.544  16.105  15.137  0.0810  0.0386 -0.2539
12955W        W29139   3.456  11.531  10.697 -0.0100 -0.0734 -0.1173
12956W        W29140   7.652  15.062  12.353  0.1276  0.4602 -0.1129
12957W        W29141  10.882  13.533   4.713  0.2024  0.3382  0.2708
12958W        W29142   1.852  10.286   4.183 -0.2029  0.2683  0.3378
12959W        W29143  17.975  16.464  12.990  0.1305 -0.2666  0.1653
12960W        W29144  14.642  18.008   1.612 -0.4061 -0.1337 -0.2059
12961W        W29145  10.642   5.748   2.981 -0.1325 -0.1385 -0.0337
12962W        W29146   9.392  10.877  12.451 -0.1888  0.1210 -0.0351
12963W        W29147   1.950  15.946  11.713  0.0863  0.1383  0.1065
12964W        W29148   1.634  16.715   2.821  0.2528 -0.0111 -0.0159
12965W        W29149   3.847  12.330  13.706  0.3091 -0.1151  0.0882
12966W        W29150   0.034  17.824   3.342  0.1801  0.0881 -0.0546
12967W        W29151  14.217  16.252  13.742 -0.1291  0.0266 -0.0532
12968W        W29152  13.795  13.512   3.744 -0.4320  0.1821  0.0194
12969W        W29153  11.899   5.054   1.655  0.0359 -0.3246  0.0803
12970W        W29154   6.729  17.422   3.727  0.0489 -0.0381 -0.0172
12971W        W29155   2.386  17.085  12.738 -0.1293 -0.0583  0.1346
12972W        W29156  10.672  12.400   1.707  0.2844  0.0081 -0.1373
12973W        W29157  14.114   6.972  12.094 -0.1678 -0.1106 -0.1251
12974W        W29158  13.556  16.867   3.996 -0.0381  0.0098  0.3100
12975W        W29159  15.892  14.148   1.209  0.2052 -0.1611  0.1612
12976W        W29160  15.522  10.424   0.515 -0.1056  0.2983 -0.0791
12977W        W29161  16.139   8.912  10.699 -0.1443  0.2522  0.0657
12978W        W29162  15.494  11.440  13.686 -0.0703 -0.1440 -0.1091
12979W        W29163  12.540  16.228   3.663  0.2077 -0.0702  0.0653
12980W        W29164  12.944   3.703  11.479 -0.0937 -0.1886 -0.5059
12981W        W29165  12.361  18.832   2.660 -0.0348 -0.0166 -0.1296
12982W        W29166   3.352  11.783   1.740 -0.0695 -0.1351  0.1229
12983W        W29167   7.373  18.435   3.256  0.0150  0.3834  0.1383
12984W        W29168   2.982   9.150  14.811  0.1875 -0.0626  0.0058
12985W        W29169  14.291   3.785   2.917 -0.2071  0.1181 -0.3335
12986W        W29170   8.502   1.374  11.223  0.3734  0.0785 -0.0115
12987W        W29171  18.242   6.946  12.653 -0.0150 -0.1557 -0.1127
12988W        W29172   7.536   9.985  12.646 -0.0316  0.1332  0.2512
12989W        W29173  12.793   0.889   0.666  0.1725 -0.0517  0.1152
12990W        W29174   2.901   2.864  14.018 -0.0014  0.0635 -0.2611
12991W        W29175   1.052   2.506  12.211  0.0209 -0.0411  0.0060
12992W        W29176  16.999  16.441  13.951 -0.0520 -0.0264  0.2051
12993W        W29177  18.230   8.129  12.744  0.0022  0.0170 -0.1236
12994W        W29178  18.216  10.134   3.678 -0.1023 -0.1198 -0.2364
12995W        W29179   7.183   1.887   2.965  0.1353 -0.0631  0.0976
12996W        W29180  17.810  15.294   0.034  0.3142 -0.0196 -0.2623
12997W        W29181   7.098  10.696  12.701  0.0648  0.1970  0.1287
12998W        W29182   0.021   8.203   2.446 -0.1734  0.4293  0.3944
12999W        W29183   6.722  14.084   3.039  0.1240 -0.0694 -0.2352
13000W        W29184  11.859  12.042  14.384 -0.0881  0.0158  0.0795
13001W        W29185   0.844   8.417  11.888  0.0798 -0.2771  0.3617
13002W        W29186   8.296  12.696   3.883 -0.2247 -0.1444  0.0846
13003W        W29187   5.927  16.787  11.281 -0.0537  0.0125  0.0123
13004W        W29188  13.716  18.747   1.260 -0.0890  0.1682  0.0612
13005W        W29189   5.157  16.495  11.787 -0.2272 -0.0108 -0.3096
13006W        W29190   7.020  15.254  11.823 -0.3464  0.1312  0.2391
13007W        W29191   8.554  14.780   0.525  0.0465 -0.2292 -0.2032
13008W        W29192   1.833   3.995  11.532  0.0218  0.0791  0.1402
13009W        W29193  13.207  16.339  10.913  0.1794 -0.0245 -0.4109
13010W        W29194  15.531  13.865  14.052 -0.0422  0.1609  0.1060
13011W        W29195   2.625  15.764  14.722 -0.0918 -0.2554 -0.0895
13012W        W29196  12.684  12.113   1.099  0.4263 -0.0230  0.0293
13013W        W29197   1.795   3.458   2.629 -0.2618  0.0483  0.1405
13014W        W29198   6.347   7.330   4.876  0.1725  0.0050  0.1369
13015W        W29199   0.544   1.605   2.079 -0.3455 -0.1330  0.1452
13016W        W29200  11.506   9.422  11.567  0.1092  0.2521  0.1244
13017W        W29201   1.321   1.114   0.907 -0.1024  0.0064 -0.1052
13018W        W29202  10.314   9.157   2.577  0.0601 -0.0615  0.0888
13019W        W29203  16.921   8.090  13.871 -0.1841  0.3379 -0.3565
13020W        W29204   5.448  11.799  12.304  0.0261 -0.0645 -0.2040
13021W        W29205   0.538   1.479   4.349 -0.2887  0.0794 -0.0058
13022W        W29206  16.860  10.290  14.672  0.1333 -0.1690  0.0459
13023W        W29207  18.730  17.332   2.457  0.0860 -0.0053 -0.0157
13024W        W29208   6.685   2.782  12.430 -0.2161 -0.0087 -0.0438
13025W        W29209   9.128   7.159   4.515 -0.0161  0.0693 -0.0221
13026W        W29210  11.691  14.072   1.780  0.2149 -0.1052 -0.2774
13027W        W29211  13.160  11.927  14.435  0.0882 -0.1044 -0.2710
13028W        W29212  16.806   3.592   3.261 -0.1207 -0.0155 -0.2328
13029W        W29213  18.457  12.837  12.401 -0.2161 -0.3559 -0.1724
13030W        W29214  17.039  13.358   5.459  0.0909  0.4154  0.1054
13031W        W29215   5.015   0.938  14.500  0.0573 -0.0851  0.0226
13032W        W29216  12.712  17.211   2.705  0.1761 -0.1659 -0.0136
13033W        W29217  10.787   1.988   4.601 -0.0156  0.1739 -0.0600
13034W        W29218   5.427   3.415  11.339 -0.3067  0.1673 -0.1062
13035W        W29219   8.218   8.893   0.426  0.2126  0.0836  0.2374
13036W        W29220  12.768   0.656  15.277  0.3180  0.0529 -0.3716
13037W        W29221  14.838  15.690  12.951 -0.2518 -0.0667  0.1478
13038W        W29222   4.566   4.887   0.970  0.0748  0.1235 -0.0765
13039W        W29223  11.557   1.583   1.380 -0.0871  0.1619 -0.1628
13040W        W29224   8.656  13.560  14.301 -0.1740 -0.1640 -0.0522
13041W        W29225   3.440   3.437  12.029 -0.1472 -0.2221  0.1453
13042W        W29226  18.308   4.468  12.219 -0.0728  0.0561  0.0343
13043W        W29227   1.071   1.895  13.816  0.0164 -0.0466 -0.0049
13044W        W29228  13.118  15.799   3.217 -0.0868  0.0951 -0.2295
13045W        W29229  14.491   1.404   4.248  0.1389  0.1038 -0.1243
13046W        W29230   7.117  17.409  12.612 -0.0563  0.3943  0.1138
13047W        W29231  15.713  13.394   3.799 -0.1393 -0.1060 -0.0762
13048W        W29232  12.103   4.099   0.209 -0.1186  0.0022 -0.2105
13049W        W29233  18.045  11.137  11.926  0.3431 -0.0176  0.1419
13050W        W29234  15.867   5.098   0.351  0.0339 -0.2579 -0.1734
13051W        W29235   4.886  16.346   0.342 -0.1324 -0.0011  0.2926
13052W        W29236   1.640  12.693   4.860 -0.0866  0.0757 -0.0330
13053W        W29237   6.697  10.504  15.380  0.1767  0.1233 -0.0717
13054W        W29238   3.247  18.004  13.909 -0.0635 -0.1179  0.0427
13055W        W29239  14.562   1.723  14.838  0.2107  0.2876 -0.1203
13056W        W29240   5.469   2.245  14.884  0.1536 -0.0606  0.4543
13057W        W29241  10.946  18.567   1.022  0.1160 -0.0636  0.1478
13058W        W29242   3.861   8.835  13.110 -0.0748  0.0355  0.1597
13059W        W29243  14.383   7.549  11.501  0.3192 -0.0783 -0.0270
13060W        W29244  15.234   9.575  11.303 -0.1500  0.0001  0.1588
13061W        W29245  10.362   7.826   2.600  0.1517  0.2134 -0.0650
13062W        W29246   3.041   4.568   0.683 -0.0959  0.2569 -0.3210
13063W        W29247  12.135  13.508  13.254 -0.0376 -0.0841  0.1942
13064W        W29248   7.053   4.205   1.457 -0.2470 -0.0557  0.3295
13065W        W29249   9.538   8.864  11.069  0.0488 -0.0574  0.0132
13066W        W29250  16.230   5.696   4.200  0.3400 -0.0212 -0.0073
13067W        W29251  14.308  13.157  12.436 -0.3003 -0.2651 -0.1817
13068W        W29252  15.678  16.879   5.712  0.2197  0.3655 -0.1966
13069W        W29253   1.896  16.538  10.731 -0.1932 -0.0857 -0.1575
13070W        W29254  12.819  10.560  14.480  0.1038  0.2393 -0.1123
13071W        W29255  15.569  10.855   3.070 -0.0331 -0.4720  0.0394
13072W        W29256  14.625  11.456  12.393 -0.0718  0.0367  0.0644
13073W        W29257   4.161  12.337   3.744  0.2496  0.1391 -0.1911
13074W        W29258  10.177   8.151  15.031  0.1943  0.2306 -0.1261
13075W        W29259  17.132   2.544  10.779  0.0600 -0.0050 -0.0484
13076W        W29260  14.264  12.882  12.905  0.2569  0.1194 -0.2404
13077W        W29261   3.415  13.248  12.314 -0.1685 -0.0732 -0.1063
13078W        W29262   8.052   4.969   0.692 -0.0353 -0.0184  0.1245
13079W        W29263  13.089  16.286   1.875 -0.0449  0.0933  0.0009
13080W        W29264  13.501  18.100  12.461 -0.0448  0.0916  0.1462
13081W        W29265   3.188   9.072   1.203 -0.3854 -0.0830 -0.0477
13082W        W29266  13.328  17.914   4.182 -0.3321  0.0570  0.3295
13083W        W29267  11.264  16.617   1.816 -0.2107 -0.0622  0.2793
13084W        W29268  14.300  15.657   3.438  0.2378  0.1550  0.1856
13085W        W29269  13.109   3.036   3.627 -0.3000 -0.2572  0.1234
13086W        W29270  15.962  14.595  14.699  0.1590  0.1636 -0.0509
13087W        W29271  17.797   7.268  15.259  0.0843 -0.0506 -0.0189
13088W        W29272   2.970  16.202  14.811 -0.0945 -0.3274  0.1711
13089W        W29273   0.294   5.569  13.548 -0.1119  0.0463 -0.0912
13090W        W29274   4.855  11.847  11.124 -0.0913 -0.2626 -0.1899
13091W        W29275  12.382  14.745   1.894  0.0498  0.0582  0.0642
13092W        W29276   7.597  17.078   3.582  0.2011  0.0736 -0.1138
13093W        W29277  14.686   8.874   3.813 -0.1404 -0.0470  0.2914
13094W        W29278   3.801  14.105  13.813  0.1168  0.1052 -0.0304
13095W        W29279   8.022   7.945   3.484  0.0839 -0.0299  0.3206
13096W        W29280  17.776   3.975  12.518  0.0048  0.0203  0.0126
13097W        W29281   9.032  10.534  14.981 -0.0522 -0.0925 -0.1783
13098W        W29282  18.525  13.304   0.172  0.2327 -0.5359  0.0485
13099W        W29283  15.167  16.005  10.927 -0.2453 -0.0443  0.2635
13100W        W29284  11.705   6.581   1.444  0.3995 -0.0817  0.2076
13101W        W29285   9.760   4.642   4.135  0.2000  0.0698  0.1188
13102W        W29286  16.573  14.116  12.276 -0.0651  0.4069 -0.0195
13103W        W29287  15.608   2.534  14.885  0.1984  0.0950 -0.3812
13104W        W29288  10.014   2.836  12.067  0.0088  0.2845  0.0870
13105W        W29289  18.190   9.551   4.319 -0.2757  0.3143 -0.1077
13106W        W29290  16.602  15.125  13.259 -0.1060  0.1849 -0.1208
13107W        W29291   7.829  12.793   3.477 -0.2151  0.0304  0.0851
13108W        W29292  11.610  18.730   1.667 -0.4432  0.3705  0.0107
13109W        W29293   7.481  14.971  10.964  0.2801  0.1785  0.3143
13110W        W29294   8.061   6.486   4.186  0.1379 -0.1899 -0.0939
13111W        W29295   6.637   8.863   0.435  0.1518 -0.3789 -0.4044
13112W        W29296  16.126  14.450  12.533 -0.1720  0.0718  0.4600
13113W        W29297   8.825   1.391   0.779  0.2514 -0.2472  0.2039
13114W        W29298   3.585  10.827   9.005  0.1904  0.0688  0.1757
13115W        W29299  15.427  11.037  14.465  0.3198  0.1957  0.2375
13116W        W29300  16.783   5.662  12.872  0.2998 -0.0747 -0.0511
13117W        W29301  15.917  12.609  11.494  0.0707  0.2532  0.0199
13118W        W29302   7.893  10.854  12.461 -0.2685  0.0951  0.1226
13119W        W29303   7.618   1.874   0.773  0.2685  0.1902 -0.0333
13120W        W29304  11.061   0.676  14.526  0.1096  0.1707  0.3229
13121W        W29305  16.067   7.030   4.883  0.2316  0.1757  0.2313
13122W        W29306  13.063   4.205   2.124 -0.0679 -0.1097 -0.0907
13123W        W29307  10.103  12.986   1.084 -0.3111  0.0243 -0.0987
13124W        W29308   2.453  11.284  12.225  0.0033  0.3308  0.1461
13125W        W29309   4.174  11.192  11.159  0.0064  0.1403 -0.1248
13126W        W29310  13.700   3.947   4.260 -0.0021 -0.1955 -0.2739
13127W        W29311   5.943  12.709  10.720  0.2207 -0.0731  0.1694
13128W        W29312   8.237   7.565   1.070  0.2387 -0.0231 -0.0272
13129W        W29313   5.735  18.334  13.271 -0.0784 -0.0673 -0.1455
13130W        W29314   5.714  13.775   9.814  0.1032 -0.0207  0.0614
13131W        W29315   4.494   9.182   3.909 -0.2516 -0.1045 -0.1891
13132W        W29316  13.641   8.207   2.200  0.0637  0.0285 -0.0867
13133W        W29317   4.345  16.086   4.866  0.2467 -0.1037 -0.1041
13134W        W29318  16.797  14.735  12.941 -0.1249 -0.1104  0.0165
13135W        W29319   4.864   3.775   0.678 -0.1914 -0.3452  0.3209
13136W        W29320   3.060   8.576  11.450  0.1456 -0.0524  0.1504
13137W        W29321  17.217   1.402   1.951  0.1325  0.1903  0.4959
13138W        W29322   2.001   7.728   4.252  0.0494  0.2631 -0.3674
13139W        W29323   2.886   9.813   2.020 -0.1802  0.3685  0.0202
13140W        W29324   4.141  15.534  13.526  0.2884 -0.0603 -0.0734
13141W        W29325  15.638  11.938   0.679 -0.3169 -0.1852 -0.0493
13142W        W29326   9.804  15.349   1.840  0.1552 -0.1441  0.1639
13143W        W29327   4.806   8.771  12.168 -0.2055 -0.2803  0.0706
13144W        W29328   0.949  18.838   5.311  0.4027  0.2509  0.0420
13145W        W29329   9.735   3.273   2.035 -0.1335  0.1704 -0.2076
13146W        W29330   6.530   7.955  14.227 -0.2358 -0.1632  0.2045
13147W        W29331   1.016   1.710   1.557 -0.1155 -0.1583  0.2113
13148W        W29332   8.613  17.636   2.743 -0.0469  0.1592  0.1838
13149W        W29333   9.735  12.298  13.663  0.2380 -0.0879  0.1161
13150W        W29334   7.009   2.342   3.026  0.0060 -0.0667  0.1684
13151W        W29335  14.474  15.950   3.894  0.1549  0.0531  0.0233
13152W        W29336   0.022   5.310  13.263  0.1147  0.1974 -0.1032
13153W        W29337  15.932  13.498   1.855  0.0172 -0.3825 -0.1181
13154W        W29338  17.737  11.234   2.313  0.1929 -0.3997 -0.0429
13155W        W29339  14.650  12.407   1.925  0.0574 -0.0103 -0.3089
13156W        W29340  16.261   4.832  11.282  0.1195  0.1747  0.0265
13157W        W29341   3.666   9.955   2.940  0.1098  0.1844  0.0234
13158W        W29342   0.646  14.877   0.039  0.0535 -0.0843 -0.3323
13159W        W29343   7.463   5.656   1.687 -0.2567  0.0381  0.0073
13160W        W29344   5.722   0.997   5.138  0.2966  0.3969 -0.0547
13161W        W29345  12.979  14.533  14.742  0.0566 -0.0291  0.3128
13162W        W29346  14.919   2.604  12.716 -0.2660 -0.2866 -0.1537
13163W        W29347  15.209   2.702   1.660 -0.0726 -0.1066  0.2929
13164W        W29348  10.265  17.305  14.267 -0.0688  0.0284  0.0896
13165W        W29349  15.608  14.365   0.350 -0.1460 -0.2872  0.1220
13166W        W29350   5.047  15.163  11.359  0.1457  0.4069  0.1678
13167W        W29351   0.539  16.818   2.475 -0.3046 -0.1900 -0.0188
13168W        W29352  16.867   9.802  12.851 -0.1671 -0.2964 -0.0920
13169W        W29353  14.970   6.259  11.231 -0.2600  0.3353 -0.0277
13170W        W29354   0.778  11.312   3.241  0.0303  0.0793  0.0250
13171W        W29355   0.073   3.329  13.661 -0.0361  0.0635  0.1044
13172W        W29356  16.537   4.926   0.933  0.2089  0.1929  0.1199
13173W        W29357  17.655  16.951  12.136  0.1342  0.1703 -0.2801
13174W        W29358  14.465   1.305  10.636  0.0649  0.0351  0.0705
13175W        W29359  17.967   9.073   5.573 -0.0500  0.2166  0.1567
13176W        W29360   8.241  12.019   4.061  0.0382  0.0223  0.1154
13177W        W29361   6.485  13.786  14.950  0.0177  0.0804 -0.0143
13178W        W29362  17.027   8.900  13.779  0.0625  0.2600  0.2232
13179W        W29363  15.654   0.189  12.383 -0.0041 -0.0702  0.1689
13180W        W29364   1.710  11.811   1.227 -0.0336  0.0791 -0.0629
13181W        W29365   5.190   0.614  12.584  0.0597  0.2709 -0.3507
13182W        W29366  12.671  15.936  13.364 -0.0784 -0.0626  0.0479
13183W        W29367  11.271   9.646  11.141  0.1843  0.1240 -0.3003
13184W        W29368   5.491   7.877   0.679 -0.2248  0.0775 -0.0175
13185W        W29369   7.183   6.350   9.393 -0.4748 -0.3257 -0.2795
13186W        W29370   6.491   7.459  10.647 -0.0345  0.0341 -0.3069
13187W        W29371   1.051  10.512  11.460  0.0519  0.1386  0.0948
13188W        W29372  14.783  11.959   1.057 -0.0298 -0.0131 -0.0480
13189W        W29373   2.342   9.918   2.827  0.1301 -0.1513 -0.0039
13190W        W29374  14.811  17.334  10.761 -0.3544 -0.0280 -0.0686
13191W        W29375   6.707   8.435  12.472  0.0846 -0.1309 -0.1400
13192W        W29376  10.909  18.133   4.252  0.1483  0.0278 -0.0292
13193W        W29377   2.352   0.356  10.713  0.2221  0.2927  0.1790
13194W        W29378   6.016   4.880   3.888 -0.5379 -0.1592  0.0303
13195W        W29379   6.512   3.211  11.083 -0.1444  0.1399  0.1199
13196W        W29380   0.731  16.503   4.735 -0.3570 -0.0770  0.0328
13197W        W29381  10.020  18.273   1.928 -0.3147 -0.1573 -0.0728
13198W        W29382  18.658   3.666  11.636 -0.1954  0.0925  0.1873
13199W        W29383  15.235   4.802  14.136  0.0392 -0.0659 -0.0335
13200W        W29384   4.651   7.257   0.928 -0.2501  0.1210 -0.1341
13201W        W29385   9.007  14.808   0.761  0.1087 -0.2231  0.0178
13202W        W29386   0.579  11.381  11.482 -0.1279 -0.1767 -0.0867
13203W        W29387  17.835   4.882  11.560  0.2721  0.3262 -0.0871
13204W        W29388   1.336  17.834   0.588 -0.1347  0.1459 -0.0570
13205W        W29389  10.394  13.282  11.839 -0.0249  0.0103  0.0298
13206W        W29390  12.954  14.299   2.196  0.0050  0.1031 -0.1724
13207W        W29391  13.684  11.220   1.010  0.4529 -0.0024  0.2428
13208W        W29392  12.804   0.481   2.045  0.0013  0.0077 -0.1391
13209W        W29393  12.353   2.435   1.473 -0.0240 -0.1126  0.1910
13210W        W29394   9.676  18.668   4.394  0.0309  0.2041 -0.1234
13211W        W29395   5.403   3.905   5.070 -0.2298 -0.1647  0.1335
13212W        W29396  16.523  10.632   2.332  0.4584  0.2274  0.0531
13213W        W29397   3.318  15.297   4.390 -0.2049 -0.3186 -0.1057
13214W        W29398  16.200   7.995  14.506  0.1042  0.0063 -0.1877
13215W        W29399   4.728   5.625   0.491  0.0967 -0.0874  0.1647
13216W        W29400   4.398   0.263   2.823 -0.0514  0.0865  0.2407
13217W        W29401   9.000  17.949   2.074  0.3380  0.1285 -0.1295
13218W        W29402   2.685  12.916  13.829  0.2014 -0.0145  0.2288
13219W        W29403  14.930  10.409   3.399 -0.3046  0.1477  0.1867
13220W        W29404  16.018  17.314  14.035  0.4327 -0.1518 -0.0473
13221W        W29405   4.000  17.870  14.871 -0.1331 -0.0753  0.4348
13222W        W29406   1.210  14.593  11.348  0.0998  0.3146 -0.1805
13223W        W29407   7.412  16.766   2.007 -0.0283 -0.0177 -0.3145
13224W        W29408   2.655   1.714  12.973  0.4553 -0.1198 -0.1712
13225W        W29409   2.332  16.691   4.918 -0.0407 -0.1784  0.1878
13226W        W29410   3.616  15.556  14.419 -0.0076 -0.0524 -0.0317
13227W        W29411  17.005   4.198  13.273  0.1409  0.2864 -0.1762
13228W        W29412   3.196  13.128   4.363 -0.0014 -0.0599  0.0053
13229W        W29413  15.804   5.878  11.193 -0.1773  0.0232  0.5263
13230W        W29414  13.975  17.474  10.509  0.0950  0.2146  0.1909
13231W        W29415   5.780  10.137   1.701 -0.0121 -0.2794 -0.1654
13232W        W29416  13.671  11.693  14.282  0.3583  0.0464  0.0499
13233W        W29417   9.134   9.928   0.860 -0.2716 -0.1972  0.0235
13234W        W29418  10.273  18.008   0.338 -0.1182 -0.0476 -0.2380
13235W        W29419  10.511   3.016  12.746  0.1347 -0.0406 -0.2139
13236W        W29420   6.476   7.155  14.320  0.1965 -0.2633  0.0121
13237W        W29421  12.863  11.105   4.435 -0.4196 -0.1838 -0.0110
13238W        W29422   9.433  16.663   5.347  0.0060 -0.3014  0.2383
13239W        W29423   4.146   6.095  14.819  0.1093  0.1536  0.2702
13240W        W29424   6.159  13.055  12.994 -0.2027 -0.0213 -0.2646
13241W        W29425  17.362   2.749   4.362 -0.1407  0.1758 -0.1873
13242W        W29426  14.095   9.129  13.294  0.0149  0.0841 -0.0957
13243W        W29427   4.994   1.755  13.467  0.0767 -0.0643  0.1469
13244W        W29428   4.539   7.781   9.898 -0.2507  0.0896 -0.3238
13245W        W29429   5.730   7.473   2.719  0.1625  0.2441  0.0060
13246W        W29430   7.558   3.332   1.785 -0.4494  0.0938  0.0120
13247W        W29431  11.329  13.760  14.519  0.3545  0.4015 -0.1164
13248W        W29432   7.195   1.996   4.827 -0.2009  0.0586 -0.3046
13249W        W29433  18.400   4.110  11.383 -0.1756  0.0048  0.4796
13250W        W29434  16.707   5.099  11.438 -0.0718 -0.1055 -0.1220
13251W        W29435  12.614   3.053   2.260 -0.0045  0.1033  0.0233
13252W        W29436  14.260   8.005  11.218 -0.0953  0.1976 -0.1303
13253W        W29437  11.021  15.046  14.184 -0.2282 -0.0428  0.4484
13254W        W29438   6.627  17.169   5.575 -0.0068  0.1464  0.3620
13255W        W29439   6.274  14.357  13.405 -0.1490  0.0785 -0.0363
13256W        W29440  14.535  15.577  11.535 -0.1661  0.0733  0.0741
13257W        W29441   6.142  10.757  13.526 -0.0716 -0.1402 -0.3732
13258W        W29442  17.127  12.667  10.444 -0.0361 -0.3780  0.3886
13259W        W29443   9.547   6.490  13.459  0.0940  0.2483 -0.0154
13260W        W29444   5.622  16.066   4.893 -0.3298 -0.0619 -0.0290
13261W        W29445  13.168   8.276  15.197 -0.0732 -0.0293 -0.4278
13262W        W29446  12.283  10.887  13.014  0.1129 -0.0920  0.0384
13263W        W29447   8.477  12.332  12.479 -0.0372  0.1299  0.3353
13264W        W29448   5.475  10.039   0.658 -0.0863  0.0977  0.0119
13265W        W29449   7.520  10.690   0.762  0.1978 -0.2742 -0.0291
13266W        W29450   9.439   0.869   3.084  0.0188 -0.2332 -0.0864
13267W        W29451   1.486   9.548  13.123 -0.1525 -0.1433  0.2199
13268W        W29452  13.517  13.808   4.121  0.0857  0.0421  0.0184
13269W        W29453  15.182   3.538   3.910 -0.0078 -0.2533 -0.1861
13270W        W29454  12.163  18.614   2.272  0.3653  0.0346  0.0518
13271W        W29455  18.646   6.757  13.702 -0.2306  0.2970 -0.1712
13272W        W29456   2.792  12.425  14.840  0.0742 -0.2453  0.2734
13273W        W29457  11.676   8.080   0.214  0.1240  0.1728  0.0813
13274W        W29458  12.772   2.282  12.871 -0.2154 -0.1399 -0.0477
13275W        W29459  16.118   1.948  15.505  0.4565  0.0391  0.3351
13276W        W29460   4.279   7.614  12.949  0.0896  0.1133 -0.1733
13277W        W29461  15.179  16.665  12.961  0.2534  0.3928  0.3140
13278W        W29462   6.179  17.955   0.859 -0.1803 -0.3862 -0.1636
13279W        W29463  13.872  13.746   0.128  0.2190 -0.0294  0.0234
13280W        W29464  13.878  10.531  13.966  0.0123  0.1498  0.0162
13281W        W29465   1.114   8.267  12.268  0.0017 -0.0784 -0.1353
13282W        W29466  17.393   4.221   5.132  0.0326 -0.0476 -0.1255
13283W        W29467   1.739   2.592  14.300 -0.0122  0.3971 -0.0774
13284W        W29468  11.779   7.400  13.251 -0.1456 -0.1101  0.0578
13285W        W29469   0.262  18.461   1.525 -0.3372 -0.0905 -0.1388
13286W        W29470  17.399   7.971  11.433  0.0325  0.1055  0.0358
13287W        W29471  18.152  15.784   0.247  0.2567 -0.0636 -0.2355
13288W        W29472   2.497  11.315  14.139  0.1270 -0.1461  0.1883
13289W        W29473  12.377   4.383  14.654  0.0598 -0.0387 -0.1419
13290W        W29474   8.199  11.229   0.185  0.1563  0.3238  0.1645
13291W        W29475   8.446   5.243  10.121  0.0330 -0.4002 -0.2013
13292W        W29476  11.386   7.179  13.959  0.0692  0.2495 -0.0466
13293W        W29477  17.316  17.446   1.249  0.3020 -0.1443 -0.0751
13294W        W29478  15.659  17.201  12.450 -0.2149 -0.0845  0.0244
13295W        W29479   2.527   2.629  12.579  0.2392 -0.1443  0.2965
13296W        W29480  14.778  18.779  12.870 -0.0581 -0.2420 -0.1355
13297W        W29481  13.621   5.550   2.609  0.2632  0.2980 -0.0046
13298W        W29482   5.184   2.566  11.698  0.1787 -0.0963  0.2804
13299W        W29483  14.287   0.623   2.902  0.0389 -0.0158  0.0299
13300W        W29484  16.989   1.460   5.481 -0.0743  0.0560 -0.0752
13301W        W29485   6.906   8.884   1.838  0.1904 -0.1971  0.3169
13302W        W29486   4.868  16.868  11.492 -0.0280  0.0008  0.0280
13303W        W29487  11.776   0.101   2.139 -0.0102 -0.1540  0.1199
13304W        W29488   3.436  12.303  11.391  0.1161  0.1276 -0.1238
13305W        W29489  14.559   8.654   4.786 -0.1205 -0.2043  0.0993
13306W        W29490   7.630  16.208   4.577 -0.1074  0.2970 -0.2499
13307W        W29491   1.473   3.481   4.656  0.1567  0.0483 -0.0503
13308W        W29492   0.193   5.863  13.935  0.5004  0.6398  0.1777
13309W        W29493   8.409  11.080  11.256  0.1490 -0.1459 -0.0785
13310W        W29494  15.200   3.319  12.208  0.0397 -0.1499 -0.1150
13311W        W29495   9.193   3.569  13.072 -0.1975  0.1183  0.4309
13312W        W29496  16.413  16.374   4.220 -0.1049 -0.2136  0.0879
13313W        W29497  10.840  12.963   3.558 -0.0761 -0.0582  0.1194
13314W        W29498   4.696   5.200  11.469  0.0427 -0.0683  0.0396
13315W        W29499   9.451   5.535   4.065  0.0956 -0.1768 -0.0170
13316W        W29500   6.175   3.008  15.531  0.0021  0.3607 -0.1367
13317W        W29501  11.250  10.707   3.243  0.2103 -0.4266 -0.1547
13318W        W29502  11.683  15.482   4.523  0.2339  0.1177  0.0151
13319W        W29503  16.974  12.863  12.632 -0.3392  0.1528 -0.0489
13320W        W29504   2.058   7.546   4.782  0.1061 -0.1232  0.3755
13321W        W29505  13.899   7.614  11.642  0.2514  0.1546 -0.4051
13322W        W29506  14.109   4.785  14.960 -0.1355 -0.2786  0.2663
13323W        W29507   5.144   3.420   2.622  0.2191 -0.0895  0.4206
13324W        W29508  16.945   1.729   9.991  0.2162  0.0187 -0.1819
13325W        W29509  17.507  13.446   0.471 -0.1317  0.0394 -0.1963
13326W        W29510   2.810   5.689   5.100 -0.2706 -0.0567 -0.0452
13327W        W29511   1.054   2.179  14.500 -0.0316  0.1705  0.1733
13328W        W29512  12.890   0.867  14.829 -0.1958  0.0655 -0.0251
13329W        W29513  10.133   9.345  15.254 -0.1898  0.1023  0.0964
13330W        W29514   2.369   9.297  11.415 -0.1036  0.1181 -0.1608
13331W        W29515  13.069  18.385  11.584  0.1891  0.1545 -0.3665
13332W        W29516   4.988   5.743  12.846  0.0395  0.2137 -0.1384
13333W        W29517  15.938   4.918  10.463 -0.0306  0.0335 -0.0260
13334W        W29518   5.757  14.325   4.084  0.0117 -0.0861 -0.1528
13335W        W29519   6.541  18.665  13.976 -0.1890 -0.2495 -0.0152
13336W        W29520   6.234  12.744  14.987 -0.0786  0.0506 -0.0918
13337W        W29521  14.657  17.811   2.064 -0.0919  0.1011  0.1495
13338W        W29522   0.751  15.735  13.462  0.1351  0.3460 -0.2025
13339W        W29523   5.233   6.284  11.578  0.0145 -0.0701  0.2592
13340W        W29524   8.592   9.984  13.761  0.1146  0.1649  0.2787
13341W        W29525   1.825  10.479  12.213  0.0468 -0.2414  0.0342
13342W        W29526   4.758  14.688   4.587 -0.0067  0.0216  0.1503
13343W        W29527  18.609   8.902  14.074 -0.2361 -0.0697  0.1489
13344W        W29528  12.973   6.462   2.962  0.0810 -0.2632  0.1132
13345W        W29529   1.307  15.854   0.353  0.1319  0.0866 -0.2693
13346W        W29530  11.280  13.412  12.669  0.1868  0.1357 -0.0040
13347W        W29531  17.423   8.013  13.975  0.2980 -0.2043  0.0879
13348W        W29532   1.195   2.008   4.177 -0.2547 -0.0507  0.2911
13349W        W29533  10.002  16.817  14.594  0.1758  0.2956 -0.1229
13350W        W29534  12.165  16.271   3.996 -0.1822  0.1643 -0.1667
13351W        W29535   1.435  11.960  12.446 -0.0656 -0.0175  0.2456
13352W        W29536  10.925  10.857  14.589  0.5748  0.0623  0.0021
13353W        W29537   9.215   6.685   0.341 -0.1550 -0.0678 -0.1791
13354W        W29538   4.520  10.220   0.742 -0.1626 -0.1681  0.2951
13355W        W29539   4.111  13.787  14.146 -0.1273  0.1271  0.0611
13356W        W29540   9.543  14.175  13.506 -0.0885 -0.0951 -0.1648
13357W        W29541  13.847  12.867   0.515  0.2993 -0.1148  0.2782
13358W        W29542   5.514  12.170  15.374  0.0905 -0.2216 -0.1251
13359W        W29543  13.311  14.516  10.615  0.1025  0.0985  0.1344
13360W        W29544   4.732   4.423  12.929 -0.1172 -0.1123 -0.0190
13361W        W29545  15.060  14.729   4.464  0.1440  0.1297 -0.0630
13362W        W29546   2.594  13.596  12.398  0.0850 -0.0449 -0.1400
13363W        W29547  14.109  12.584   4.184  0.2412  0.2230 -0.1346
13364W        W29548   3.663  16.186   4.426  0.1246  0.0185  0.0484
13365W        W29549   1.613  14.750   0.734  0.0493  0.0586  0.2657
13366W        W29550  12.252   0.827   3.329  0.2401  0.1793  0.1365
13367W        W29551  13.711   4.298   0.191 -0.0308  0.1586  0.1233
13368W        W29552   4.047  15.040   3.596  0.0028 -0.0763  0.0189
13369W        W29553  10.386  11.235   1.562 -0.1023  0.0844 -0.3273
13370W        W29554   6.393  14.058  11.479 -0.0750 -0.0961 -0.0388
13371W        W29555  11.043   0.652   0.532 -0.0142 -0.0461  0.3767
13372W        W29556   6.262   1.626  14.786 -0.0579 -0.0848  0.1367
13373W        W29557  10.561  10.827   1.312  0.0379 -0.1033 -0.0145
13374W        W29558   2.617  11.257  15.495  0.1332  0.0534  0.0972
13375W        W29559  10.970  10.058  11.997  0.0842  0.0580 -0.0132
13376W        W29560   6.404   4.645  11.990  0.2111  0.1657  0.1001
13377W        W29561  14.187  18.257   1.434 -0.0940 -0.1411 -0.0968
13378W        W29562  11.394   1.491   0.774  0.0011 -0.1815 -0.2954
13379W        W29563  16.014  17.540  11.528 -0.0045 -0.2503  0.0498
13380W        W29564  17.940  13.876  14.296 -0.1244 -0.4929 -0.0591
13381W        W29565  15.429   5.451   0.232  0.0635 -0.1266  0.2063
13382W        W29566  13.851   3.455   4.536 -0.0911  0.1287  0.0900
13383W        W29567  10.595  13.745  14.339  0.1608  0.1499 -0.0220
13384W        W29568   5.044  10.405  11.558  0.2733  0.0732  0.0019
13385W        W29569   4.218  17.782  12.228 -0.3195 -0.0993  0.2228
13386W        W29570   6.292   9.560   0.951 -0.1447  0.1900 -0.0704
13387W        W29571  14.656   5.035  15.356  0.2489  0.1681 -0.1610
13388W        W29572   8.586   5.074  12.931 -0.0126  0.0093  0.3180
13389W        W29573   4.191  16.790  11.000 -0.2176  0.0429 -0.2962
13390W        W29574   1.491   3.635   5.205 -0.1324 -0.2273 -0.2014
13391W        W29575  12.282   5.160   4.292  0.0583  0.2785  0.1378
13392W        W29576   0.564   6.841  14.237  0.1077 -0.0105 -0.0317
13393W        W29577   9.502   1.571   4.497  0.3490 -0.1941  0.0405
13394W        W29578   5.916   4.956   0.573 -0.0764 -0.1552 -0.0794
13395W        W29579  14.608   9.086  14.792  0.1148 -0.0121 -0.1876
13396W        W29580   5.463   1.875  11.127 -0.1160 -0.1022 -0.1459
13397W        W29581   3.811   4.012   1.696 -0.0008 -0.3008  0.1116
13398W        W29582  13.999   4.202  13.896  0.0782  0.2753  0.0389
13399W        W29583   1.468  17.241  13.584 -0.3209  0.0260  0.0537
13400W        W29584   1.199  11.654  10.117  0.3074 -0.1004  0.0838
13401W        W29585  17.252  15.897  11.188  0.0064  0.1236 -0.0192
13402W        W29586   9.535   0.252  14.360 -0.0810 -0.0150  0.0368
13403W        W29587  18.828  14.799  13.714  0.0105  0.0353  0.1591
13404W        W29588   9.815  16.241   4.185  0.1983 -0.0703  0.3255
13405W        W29589  18.144  16.537   4.077  0.0678 -0.1150 -0.2114
13406W        W29590  16.314  16.161  14.906  0.1244  0.0590  0.0060
13407W        W29591   0.661   7.294   4.177 -0.3348 -0.1106 -0.0579
13408W        W29592  16.345   1.439   3.921 -0.2027  0.2610 -0.3740
13409W        W29593  10.802  14.381  13.611 -0.0307  0.2302  0.0128
13410W        W29594   6.274   2.743  12.120  0.1843  0.2459  0.1250
13411W        W29595   7.869  16.207   1.016  0.1659  0.0938  0.2709
13412W        W29596   9.951   4.498   3.695 -0.0660  0.2433  0.0432
13413W        W29597  17.470  12.578   0.617  0.1820 -0.3102 -0.1130
13414W        W29598   7.931  10.149   4.456  0.1307  0.1981  0.0244
13415W        W29599  18.739   4.794   1.806 -0.1663 -0.4807 -0.2003
13416W        W29600  18.272  14.050  12.632 -0.0096  0.1632  0.1153
13417W        W29601  18.188  17.060  12.119  0.2336  0.0514  0.2055
13418W        W29602   5.046   9.195   0.672  0.1972  0.0222  0.1647
13419W        W29603  10.484  11.352   2.597 -0.3151  0.1444 -0.1678
13420W        W29604  10.108   2.868   0.414 -0.3343 -0.0186  0.3054
13421W        W29605   4.342   8.978  11.869  0.0274 -0.0040  0.1234
13422W        W29606   6.395  11.399   1.263 -0.1403  0.1823  0.1333
13423W        W29607   4.837   6.822  12.103  0.1749 -0.1697  0.0485
13424W        W29608  16.283   7.452   4.943  0.0813  0.3285 -0.1936
13425W        W29609   1.668  13.997   4.249  0.2335  0.2030  0.1039
13426W        W29610  16.523   9.784   5.137  0.0603  0.1369 -0.0466
13427W        W29611  13.398   3.697   1.183 -0.4472 -0.1399  0.1311
13428W        W29612  17.015   8.700   0.168 -0.1388 -0.0612  0.0827
13429W        W29613   5.539   1.863   4.045  0.1676  0.0997 -0.0590
13430W        W29614   4.720   8.860   4.248  0.0781  0.2668 -0.2571
13431W        W29615   5.670   9.096  13.361  0.2972 -0.3720 -0.4681
13432W        W29616  18.120   6.154   2.762  0.0243  0.0934  0.2702
13433W        W29617   8.032   2.591  12.777  0.2824  0.0613  0.0532
13434W        W29618   5.824   3.444  11.658 -0.0750  0.1205 -0.0342
13435W        W29619  14.303   2.364  14.317  0.2716 -0.0929 -0.0243
13436W        W29620   8.579   3.977   2.640  0.2243 -0.0527 -0.4389
13437W        W29621  13.625  18.269   1.362  0.0329  0.0670  0.0326
13438W        W29622  15.225   2.072  12.825  0.0770 -0.3117 -0.3368
13439W        W29623  18.017   4.033   4.176  0.1229 -0.0325  0.1801
13440W        W29624  15.529   4.067  12.624  0.0277  0.0708 -0.0658
13441W        W29625   6.407   4.683   4.175  0.1465 -0.1782 -0.2499
13442W        W29626  14.838  16.706  11.575  0.1693  0.0398  0.0200
13443W        W29627   8.855  18.187  15.248  0.1928  0.1028  0.0424
13444W        W29628   5.041   6.843   4.345 -0.2501  0.1340 -0.1621
13445W        W29629   2.891   7.199   1.483  0.1324 -0.0634  0.0128
13446W        W29630   5.006   3.619   5.026 -0.0300  0.0902 -0.0971
13447W        W29631  14.006  16.208   2.489  0.2286 -0.1756  0.0785
13448W        W29632   3.330   1.048   4.210 -0.2491  0.1907 -0.2281
13449W        W29633   9.298  18.419  15.191 -0.1036  0.2471  0.0123
13450W        W29634  15.592   2.570   2.857 -0.0311 -0.0105  0.1806
13451W        W29635   5.812  11.715   2.604  0.0829  0.1452 -0.0057
13452W        W29636  14.778   4.019  15.343 -0.2202  0.1914  0.2686
13453W        W29637   8.996  18.464   2.103  0.0050 -0.0456 -0.0448
13454W        W29638  14.679   2.109   3.647 -0.1212 -0.2481 -0.2943
13455W        W29639   0.356   0.682   3.616 -0.0997 -0.2784  0.3428
13456W        W29640  17.257   1.546  14.283  0.1632  0.0423  0.2709
13457W        W29641   4.986   2.282   1.638  0.1089  0.1740  0.0735
13458W        W29642   0.995  11.860   4.590  0.0988 -0.0057  0.2386
13459W        W29643  18.631  12.450  10.802  0.1895 -0.2903  0.2839
13460W        W29644   9.980  10.332  13.511 -0.1348  0.0923  0.1939
13461W        W29645   9.287   0.848   2.325  0.2888  0.1423  0.2833
13462W        W29646   7.824   6.860   0.285  0.2832 -0.0968  0.0360
13463W        W29647   3.927   6.556   4.289 -0.2377 -0.2283  0.0956
13464W        W29648   0.262  13.305   1.772 -0.0055  0.1351  0.1934
13465W        W29649   7.504   9.082  11.063 -0.0118 -0.0715 -0.1237
13466W        W29650   4.177   0.363  14.370  0.0271 -0.4361  0.0294
13467W        W29651   9.137   7.954  13.562  0.1994  0.0406 -0.0110
13468W        W29652   0.123  12.518  12.280  0.2232 -0.0161  0.2970
13469W        W29653   5.175  18.328  10.388  0.1385 -0.1032  0.0784
13470W        W29654   5.020   3.030  11.738 -0.0748  0.0570 -0.2882
13471W        W29655   8.823   9.957  12.057 -0.4170 -0.1424 -0.2116
13472W        W29656   8.006   4.347  12.357 -0.0692 -0.0732  0.1624
13473W        W29657   0.872   0.309   1.157 -0.4348 -0.0977  0.0441
13474W        W29658  15.568   7.369  14.758  0.5049 -0.1124 -0.4243
13475W        W29659  13.002  13.727   2.354  0.0537  0.0234  0.4151
13476W        W29660  12.528  13.628   1.998  0.0654  0.0706 -0.0825
13477W        W29661  10.390  16.354   5.041 -0.1193  0.2065 -0.2639
13478W        W29662  10.593   6.871  14.574 -0.1626 -0.2826  0.1695
13479W        W29663   3.667  14.883  13.199  0.1414 -0.2937 -0.0189
13480W        W29664  14.301  18.642  12.812  0.0325  0.0731  0.1302
13481W        W29665  14.017  17.048  14.217  0.0467 -0.0276 -0.1934
13482W        W29666  11.442  18.793   3.954 -0.0571 -0.1746  0.0055
13483W        W29667  13.998  13.994   1.936  0.0423 -0.0717  0.2583
13484W        W29668   9.140   5.089  11.176  0.0767  0.1774 -0.1846
13485W        W29669  15.866  14.472  14.058  0.0436  0.4117  0.0286
13486W        W29670   2.440   4.664   3.762 -0.1262  0.1962  0.1218
13487W        W29671   7.012   9.406  10.877  0.2529  0.1405 -0.0832
13488W        W29672  12.163   4.030  10.512  0.0638  0.1575  0.0965
13489W        W29673   8.991  16.353   3.484 -0.0732 -0.1211  0.0690
13490W        W29674  14.173  14.337   0.710 -0.1006 -0.2964 -0.4411
13491W        W29675   8.844   7.396   3.788  0.2145 -0.1270  0.1165
13492W        W29676  18.629   8.946  13.193 -0.0694 -0.2161  0.1401
13493W        W29677   2.195   8.259  13.368 -0.4590 -0.2413  0.0483
13494W        W29678  10.331  12.246   4.632 -0.1767  0.4023  0.1006
13495W        W29679   1.855   8.506   5.501 -0.0359 -0.0456 -0.1837
13496W        W29680  12.303   5.156   3.763 -0.5563 -0.3450 -0.2594
13497W        W29681  16.972   8.044  15.330  0.2556  0.0277  0.1525
13498W        W29682  16.535  14.403   2.795 -0.0439  0.3077  0.1102
13499W        W29683  15.979   6.993  15.399 -0.1135  0.0974  0.0209
13500W        W29684   2.868  17.833  10.918  0.0190 -0.1350  0.0812
13501W        W29685   2.297  16.937   2.850  0.3202  0.0765 -0.3051
13502W        W29686   5.844  11.156   3.330  0.2033 -0.3013  0.1718
13503W        W29687  17.394  10.858  13.443 -0.3394  0.1098  0.1086
13504W        W29688  18.044   1.949   3.546 -0.1799 -0.1206 -0.1664
13505W        W29689   6.869  14.138   1.243  0.0212  0.2698  0.0481
13506W        W29690  15.182   6.476   4.393 -0.3271 -0.2266  0.1306
13507W        W29691  12.770   7.633  14.970 -0.4842  0.1070  0.0394
13508W        W29692   8.387  15.873   3.867 -0.1774 -0.0712 -0.1453
13509W        W29693   2.973   6.492   5.706 -0.0378 -0.0099 -0.1582
13510W        W29694  12.508   5.349  12.942 -0.1485  0.0241 -0.1556
13511W        W29695  14.585   9.856  13.141  0.2947 -0.0516  0.1309
13512W        W29696  16.978   0.865   5.541 -0.2980 -0.0412  0.0958
13513W        W29697  12.897  13.283   1.800 -0.0044  0.0783  0.0144
13514W        W29698   2.118  11.235  11.840 -0.2206  0.5622  0.2252
13515W        W29699  11.652  17.039   2.455  0.2753  0.4062  0.5027
13516W        W29700  15.330  17.236   1.866 -0.3021  0.0578  0.1514
13517W        W29701  11.193   3.676  13.555  0.2706 -0.2585  0.0848
13518W        W29702   6.235   2.057  14.471 -0.3419  0.3078  0.1792
13519W        W29703   5.541   8.431   0.788 -0.1809  0.1544  0.2249
13520W        W29704   4.450   9.208  12.790 -0.0297 -0.0233 -0.1661
13521W        W29705  17.383   3.677   1.161  0.0409 -0.2394 -0.1032
13522W        W29706   3.483  13.043  10.947  0.3050 -0.1861  0.1963
13523W        W29707   5.490   7.717  10.248  0.0895 -0.3574  0.2541
13524W        W29708  17.275   3.146  13.092 -0.0242  0.3572  0.0303
13525W        W29709  11.288  10.265   2.339 -0.0123 -0.2765  0.1325
13526W        W29710  10.013  17.135   0.795  0.3541 -0.1892  0.3349
13527W        W29711   4.058  15.187  13.100 -0.0297 -0.1127  0.0930
13528W        W29712   9.017   7.644  12.840 -0.2128  0.4554  0.0401
13529W        W29713  16.963  18.593   5.041  0.1684  0.0480  0.0074
13530W        W29714   0.035   3.407  12.886 -0.1823 -0.2050 -0.0536
13531W        W29715  16.529   5.155  13.941  0.2434  0.1941 -0.0633
13532W        W29716  14.523   7.036  13.967  0.1507  0.3173 -0.0783
13533W        W29717  17.221  17.910  10.850  0.0723 -0.3955 -0.0325
13534W        W29718  14.264  18.132  12.648 -0.1063 -0.0332 -0.0670
13535W        W29719   8.021   1.125   2.206 -0.1766  0.3612  0.1927
13536W        W29720  16.234   1.526   4.877  0.3508 -0.0811 -0.0402
13537W        W29721  12.048  16.507  12.825 -0.2309  0.0512  0.1170
13538W        W29722   4.356  16.608  12.727  0.0442 -0.0159 -0.0226
13539W        W29723   6.994  12.214  11.760 -0.3445 -0.1475  0.0074
13540W        W29724  12.897  11.707   0.861 -0.0629  0.0704  0.0942
13541W        W29725   4.554  14.778   0.784  0.0508  0.1805  0.0688
13542W        W29726  11.350   7.097  14.523  0.3067 -0.1089  0.0343
13543W        W29727  17.757  16.871  14.151 -0.1704 -0.1492 -0.2163
13544W        W29728  11.807  16.161  12.539  0.0000  0.0847  0.0641
13545W        W29729   3.428   5.393   3.208 -0.4382 -0.0690 -0.0795
13546W        W29730  13.008  18.672  14.034 -0.2013 -0.3855 -0.2090
13547W        W29731   2.660   6.685   2.694  0.1953 -0.1160 -0.0227
13548W        W29732   7.088   7.062   2.747  0.0479  0.2121 -0.1689
13549W        W29733  12.455  16.636   1.860 -0.1852  0.1754 -0.0527
13550W        W29734   6.744   7.714   4.971 -0.0997 -0.0263  0.0598
13551W        W29735  15.205   8.067  12.621 -0.1617 -0.2625  0.1209
13552W        W29736  14.309   9.569  13.446 -0.0165  0.0402  0.0020
13553W        W29737  14.531  15.352  12.047 -0.1306  0.1174  0.0941
13554W        W29738   8.771   6.075   2.039 -0.1050 -0.1016 -0.1772
13555W        W29739  15.397   8.299  14.792  0.1613  0.3051 -0.0248
13556W        W29740   3.319   6.246   0.542  0.0338  0.1281 -0.2816
13557W        W29741   1.792   7.307   0.613  0.3786 -0.2615 -0.1372
13558W        W29742  12.829   7.998   2.402  0.1390  0.0827 -0.0860
13559W        W29743   8.845  18.732  15.240  0.3418 -0.0583 -0.2577
13560W        W29744  12.505   2.779  15.108 -0.1290 -0.1862  0.3057
13561W        W29745   0.782  12.100  13.990 -0.1205  0.3566 -0.1984
13562W        W29746   6.582   0.819  13.189 -0.1051  0.3174  0.0963
13563W        W29747   5.085   1.874  14.642  0.0566  0.0639 -0.1736
13564W        W29748  17.809   4.606   1.389  0.4221  0.1454  0.2244
13565W        W29749  12.981   6.424  13.457  0.1094 -0.0166 -0.3349
13566W        W29750   1.133   6.183  14.515 -0.1543  0.2474  0.1257
13567W        W29751   2.607  16.032  13.314 -0.2749  0.2509 -0.0099
13568W        W29752   2.509   7.989   9.563  0.0404  0.1358  0.3665
13569W        W29753  17.563  14.293   0.719  0.1001  0.2662 -0.2103
13570W        W29754  17.307   0.746  11.897  0.0966 -0.1724  0.0248
13571W        W29755   5.971  14.930   3.634 -0.0193 -0.0125 -0.0740
13572W        W29756  13.274   1.447  13.046  0.0351  0.4750  0.0599
13573W        W29757  16.400   8.762   2.071 -0.1542  0.2006 -0.0674
13574W        W29758  12.621  16.792   2.919  0.2611 -0.2657  0.2411
13575W        W29759   2.169  18.504   0.454  0.1789 -0.0781  0.2221
13576W        W29760  10.065  12.848  13.197  0.0245  0.1309  0.1788
13577W        W29761   7.338  13.339   3.000 -0.0019 -0.0189  0.0074
13578W        W29762  10.126  16.248   2.436  0.3826 -0.4516 -0.0634
13579W        W29763  17.278  17.722   0.819  0.1489 -0.1225 -0.1213
13580W        W29764   2.737   4.367   4.362  0.0128 -0.3266 -0.0592
13581W        W29765   1.999   2.876   2.173  0.0928 -0.2457  0.3225
13582W        W29766  16.785  16.811  11.325 -0.3581  0.4580  0.0252
13583W        W29767   6.825  12.443   2.110 -0.2657  0.0631 -0.0407
13584W        W29768  15.866  17.104   0.929  0.0980 -0.0974 -0.1992
13585W        W29769  11.507  11.172  15.320  0.1956  0.0368  0.2126
13586W        W29770   5.296  15.558  11.653  0.0842 -0.2332  0.2673
13587W        W29771  18.215  17.751   5.272  0.0607  0.0726  0.1162
13588W        W29772   8.197   0.381  13.109 -0.0535 -0.0497  0.0182
13589W        W29773  13.581  12.327   2.738 -0.0989  0.1095  0.1391
13590W        W29774   9.669   1.978  13.554  0.1679  0.1003  0.1751
13591W        W29775  17.587  12.246   4.519  0.1570 -0.3099 -0.0071
13592W        W29776   0.290  10.171  11.144  0.0628 -0.3624 -0.0790
13593W        W29777   9.804  16.206  12.129  0.1431 -0.1838  0.0522
13594W        W29778   1.877  14.573   1.243 -0.1329 -0.0134  0.0522
13595W        W29779  12.394   5.283  15.115 -0.0757 -0.1246  0.0747
13596W        W29780   9.627   6.081   3.958 -0.1002 -0.0285  0.0420
13597W        W29781  11.047  17.791  14.619  0.3887 -0.0291 -0.0616
13598W        W29782   9.711   1.141   3.467  0.0437  0.0090  0.0658
13599W        W29783  17.451   9.777  12.753 -0.0004 -0.1813 -0.2163
13600W        W29784  18.539  12.970  13.674 -0.0064 -0.1254  0.1355
13601W        W29785   4.334   8.930  13.541 -0.1080 -0.3987 -0.0661
13602W        W29786   3.367  16.206  11.120 -0.2111  0.0007  0.1909
13603W        W29787   6.742   6.658   3.266 -0.0204 -0.1239  0.1356
13604W        W29788  16.358  11.848  14.138  0.1737  0.0721  0.2318
13605W        W29789   3.510   1.289   4.684  0.0463 -0.3246  0.1365
13606W        W29790   3.456   9.206   4.197 -0.2386  0.2248 -0.1677
13607W        W29791   7.962   0.563   1.383 -0.0444 -0.0459 -0.0390
13608W        W29792  13.459   7.500   0.158 -0.0278  0.4874 -0.1630
13609W        W29793   9.534  16.757   3.055  0.1499 -0.2342 -0.3501
13610W        W29794  18.652  11.476   4.650  0.1174 -0.0492  0.1254
13611W        W29795  18.853   8.069   1.937 -0.0300 -0.1694  0.0466
13612W        W29796   5.097   5.189  11.059  0.1640  0.0373 -0.1310
13613W        W29797   0.246   9.137  15.293 -0.3577  0.1938  0.3942
13614W        W29798  14.476   4.577   4.556 -0.1763  0.0400 -0.0098
13615W        W29799  15.773   1.142   0.204 -0.5405 -0.3768  0.0273
13616W        W29800   3.175   5.561   3.674 -0.3399 -0.0039 -0.2479
13617W        W29801   4.260  11.436  12.443 -0.1474 -0.1855 -0.1244
13618W        W29802   0.086  10.467   2.956  0.0493  0.1099 -0.2279
13619W        W29803   2.005   4.715   0.434  0.3775  0.2905  0.1800
13620W        W29804  18.096  18.602   1.289 -0.1398 -0.1800 -0.3200
13621W        W29805  12.084  16.493  12.314 -0.3237 -0.0171  0.1236
13622W        W29806  18.763   5.220   5.074 -0.3420 -0.1516  0.1111
13623W        W29807   0.644   1.077   3.255 -0.1394  0.1959  0.0967
13624W        W29808  10.826   5.269  15.486  0.2114  0.0446 -0.0566
13625W        W29809   0.225   4.172  11.600 -0.0018  0.1159  0.3097
13626W        W29810  10.460  14.040  13.552 -0.1324  0.1411 -0.5988
13627W        W29811   5.856   5.594   3.439  0.1138  0.5134 -0.1878
13628W        W29812   4.675   0.835   0.399 -0.1293 -0.2396  0.1003
13629W        W29813   6.319   4.543  15.379  0.2404  0.0372 -0.1352
13630W        W29814   9.052  11.517   3.470 -0.0711 -0.1909  0.1141
13631W        W29815   3.979  14.185  10.008 -0.0214 -0.1457 -0.3079
13632W        W29816  15.372  15.774   4.934 -0.1451  0.2002 -0.2270
13633W        W29817  16.129   0.875  13.014  0.0555  0.0769 -0.3389
13634W        W29818  10.781  15.352   1.650 -0.0296  0.1005  0.0737
13635W        W29819   9.384  11.481  14.033  0.2205 -0.1390 -0.0094
13636W        W29820   1.985   2.243   2.647 -0.0035 -0.1374 -0.1921
13637W        W29821  15.244  16.550  14.186 -0.0023 -0.2023 -0.0623
13638W        W29822   1.151  17.900   4.768  0.4820 -0.1207 -0.2713
13639W        W29823  13.461   6.480  13.632 -0.4199  0.1593  0.5036
13640W        W29824   6.030  16.300  11.155  0.1521  0.1722  0.0228
13641W        W29825   3.493   7.366  14.712 -0.0290  0.1146  0.1099
13642W        W29826  10.410   6.088  11.479 -0.0054  0.2581  0.0466
13643W        W29827  14.228  11.782  13.066  0.1612  0.4263  0.0811
13644W        W29828   2.460   4.746  12.702  0.1163 -0.2177  0.1772
13645W        W29829  15.806   7.143  11.722 -0.2460  0.0972  0.2086
13646W        W29830  16.649   8.615   4.626  0.3667  0.0856  0.0386
13647W        W29831  16.449   9.489   3.908  0.1245  0.1180  0.2047
13648W        W29832  17.987  14.426  10.451  0.0375 -0.0766 -0.0311
13649W        W29833   2.360   3.414  12.197  0.0973 -0.3115  0.1786
13650W        W29834  12.329   7.223  14.845  0.0311  0.0674 -0.1483
13651W        W29835  15.719  18.396   2.287  0.1235 -0.0849  0.4610
13652W        W29836   8.785  10.668   3.544 -0.1565 -0.1437 -0.0852
13653W        W29837   0.625   6.039  14.274  0.1994  0.0424 -0.1212
13654W        W29838   8.364  16.913  13.399 -0.1355 -0.1037  0.2570
13655W        W29839   3.245  16.633   3.606  0.2452 -0.1915  0.0475
13656W        W29840   9.854  12.492  12.126 -0.2697 -0.3374 -0.0291
13657W        W29841   4.035  16.192  12.244  0.0091  0.3377 -0.1004
13658W        W29842   3.872  18.487   0.136 -0.0713  0.0767  0.0787
13659W        W29843  11.274   1.116  12.497  0.0878 -0.2179 -0.0543
13660W        W29844   7.177   4.051  15.534  0.2775 -0.2390  0.0681
13661W        W29845  16.232   6.325  13.344 -0.2677 -0.4035  0.0767
13662W        W29846  15.204  15.749   3.328 -0.2440  0.0805 -0.1674
13663W        W29847   8.877   8.292  12.256  0.1063 -0.1664  0.1354
13664W        W29848  17.681  11.885   2.821  0.3845  0.0277  0.0492
13665W        W29849  17.454   0.718   5.391 -0.1261 -0.0940  0.1459
13666W        W29850  10.638   0.330  12.155 -0.1352 -0.1949  0.1664
13667W        W29851  15.354   0.294  13.698 -0.1068 -0.3466 -0.2803
13668W        W29852   9.016  13.759  12.108  0.1133  0.0139  0.0738
13669W        W29853   9.557  12.112  12.885 -0.2523  0.2404  0.1289
13670W        W29854   4.952  10.498   2.643  0.0642 -0.4356 -0.0092
13671W        W29855  15.080  11.216   4.456  0.0216  0.1620  0.0722
13672W        W29856   7.253  11.362   2.059 -0.0570 -0.2313 -0.0952
13673W        W29857  14.891  12.341   2.387  0.2059  0.2309  0.3270
13674W        W29858  10.167  16.435  12.804  0.0180  0.0356 -0.0214
13675W        W29859   0.374  13.301   3.142 -0.1560  0.2650  0.0225
13676W        W29860   5.855   8.254  12.401  0.0578  0.2709  0.2063
13677W        W29861  11.765  17.554   1.194  0.4040 -0.0096  0.0608
13678W        W29862  18.117   5.349   5.740 -0.1595 -0.0730  0.3515
13679W        W29863   9.399  11.017  13.026  0.2995  0.1236  0.0066
13680W        W29864   7.506   2.500  15.254  0.4670  0.3354  0.0175
13681W        W29865  13.712  10.530   4.769  0.1278 -0.2873 -0.5240
13682W        W29866   3.270   2.320   2.167  0.0136  0.2056  0.0273
13683W        W29867   9.868  10.144  14.154  0.0648  0.0983  0.1986
13684W        W29868   0.213  14.523  14.098 -0.2551  0.2903 -0.0064
13685W        W29869  18.039   0.506  11.635  0.0796 -0.2372  0.0656
13686W        W29870  14.471  16.786   2.922 -0.0259 -0.0247  0.0145
13687W        W29871   7.115   7.120   1.562 -0.2851  0.0300 -0.1805
13688W        W29872  11.650   6.677  11.737  0.1397  0.0680  0.2823
13689W        W29873   5.474   6.618   2.305 -0.2801 -0.5092  0.1842
13690W        W29874  13.821   4.979   5.238  0.0897  0.3491 -0.3908
13691W        W29875   4.522   0.676   1.227 -0.2838 -0.1169 -0.1182
13692W        W29876  18.179   4.212   3.453 -0.1209 -0.1097  0.3956
13693W        W29877  14.964   8.135  10.867 -0.0372 -0.1386  0.3775
13694W        W29878  15.187  15.872  12.151  0.2069 -0.2356  0.4531
13695W        W29879  18.096  10.825   4.711 -0.1303 -0.3026 -0.1593
13696W        W29880   7.749   5.983  14.602  0.1207  0.0651  0.1153
13697W        W29881   1.357   8.658   1.748  0.0630 -0.3392 -0.2447
13698W        W29882  18.026  16.549  11.392 -0.0882 -0.0521  0.0041
13699W        W29883  14.563  11.088  13.914  0.0857 -0.0333 -0.2427
13700W        W29884  10.302  10.651  13.835 -0.1964 -0.0934 -0.0083
13701W        W29885   9.710  12.502  11.194 -0.1376  0.0245  0.1239
13702W        W29886   1.386   0.131   5.088 -0.3527 -0.0039 -0.0155
13703W        W29887   3.746  12.105  13.287 -0.0454  0.0293  0.3077
13704W        W29888   5.915   6.779   3.114 -0.1993  0.2556 -0.0071
13705W        W29889   4.238  10.926  11.856 -0.0158  0.2589 -0.1456
13706W        W29890  15.492   3.013  14.345 -0.3706 -0.0942  0.0912
13707W        W29891   3.964  14.628   0.983 -0.0222  0.2736 -0.0364
13708W        W29892  18.441  17.166  14.971  0.1135  0.2353 -0.0191
13709W        W29893   1.601   1.784  11.985 -0.1720 -0.2343  0.2524
13710W        W29894   3.979  16.514   2.174 -0.1562 -0.2216 -0.1558
13711W        W29895   9.777  11.556  13.741 -0.1057 -0.0279 -0.3770
13712W        W29896   5.694  10.823   2.621 -0.2089 -0.0114 -0.1108
13713W        W29897  16.793  18.165  12.745 -0.0606  0.1423 -0.0699
13714W        W29898   2.370   7.910   1.756 -0.0170  0.0294 -0.0213
13715W        W29899  14.288   3.799  11.684  0.0787 -0.1628 -0.1900
13716W        W29900  14.317   0.097  14.838 -0.0385  0.1007  0.4110
13717W        W29901  10.158  18.415   9.979  0.3570  0.0659 -0.4113
13718W        W29902   0.155  12.049   0.168 -0.0206 -0.0711  0.1938
13719W        W29903   4.192   7.211   1.522  0.1341 -0.1372  0.0362
13720W        W29904   6.660   7.245   0.767 -0.1022  0.0057 -0.0607
13721W        W29905  14.690   1.403   2.409  0.2478  0.1570 -0.0819
13722W        W29906   6.229   5.781   2.750  0.1107  0.0407 -0.0141
13723W        W29907   3.955  10.215  13.455 -0.1012 -0.1748  0.3263
13724W        W29908  17.485  16.332  11.384  0.1135 -0.0368  0.2433
13725W        W29909   0.057  16.563   1.027  0.2711 -0.0760  0.1793
13726W        W29910   4.697   6.673   3.988 -0.1549 -0.2582 -0.2398
13727W        W29911  17.020   5.281   4.147  0.2275 -0.0848 -0.0221
13728W        W29912  16.239  16.870  11.435 -0.3595  0.1364  0.0886
13729W        W29913   7.810  14.239   0.286  0.4483 -0.0215  0.0734
13730W        W29914  18.606  15.498  14.158  0.2088 -0.4893  0.0005
13731W        W29915   0.308  10.104   3.287 -0.1004 -0.0707  0.1065
13732W        W29916  16.188  10.363  11.821  0.3231  0.0984 -0.0875
13733W        W29917   2.560   0.734  15.120  0.0444 -0.0154 -0.1208
13734W        W29918  15.864  12.293   1.120 -0.0743 -0.1504 -0.1053
13735W        W29919  12.523  18.828   3.745 -0.3108 -0.0057 -0.0795
13736W        W29920   9.117  14.418  10.924  0.3294 -0.2228 -0.2665
13737W        W29921   1.498  10.835  15.076 -0.3068  0.1071 -0.2085
13738W        W29922  17.283  12.499  13.627 -0.0327 -0.1179  0.2557
13739W        W29923   5.704   8.515   3.750  0.0628 -0.0130  0.1071
13740W        W29924  11.944   1.562  12.678 -0.3490  0.1321 -0.0410
13741W        W29925  12.405   4.789  12.715  0.0892 -0.1155 -0.2223
13742W        W29926   4.053  11.780  10.617  0.0463  0.1063 -0.2109
13743W        W29927   8.796  14.561   3.288  0.3454  0.3457 -0.2088
13744W        W29928   8.250   7.919  10.716 -0.1700 -0.1486 -0.1183
13745W        W29929   5.774  13.658   4.323 -0.1020  0.1987 -0.0090
13746W        W29930   7.121   3.576   1.179 -0.2868 -0.2671 -0.3955
13747W        W29931   2.276   3.366  11.004 -0.0030 -0.1593  0.1300
13748W        W29932   2.297  11.768  10.453 -0.1728 -0.0109 -0.3790
13749W        W29933   4.959   1.074   3.009  0.1154 -0.1696  0.2171
13750W        W29934  14.510  15.493   4.322  0.0562 -0.1054  0.2483
13751W        W29935   8.084  10.679   1.006 -0.2495  0.1650  0.0518
13752W        W29936   5.891   2.481  11.762 -0.2253 -0.1176 -0.0309
13753W        W29937   3.625   7.725  14.079 -0.2575 -0.1325  0.0988
13754W        W29938   9.960   7.660   2.211 -0.0176  0.2442 -0.1112
13755W        W29939   6.835  17.066   2.830 -0.2119 -0.0141 -0.0766
13756W        W29940  11.854  16.258  13.181  0.0467 -0.0576  0.1824
13757W        W29941  13.785  10.675   1.105 -0.2354 -0.1460  0.0649
13758W        W29942   8.721  12.156  14.463 -0.0155  0.3114  0.0825
13759W        W29943   5.866   6.245  12.922  0.3358 -0.0089  0.0819
13760W        W29944   4.797  11.687   0.746 -0.3367  0.1094 -0.0576
13761W        W29945  10.546  13.870   3.564 -0.0766  0.2447 -0.3749
13762W        W29946  18.382   0.212   4.405 -0.1390  0.2858  0.3077
13763W        W29947  12.275  14.073  13.321  0.1620  0.0297 -0.1484
13764W        W29948  13.900  12.097   3.165  0.1112  0.1144  0.2193
13765W        W29949   8.474  11.814  14.020  0.2751 -0.1222 -0.0914
13766W        W29950   6.783  10.479   9.379 -0.0827  0.1069  0.1214
13767W        W29951  18.244  15.041  10.953 -0.3134  0.3722  0.1351
13768W        W29952  11.448  16.692   2.760 -0.1756  0.2746 -0.0289
13769W        W29953  14.621  10.723  12.528  0.2025  0.0254 -0.3244
13770W        W29954   0.076   5.847  12.027 -0.2240  0.0839  0.0537
13771W        W29955  16.527   2.937   5.000  0.2186  0.0865 -0.3086
13772W        W29956  11.564   4.532  13.184 -0.2791  0.1237  0.1585
13773W        W29957  17.841  13.109  11.614 -0.2238  0.1299  0.2960
13774W        W29958  10.253  18.046   0.874 -0.0081  0.1820  0.0334
13775W        W29959  16.156   4.761  14.082 -0.2589 -0.0446 -0.1297
13776W        W29960  16.976   2.751  13.369 -0.2960  0.0020 -0.1963
13777W        W29961  13.713  10.894  11.700 -0.0201 -0.2772 -0.0951
13778W        W29962  16.700  12.637   3.149  0.0582 -0.5135  0.1029
13779W        W29963  15.289  10.546  11.007  0.0476  0.3066  0.1711
13780W        W29964   2.608   9.430  12.845  0.1289 -0.1176 -0.1779
13781W        W29965   6.024   7.924   1.939  0.0709  0.0377 -0.0573
13782W        W29966  10.647   9.830  14.692  0.1424  0.1549 -0.2734
13783W        W29967   7.559  11.045   9.566  0.3389  0.0689 -0.0841
13784W        W29968   1.313  16.222   0.721  0.3264  0.2335 -0.2489
13785W        W29969  18.547   3.699   1.861  0.2455  0.2601  0.2819
13786W        W29970  12.483  16.382  11.628  0.2479 -0.0541  0.1559
13787W        W29971  16.974  13.979  14.240 -0.0667 -0.3899 -0.2109
13788W        W29972   2.718  12.223  12.442  0.3317 -0.2076 -0.0534
13789W        W29973   5.938  16.844  12.341 -0.1392  0.1007 -0.1829
13790W        W29974  13.407   4.301  12.984  0.1427  0.1781 -0.0936
13791W        W29975  13.128   2.547  12.035  0.0268 -0.1043  0.4005
13792W        W29976   7.862  17.319   0.142  0.0809  0.0578 -0.2763
13793W        W29977  16.370   4.449  11.683  0.0453  0.0373  0.0316
13794W        W29978   6.223   7.986   4.149  0.0527 -0.1400 -0.2210
13795W        W29979  11.769   6.995   1.733 -0.3124  0.3028 -0.3844
13796W        W29980   6.307  18.194   1.343  0.1112  0.0166  0.0554
13797W        W29981   1.714   5.201  14.879  0.1129 -0.1253 -0.0822
13798W        W29982   6.716  15.477   3.997  0.1192 -0.2062  0.0012
13799W        W29983   2.250   9.790  13.530  0.1151 -0.1608 -0.1899
13800W        W29984  10.672   9.905   1.251  0.3318  0.0803 -0.0748
13801W        W29985   2.783   3.130  12.864 -0.3742 -0.0661 -0.1110
13802W        W29986   1.313  17.580   3.492  0.0667  0.2046  0.3022
13803W        W29987   6.843   6.428   3.986  0.0036  0.0474 -0.0120
13804W        W29988   1.451   1.599   3.257  0.1082  0.1419  0.1328
13805W        W29989  10.149  10.284  10.761 -0.1780  0.5949 -0.1839
13806W        W29990   7.868   4.462   3.136  0.1256 -0.1165  0.2512
13807W        W29991  12.166  14.284   0.088  0.1178  0.2069 -0.1907
13808W        W29992   3.232  15.709  14.174 -0.1500  0.0797 -0.0573
13809W        W29993  11.610  16.263   4.652  0.1083 -0.0162  0.0656
13810W        W29994   6.450   3.410   5.673 -0.1528  0.0227  0.2671
13811W        W29995   4.078  16.518   2.664  0.1386  0.1380 -0.0291
13812W        W29996  14.220  17.932   4.788  0.1120 -0.4062 -0.0683
13813W        W29997  12.403   5.136   1.278 -0.1608  0.4039  0.3457
13814W        W29998   5.792  15.574   1.179  0.0408 -0.1272 -0.2276
13815W        W29999   2.450   7.616   0.521  0.3232 -0.0989 -0.2077
13816W        W30000  17.489  12.272  11.802  0.3806 -0.3249 -0.0802
13817W        W30001  10.940   0.224   4.413  0.3464 -0.0369  0.1470
13818W        W30002   6.602   1.529   3.457  0.1939  0.0500  0.0946
13819W        W30003   9.039  18.517  12.350 -0.0322 -0.0146  0.0940
13820W        W30004  14.093   3.855   1.716  0.1653 -0.2953  0.2916
13821W        W30005  12.470   0.887  14.051 -0.0985 -0.2311 -0.2294
13822W        W30006  16.689   2.929  15.340 -0.0056 -0.0317 -0.0061
13823W        W30007   0.681  12.025  10.288  0.1488 -0.3574 -0.2831
13824W        W30008  11.976  14.352   2.802 -0.0391  0.1866 -0.1471
13825W        W30009   5.562   9.646  11.160 -0.2381  0.2001 -0.3403
13826W        W30010   5.981  14.811   4.914 -0.3027  0.1217 -0.1891
13827W        W30011  12.615   5.291  14.087  0.2982  0.0754 -0.0035
13828W        W30012  17.721  13.864  10.583  0.0754 -0.2568  0.1975
13829W        W30013  16.439  18.623  15.057  0.0042 -0.1573 -0.2013
13830W        W30014  11.195   4.645   0.363 -0.0572  0.4341  0.1834
13831W        W30015   9.459   1.488  14.173 -0.1810  0.3191  0.1324
13832W        W30016  12.191   8.806  15.254 -0.2415 -0.2684 -0.2183
13833W        W30017   6.560   4.915  13.916  0.0612 -0.4136 -0.5677
13834W        W30018  14.675  18.006  13.973  0.2565 -0.2163 -0.1537
13835W        W30019  18.257  13.661   3.023 -0.4116  0.1693 -0.1011
13836W        W30020  14.437   4.209   1.731  0.2523 -0.1201  0.1142
13837W        W30021  17.892  12.441   1.254 -0.0172  0.0596 -0.0721
13838W        W30022   1.022   6.987   2.511 -0.2381 -0.4072  0.2469
13839W        W30023  11.843   4.365  13.796 -0.0510 -0.2097  0.0049
13840W        W30024  17.312  16.348   0.586 -0.2056  0.0081 -0.2250
13841W        W30025   3.549   2.435  12.753  0.0416 -0.1996 -0.1165
13842W        W30026  11.570   1.422  14.760 -0.2163  0.2006  0.1752
13843W        W30027  11.178   9.115   1.206  0.0425  0.0037 -0.0253
13844W        W30028   5.513  12.822   4.051 -0.0243 -0.1270  0.3183
13845W        W30029  15.440   7.530   3.254  0.2975  0.3813 -0.1312
13846W        W30030   1.761  18.229   2.504  0.0309 -0.3130 -0.3720
13847W        W30031   4.522   2.824   5.087 -0.0725  0.0336  0.2008
13848W        W30032   9.532  13.789  12.177 -0.1597  0.1104  0.1566
13849W        W30033  12.480   1.405   4.684  0.1872  0.0954 -0.1102
13850W        W30034  12.706  18.557   0.449 -0.0442 -0.1565 -0.0648
13851W        W30035  17.009   2.683  11.514  0.0038  0.0127  0.0025
13852W        W30036  10.875  17.306   3.363 -0.1288  0.2428 -0.1159
13853W        W30037  13.885   1.026   2.528 -0.3208 -0.0737 -0.0997
13854W        W30038   0.692  12.740  11.466  0.2245  0.4058  0.5052
13855W        W30039   7.349  13.985  14.191 -0.3126  0.1461  0.0175
13856W        W30040   3.126  16.801   4.089  0.2380 -0.1231  0.0095
13857W        W30041   1.887   4.000  14.206 -0.1737  0.1320  0.0990
13858W        W30042   8.085  16.401  11.292 -0.0949 -0.1950  0.1243
13859W        W30043  11.946  11.468  11.075  0.2622  0.1364  0.1970
13860W        W30044  15.528   1.453   1.852  0.0144  0.0078  0.0036
13861W        W30045  10.723   8.385  14.870  0.0101 -0.1610  0.1039
13862W        W30046  13.236  16.407   4.323  0.1475  0.0307  0.0556
13863W        W30047   2.589  17.435  10.851 -0.0922  0.1042 -0.1590
13864W        W30048  15.287   6.265  14.924  0.0631 -0.1063  0.0164
13865W        W30049  17.543  15.493  12.138  0.1375 -0.0408 -0.1126
13866W        W30050  11.276   3.458  11.588  0.2549 -0.0243  0.2404
13867W        W30051   4.940  11.593   3.131 -0.3841  0.2661 -0.0016
13868W        W30052   5.696   2.277  13.566  0.0791 -0.0764 -0.0375
13869W        W30053  10.042  13.747   0.756 -0.3726 -0.0004  0.1920
13870W        W30054   5.922   8.808  10.576  0.2445 -0.0857  0.1653
13871W        W30055   4.620   7.668  11.971  0.1760  0.1107 -0.1769
13872W        W30056  13.866  17.354   3.967  0.3253  0.0858  0.0697
13873W        W30057   8.767   0.050  11.333 -0.0383 -0.2859  0.0117
13874W        W30058   9.898  14.300  14.613  0.2398  0.1664 -0.0188
13875W        W30059  10.793  14.043   4.702 -0.1452 -0.2291  0.3454
13876W        W30060   1.595  14.558   4.393 -0.1219 -0.2528  0.2801
13877W        W30061  13.561   7.050  13.026  0.2264 -0.1347  0.3000
13878W        W30062   4.257   3.635   4.278 -0.1902  0.1375 -0.0465
13879W        W30063   5.067   1.908  12.367 -0.3603  0.4618 -0.1304
13880W        W30064   3.324   6.740   0.476  0.1629  0.0673  0.0120
13881W        W30065   6.816  14.416   1.820  0.2361  0.0379 -0.2223
13882W        W30066   4.998  15.170   2.278  0.1812  0.3215 -0.0512
13883W        W30067  17.132   5.665  11.900 -0.1868 -0.1766  0.1506
13884W        W30068   2.766  10.006  12.739  0.0447 -0.0076 -0.1582
13885W        W30069  14.960   9.131   4.083 -0.1413 -0.2292  0.1155
13886W        W30070   9.457   1.869   1.478  0.0955 -0.1235 -0.1567
13887W        W30071   5.070   0.763  13.288 -0.0907 -0.0521  0.4626
13888W        W30072  14.576  10.640   3.671 -0.1357 -0.2578  0.0922
13889W        W30073   1.352   9.047   0.300 -0.1999  0.0908  0.0607
13890W        W30074   5.355  16.679  14.558  0.2665  0.0680  0.0140
13891W        W30075   4.007   7.724  11.349  0.1493 -0.5851  0.1745
13892W        W30076  16.606   5.915   1.279 -0.1889  0.1501  0.1729
13893W        W30077   7.102   2.538  11.049 -0.1226  0.0694  0.3467
13894W        W30078   5.027   1.793  15.170  0.2268  0.1920 -0.0396
13895W        W30079  10.488   9.539   5.231  0.0427 -0.1639 -0.0843
13896W        W30080  11.276   7.964   4.237 -0.2203 -0.4293  0.2840
13897W        W30081  14.451  14.444   2.162  0.0290  0.2051  0.2305
13898W        W30082  10.180  11.072  12.352 -0.2200 -0.1571  0.1441
13899W        W30083  13.609  16.375   0.976  0.2962  0.0202 -0.0519
13900W        W30084   8.378   5.353   4.086  0.2712 -0.3009 -0.0117
13901W        W30085   5.114  13.634  13.220 -0.1594  0.0804  0.2480
13902W        W30086   1.582  10.127  14.409  0.0417 -0.4816  0.3114
13903W        W30087  11.614  16.398  11.469 -0.0552  0.0229 -0.0719
13904W        W30088  16.229   1.770   9.744  0.1305 -0.1201  0.1180
13905W        W30089   0.614  17.640   0.084 -0.1578 -0.0922 -0.2564
13906W        W30090   8.181   8.954  12.429  0.0545  0.0593 -0.1296
13907W        W30091  15.594   5.795  14.731 -0.0012  0.0195 -0.0979
13908W        W30092  18.821   2.591  15.442 -0.3408 -0.2853  0.0459
13909W        W30093   1.096  12.883  14.211  0.0231 -0.2932  0.1911
13910W        W30094   7.822  16.112   0.352  0.1323  0.1412 -0.1954
13911W        W30095   8.670  13.764  12.501  0.2110 -0.2219 -0.0635
13912W        W30096   2.740   1.466  12.100  0.1584  0.2228 -0.4817
13913W        W30097   3.408  15.583  12.578 -0.1020 -0.0612  0.0405
13914W        W30098   4.031  10.669  13.299  0.1388 -0.0758  0.2013
13915W        W30099   2.426   3.272   5.507  0.0602  0.0739  0.0877
13916W        W30100   6.058   5.563  11.062 -0.0232  0.1323 -0.1471
13917W        W30101   7.124  18.558  15.362 -0.3702  0.1497  0.0612
13918W        W30102   4.650   0.377   5.111 -0.0454  0.0111 -0.0073
13919W        W30103  10.008   4.583  15.352  0.0834 -0.1794  0.1154
13920W        W30104  16.644  14.631  12.472  0.3072  0.1676 -0.1808
13921W        W30105   0.660  16.037  12.651 -0.0662  0.0897 -0.1930
13922W        W30106   0.258   2.377  12.699 -0.1326 -0.3150 -0.3456
13923W        W30107  16.912  13.599   3.161  0.2865  0.1312  0.0217
13924W        W30108   3.402   9.477   1.436 -0.2205  0.0714 -0.3604
13925W        W30109   7.671  11.504   2.699  0.1933  0.3496  0.3615
13926W        W30110  16.397   5.717   2.254  0.2391 -0.0169  0.2427
13927W        W30111   5.317  16.870   2.808  0.0122 -0.0688 -0.2479
13928W        W30112  13.714   9.347   1.992 -0.0177  0.0774 -0.0117
13929W        W30113   8.623   0.033  14.394 -0.0683  0.3177  0.2046
13930W        W30114   7.779   4.388   4.429 -0.1669  0.0542 -0.4172
13931W        W30115   0.551  16.977  13.669  0.2436  0.2414 -0.1599
13932W        W30116  15.483   2.156   0.072 -0.1945  0.1939 -0.0441
13933W        W30117   5.380   7.552  15.154  0.0789  0.2463  0.0778
13934W        W30118  13.419  11.691   1.101 -0.1799  0.0698  0.0807
13935W        W30119  17.526   9.285  12.257  0.0319  0.2296 -0.2850
13936W        W30120   3.855   9.569  14.770  0.1057 -0.0500 -0.0343
13937W        W30121  18.148   3.784  11.679  0.1248  0.0192  0.1274
13938W        W30122   8.067   3.298   1.640  0.1409  0.0475  0.0014
13939W        W30123   1.890  16.517  13.220  0.3182 -0.2631 -0.0329
13940W        W30124  15.137  14.792  10.367  0.1119 -0.4144  0.3034
13941W        W30125  17.003  15.581   2.397 -0.2337 -0.1229  0.1690
13942W        W30126   5.097   9.922  14.160 -0.0603  0.2485  0.0532
13943W        W30127   6.507  15.366   2.987 -0.0409 -0.0003  0.0358
13944W        W30128   4.131   5.951  10.737  0.1024 -0.1943 -0.2021
13945W        W30129   3.040   0.939   0.258  0.3496 -0.1213 -0.0175
13946W        W30130  14.351  10.845   2.782 -0.1888  0.0262 -0.0288
13947W        W30131   1.090  13.737   1.921  0.2328  0.1567 -0.0818
13948W        W30132  11.215  11.552   5.165 -0.0431 -0.0123 -0.1759
13949W        W30133  14.532  11.563   0.670  0.0514 -0.2747  0.1439
13950W        W30134  17.101   5.245   1.397 -0.0978  0.0055  0.0232
13951W        W30135   1.907   6.024  11.198 -0.0690 -0.2091  0.1042
13952W        W30136   0.333   9.484   3.593  0.1307  0.4089 -0.0794
13953W        W30137  10.561  16.010  14.658 -0.0180 -0.0873  0.2424
13954W        W30138   6.693  16.701  14.759 -0.2858  0.1198 -0.0700
13955W        W30139   2.828   1.340   4.284  0.0172 -0.1040 -0.1423
13956W        W30140   9.027   4.580  11.063 -0.0559 -0.0444 -0.2583
13957W        W30141   1.281  14.025  13.428 -0.0580  0.0232  0.0861
13958W        W30142   1.605   6.837  10.814 -0.2492  0.5449 -0.1520
13959W        W30143   6.521  11.735  15.099  0.0042  0.0587 -0.1105
13960W        W30144  10.859  18.382  11.356  0.2787 -0.1107  0.2976
13961W        W30145  12.636   8.883   1.044  0.0491 -0.0601 -0.1244
13962W        W30146  16.698   9.473   0.598  0.0511 -0.1262  0.0642
13963W        W30147   9.145   6.678  13.149  0.0180  0.0456 -0.0812
13964W        W30148  14.084   9.242   4.353 -0.2337 -0.1640  0.1795
13965W        W30149  14.560   4.208   2.573 -0.0037 -0.1757  0.1423
13966W        W30150  17.285  11.530  11.852 -0.0435  0.2520  0.2040
13967W        W30151   0.756  16.524  13.824  0.1090 -0.0477  0.0953
13968W        W30152   6.619   6.933  13.322  0.0987 -0.0347 -0.1287
13969W        W30153  11.192  14.691  10.970  0.2449 -0.0814 -0.1074
13970W        W30154   5.501   7.733  14.513 -0.4279  0.4449  0.0129
13971W        W30155   5.615  18.151  13.735 -0.1097 -0.0877 -0.1716
13972W        W30156   3.732  11.990   5.514  0.1099 -0.2248 -0.1006
13973W        W30157   2.046   2.901   4.599  0.0985  0.1305 -0.0227
13974W        W30158  10.737  14.230   1.925  0.0590 -0.1485  0.0522
13975W        W30159  11.822  15.632  11.432 -0.0325 -0.2638 -0.0649
13976W        W30160   8.677   3.762   3.083 -0.0168 -0.1034 -0.0400
13977W        W30161  14.354  13.051   0.545 -0.2416 -0.1730 -0.0810
13978W        W30162  17.771   2.473   1.825  0.0737  0.0334 -0.0771
13979W        W30163   1.558  15.044   4.179  0.0548 -0.0162 -0.0544
13980W        W30164  15.471  12.921   4.323  0.0562 -0.0609 -0.4010
13981W        W30165  14.489   5.357   4.962  0.2592 -0.1789  0.0018
13982W        W30166  14.990  17.029  13.257 -0.0885 -0.2934  0.0259
13983W        W30167  12.921   4.957  12.843 -0.1201 -0.1893 -0.2053
13984W        W30168  16.302  17.258   1.106  0.0458  0.0084  0.1673
13985W        W30169   7.708   4.603  14.947 -0.1042  0.2796 -0.2845
13986W        W30170   1.705   0.264   2.387 -0.0977  0.0512  0.1087
13987W        W30171   3.726   9.569   4.271 -0.2385  0.1446  0.1337
13988W        W30172   6.545   3.894   3.624 -0.0858  0.1242  0.1699
13989W        W30173  16.291  13.673   4.163 -0.2581 -0.2967  0.2044
13990W        W30174   8.038   9.018  11.105 -0.2405 -0.0017 -0.3483
13991W        W30175   9.447   9.424   0.603  0.3115  0.0033 -0.1331
13992W        W30176   5.772   2.467  12.745 -0.0124  0.1046 -0.0871
13993W        W30177  17.291   6.866   2.900 -0.2625  0.2116 -0.2085
13994W        W30178  14.786   5.907  12.500 -0.0876  0.2123 -0.0188
13995W        W30179   9.317   7.376  12.366  0.3541 -0.2045  0.1916
13996W        W30180  15.052   3.672   4.429  0.2476 -0.0906  0.1851
13997W        W30181  10.757   3.826  13.331  0.2953  0.1877  0.1886
13998W        W30182   1.270   3.321  14.043 -0.0128  0.2311 -0.2548
13999W        W30183  15.899  10.905  14.558 -0.1544 -0.1677 -0.0843
14000W        W30184  13.391   6.543  15.184  0.0870 -0.0160 -0.2219
14001W        W30185  18.177   9.048   0.040  0.1965 -0.2667 -0.4242
14002W        W30186   4.127   3.377   2.403 -0.1642 -0.2002 -0.2621
14003W        W30187  11.996  10.230   4.079 -0.1525  0.1378 -0.1275
14004W        W30188  18.581  10.658   2.553  0.3894  0.2000 -0.3246
14005W        W30189  13.290  10.974  14.689 -0.0241  0.0907  0.0520
14006W        W30190   5.759   9.469  11.743 -0.1473  0.0874  0.1083
14007W        W30191   1.242  13.901  10.595  0.2296 -0.0241  0.2594
14008W        W30192   8.978   3.144   3.667  0.1376 -0.0856 -0.1792
14009W        W30193   7.579  10.485  12.722 -0.1916  0.0482 -0.2071
14010W        W30194  10.308  17.524   4.695  0.0443 -0.1721 -0.2083
14011W        W30195  15.310   5.717   1.060  0.1895  0.2119 -0.1335
14012W        W30196   8.517   7.783  12.752  0.1664 -0.2982 -0.1560
14013W        W30197   1.422  17.078   1.006  0.1612 -0.0691 -0.0021
14014W        W30198  13.850   0.392  14.578 -0.1509 -0.1679  0.1006
14015W        W30199   5.422   7.497  12.597 -0.0692  0.0497 -0.0635
14016W        W30200   7.626   2.793  14.124 -0.2528  0.1664  0.1471
14017W        W30201  10.565  12.213  12.554  0.2675 -0.0340  0.1978
14018W        W30202  13.800  12.037  12.331 -0.2352  0.2220 -0.0325
14019W        W30203  15.295  17.687   2.578 -0.0987 -0.0355  0.0095
14020W        W30204   0.662  10.669   5.559 -0.0594  0.0644 -0.0774
14021W        W30205  17.561  13.761  13.679  0.1830 -0.2669 -0.2538
14022W        W30206   0.584   6.942  13.225  0.4253 -0.1592  0.0204
14023W        W30207  13.609   0.035   2.439  0.2934  0.4308  0.0218
14024W        W30208   6.992  18.799   3.137  0.0878 -0.1103 -0.3646
14025W        W30209  13.632   7.437  13.977 -0.2387 -0.3731 -0.2965
14026W        W30210   5.559  10.332   4.032 -0.0647 -0.1098  0.1293
14027W        W30211   5.115  12.043   3.174  0.1086 -0.1614  0.1698
14028W        W30212  17.480  18.010  13.947 -0.1199 -0.1342  0.4150
14029W        W30213  13.445   7.980  13.997  0.4838  0.0139  0.1235
14030W        W30214   3.460  17.954  12.744  0.0162  0.6247  0.0270
14031W        W30215   1.371   1.057  13.664 -0.1436  0.4034  0.0081
14032W        W30216   4.566   8.481  14.530 -0.1058 -0.2505  0.2528
14033W        W30217  18.611  13.225  11.358  0.2704  0.3560  0.2425
14034W        W30218  12.648  17.690   0.287 -0.0184 -0.0444  0.1239
14035W        W30219   3.787   1.977   0.259 -0.0780  0.2261  0.2762
14036W        W30220  14.926  10.472   4.516  0.0550  0.1186  0.3716
14037W        W30221   8.156   1.354  15.212 -0.1003  0.0540 -0.0755
14038W        W30222  14.067   6.011  13.033 -0.0283 -0.2608 -0.1867
14039W        W30223  11.991   6.235  15.076 -0.0530 -0.0934  0.1183
14040W        W30224  15.504   7.162  11.165 -0.1631 -0.0036  0.2755
14041W        W30225   5.217   9.457  13.967 -0.2054  0.0219 -0.0613
14042W        W30226  14.295   5.657   3.285  0.1523  0.3546  0.1061
14043W        W30227  15.026   0.097   3.265  0.0919  0.1457  0.0765
14044W        W30228   3.914   1.062   4.461  0.1167 -0.0687 -0.0115
14045W        W30229   3.700   9.792  11.672 -0.0050  0.2485  0.0861
14046W        W30230  11.376  13.511  11.030  0.0960  0.0765  0.0792
14047W        W30231  10.297   6.151  14.004  0.1026 -0.1728 -0.1221
14048W        W30232   5.314   8.209   3.808  0.0332  0.0445 -0.0885
14049W        W30233  10.872  15.033   4.540 -0.1124  0.0263  0.0497
14050W        W30234  14.095  15.226   4.316 -0.1294  0.1500  0.0497
14051W        W30235   7.737   2.921  15.007  0.1544 -0.1608  0.2982
14052W        W30236  17.087   5.946  13.810 -0.1685 -0.1310 -0.2531
14053W        W30237  13.284   7.248   4.279 -0.0985 -0.4047 -0.0246
14054W        W30238   3.666   4.721   3.706 -0.0733 -0.0947  0.2014
14055W        W30239   2.543   3.426   0.305 -0.2717 -0.2280 -0.2684
14056W        W30240  18.799  16.393  14.196  0.2226  0.1625 -0.1691
14057W        W30241  16.826  16.049  14.800  0.4245  0.0753 -0.2112
14058W        W30242  17.259   2.347   1.625  0.3837  0.0419  0.2650
14059W        W30243  12.864   8.875  14.434 -0.3677  0.1494  0.1820
14060W        W30244  13.667   3.297  13.561 -0.1744 -0.0334  0.6275
14061W        W30245   3.082  12.391   2.650 -0.1336 -0.3439 -0.3020
14062W        W30246  10.407   4.570  14.989  0.0522  0.1623  0.1940
14063W        W30247   4.207   8.700  14.942  0.0641  0.3006 -0.2050
14064W        W30248   2.053   0.179   3.457  0.4517 -0.0044 -0.0525
14065W        W30249  12.699  13.741   0.851  0.0437  0.3349  0.1840
14066W        W30250   4.700  17.206   1.650  0.1248 -0.0875  0.0332
14067W        W30251  15.891  18.301  13.532 -0.0401 -0.1719  0.1412
14068W        W30252   9.016  13.327  14.963 -0.0957  0.2223  0.1200
14069W        W30253  17.434   3.140   4.042  0.0265 -0.1329 -0.0539
14070W        W30254  15.939  18.673   4.875 -0.0682 -0.1623  0.4137
14071W        W30255   7.741  10.072  11.872  0.1044  0.1163 -0.1967
14072W        W30256  17.595   9.195   5.258 -0.0761 -0.0552  0.2774
14073W        W30257   2.996  14.669  13.769  0.1865  0.3654 -0.3016
14074W        W30258   5.129  13.698  12.528  0.2488 -0.1628 -0.0032
14075W        W30259   2.079  13.843   3.298 -0.1273  0.1325  0.0690
14076W        W30260   8.264  15.942   5.285  0.3022 -0.0035 -0.2148
14077W        W30261  15.952   8.161   2.853  0.2467 -0.0962  0.1738
14078W        W30262  15.132   9.327   5.181 -0.0011 -0.2131  0.2251
14079W        W30263   1.068   0.389   0.612  0.0632  0.1652 -0.0836
14080W        W30264  15.736   5.213  13.245  0.1171  0.0174  0.0526
14081W        W30265  13.704   5.505  15.350  0.2744 -0.0772  0.3776
14082W        W30266   4.341  16.895  12.349 -0.3837  0.4339 -0.4137
14083W        W30267  11.285   4.723   2.338  0.1061 -0.1330  0.2084
14084W        W30268  13.530   0.306  15.412 -0.2489 -0.1767  0.0259
14085W        W30269   6.798  14.356   2.542  0.0132  0.1108 -0.3460
14086W        W30270  12.676   0.563   0.309 -0.1313  0.0711  0.0780
14087W        W30271  18.390   2.830   9.853  0.0837  0.0922 -0.2528
14088W        W30272  11.586  18.208   3.023 -0.1076  0.1107 -0.1686
14089W        W30273  16.363   0.587   9.764  0.1564 -0.2221 -0.1625
14090W        W30274  18.444   0.550  15.058 -0.2313 -0.2215 -0.1782
14091W        W30275   4.422   1.128   0.814  0.0618  0.0983 -0.1082
14092W        W30276  11.958  11.927  10.851 -0.0689 -0.1848  0.0443
14093W        W30277   5.244  14.582  11.424  0.1465 -0.0463 -0.0495
14094W        W30278   8.099  10.515   2.103 -0.2667 -0.0288 -0.0715
14095W        W30279   7.091   7.492   4.056  0.0376  0.0002 -0.2971
14096W        W30280   0.783   0.191   3.832  0.0945  0.0060  0.0608
14097W        W30281  10.788   1.242  14.154 -0.1797 -0.0590 -0.1204
14098W        W30282   1.509   1.345  12.727 -0.0649  0.4532  0.1554
14099W        W30283  11.722   2.998  13.442  0.0786 -0.2138 -0.3302
14100W        W30284   9.058  15.980   3.815 -0.0694 -0.0867  0.3694
14101W        W30285   2.319   8.546  10.447  0.0560  0.0342 -0.0377
14102W        W30286   1.233   3.403  11.790 -0.3074 -0.0218  0.4289
14103W        W30287   8.364  16.001  13.794  0.1450 -0.1308  0.3236
14104W        W30288   5.859   6.450   3.801 -0.0576  0.3435  0.4220
14105W        W30289   7.431  14.446  10.864  0.2511  0.0370  0.2513
14106W        W30290  14.493   1.953   1.624 -0.1147 -0.2074 -0.3741
14107W        W30291  16.279   7.653   0.648  0.0686 -0.0297 -0.0025
14108W        W30292   3.446   9.354  11.760  0.3859  0.1494  0.1849
14109W        W30293  10.224   9.631   2.973 -0.3539 -0.1230 -0.3494
14110W        W30294   5.618  12.874  15.318  0.0177 -0.0584  0.1927
14111W        W30295   3.298  11.487  11.992 -0.1972 -0.3048  0.2599
14112W        W30296  12.551   4.168   5.238 -0.0291 -0.1861  0.2114
14113W        W30297   6.309   7.174  11.039  0.1291  0.2984  0.1389
14114W        W30298  14.521   9.852  11.682  0.1730 -0.0157  0.0760
14115W        W30299   5.874   4.969   0.066  0.3761 -0.0405  0.1201
14116W        W30300   0.735   7.611   2.491  0.0788 -0.1095 -0.2863
14117W        W30301  12.839  11.606   2.075 -0.2993 -0.2721  0.0536
14118W        W30302  17.021  13.895   2.782 -0.2106  0.1202 -0.1113
14119W        W30303  16.458   2.623   1.912  0.0923  0.1463 -0.1544
14120W        W30304  11.248  17.734   4.522  0.2420 -0.1981 -0.2519
14121W        W30305  12.713   5.721  15.252 -0.1217  0.1662  0.0971
14122W        W30306  13.660  10.597   2.164 -0.0063  0.0035 -0.1128
14123W        W30307   4.125  12.441   4.526 -0.1809 -0.2641  0.0336
14124W        W30308   2.343  16.360  15.400 -0.0004  0.0836  0.0683
14125W        W30309   7.102  14.261   4.418  0.3934 -0.0973 -0.1589
14126W        W30310  12.805   9.277   9.995  0.0678  0.0582  0.1470
14127W        W30311  17.296  15.231   2.975  0.1416  0.1704  0.2149
14128W        W30312   9.230   8.487  11.919 -0.2893 -0.1326  0.2931
14129W        W30313   7.919   5.206   5.134 -0.0591  0.1632  0.0219
14130W        W30314  10.626   2.706  14.027  0.1182  0.1204  0.3014
14131W        W30315   6.243  16.646   3.381  0.0357  0.0352  0.2849
14132W        W30316   8.368   4.729   3.930 -0.6738  0.0694 -0.0292
14133W        W30317  13.748   3.161  11.215  0.0068 -0.2090  0.0411
14134W        W30318   4.263   1.971   5.711  0.0718  0.0597 -0.0139
14135W        W30319   5.771  12.143   2.359 -0.3190 -0.2567  0.0963
14136W        W30320  11.732  13.979   3.387 -0.0171  0.2546 -0.1596
14137W        W30321  12.608   9.917  10.885 -0.1779  0.0439 -0.1503
14138W        W30322   0.213   2.886   2.714 -0.1339 -0.2622  0.2388
14139W        W30323   0.948   6.772  14.556  0.2334 -0.1087  0.0796
14140W        W30324  16.300  17.233  14.956 -0.0643  0.3903 -0.3201
14141W        W30325   3.183   7.845  13.375 -0.0145  0.0054 -0.0851
14142W        W30326  17.309   5.156   0.769 -0.4144  0.1627 -0.1621
14143W        W30327  12.263   7.074  15.323 -0.2424  0.1391  0.0734
14144W        W30328   1.011  12.790   4.189 -0.0262 -0.1203 -0.0404
14145W        W30329  15.496   2.993   3.235 -0.3535 -0.0232  0.1703
14146W        W30330   1.982  11.418   2.187 -0.0981  0.1035  0.1231
14147W        W30331  15.471   1.344   4.409  0.0064  0.1896  0.1939
14148W        W30332   1.203   0.440   4.036 -0.0158 -0.0893 -0.1306
14149W        W30333  16.888  11.586   3.124 -0.1070 -0.0236 -0.0027
14150W        W30334   3.921   3.086   1.847  0.1910 -0.2894  0.0485
14151W        W30335  14.466   9.382  11.413 -0.0851 -0.1292  0.3247
14152W        W30336   8.083   3.225  14.151 -0.2198 -0.1070  0.0466
14153W        W30337   1.584  18.383  11.180 -0.0656 -0.2068 -0.5416
14154W        W30338  10.955   1.000   3.163  0.3855 -0.1974 -0.1385
14155W        W30339   4.014   6.809   0.379 -0.2438  0.2758 -0.1386
14156W        W30340  14.022  18.552   2.427 -0.0850  0.1329 -0.1602
14157W        W30341   5.661   9.373  10.302  0.2281 -0.1655 -0.2695
14158W        W30342   6.456   2.484  13.647 -0.0460  0.3754  0.1729
14159W        W30343   5.185   3.747  11.609  0.0749  0.2859  0.1301
14160W        W30344   3.181  15.299  11.626  0.0705  0.2097  0.0715
14161W        W30345   8.153   6.019  10.530 -0.2497 -0.2072 -0.1365
14162W        W30346   5.665   6.245  15.525  0.0680  0.0952  0.2350
14163W        W30347  11.214   8.482   3.760 -0.0132  0.0650  0.1475
14164W        W30348  15.848  17.777  11.078 -0.1579  0.2960 -0.4497
14165W        W30349  16.950  10.120   6.061 -0.2014  0.4993  0.2127
14166W        W30350   2.981   1.937  12.513 -0.0381 -0.1036  0.2386
14167W        W30351   4.191   7.482   2.356  0.1300 -0.0757 -0.2179
14168W        W30352  18.387   6.139   3.720  0.2407 -0.4015 -0.2209
14169W        W30353  12.558  17.960  13.961  0.3051 -0.3209  0.1325
14170W        W30354  18.181   3.380   2.133 -0.0484 -0.0306  0.1421
14171W        W30355  14.146   4.350   4.965  0.1234  0.0498  0.0093
14172W        W30356   0.948   9.143  14.535  0.0761 -0.1983 -0.1562
14173W        W30357   7.494   2.887   4.813 -0.0254  0.1822 -0.0270
14174W        W30358   5.720   9.797   9.822  0.0548 -0.1487 -0.0126
14175W        W30359   0.373   5.141   1.653 -0.1126  0.3362 -0.2384
14176W        W30360  13.631  17.588   1.327 -0.0423 -0.2592  0.1499
14177W        W30361   8.644  13.506   0.248 -0.1367 -0.0432  0.0417
14178W        W30362  16.262  12.513   0.856  0.0424 -0.1124 -0.0764
14179W        W30363  17.792  13.126   4.892 -0.2122 -0.0210 -0.2242
14180W        W30364   0.232  12.973   2.195 -0.0681 -0.0335  0.0465
14181W        W30365  10.045  12.886   0.626  0.1707 -0.1132  0.1786
14182W        W30366   1.557  18.811   1.609 -0.0754 -0.2841 -0.0296
14183W        W30367  17.674  18.602   3.340 -0.2023  0.1247 -0.1968
14184W        W30368   6.637   7.169   2.927  0.1430 -0.0654  0.0211
14185W        W30369   8.656   8.551  13.917 -0.0585 -0.1086  0.3239
14186W        W30370   5.323   9.854  11.530  0.3521 -0.1119 -0.2001
14187W        W30371   9.846  13.305   0.694  0.2835 -0.0930  0.1517
14188W        W30372   7.638  16.697   4.527  0.1533  0.2101  0.2554
14189W        W30373   3.975   0.550   4.729 -0.2877 -0.2754  0.2149
14190W        W30374   6.718   6.258  13.538 -0.0198 -0.1153 -0.0530
14191W        W30375  10.271  17.843   1.919  0.4616 -0.0368  0.1169
14192W        W30376  16.132  12.714  11.033 -0.0909 -0.2503  0.0753
14193W        W30377  12.651  10.719  12.749  0.1950 -0.0759  0.2309
14194W        W30378  12.035   5.738   2.523  0.0736  0.2263 -0.1082
14195W        W30379  11.364  16.548  13.275 -0.1120 -0.2336  0.1226
14196W        W30380  16.708  18.122   4.093 -0.1221  0.0246 -0.0626
14197W        W30381   6.465   9.156  12.839  0.4728  0.1036  0.1139
14198W        W30382   2.024   1.594  12.797 -0.1050 -0.0201  0.0490
14199W        W30383  13.880  17.279  15.057 -0.0236 -0.0013 -0.1677
14200W        W30384   5.473   5.267   2.610 -0.0643 -0.2028  0.0993
14201W        W30385  17.509   9.721  11.995 -0.2136  0.0659 -0.5709
14202W        W30386  18.208   2.129  12.513 -0.0645 -0.2954 -0.3445
14203W        W30387   2.771   9.452  10.030  0.0024 -0.1607  0.2605
14204W        W30388   1.606   3.369   0.872  0.1893  0.1757 -0.1175
14205W        W30389   5.261  18.183   4.275 -0.4768 -0.0419  0.0536
14206W        W30390  13.581  10.922   3.713  0.2590  0.3171  0.0518
14207W        W30391   5.153  13.455  11.637  0.0732  0.0109  0.2548
14208W        W30392   2.123   1.649   0.563 -0.0006 -0.1777  0.0439
14209W        W30393   3.998   1.060  11.993 -0.4000 -0.2985  0.1291
14210W        W30394   7.161   0.587   0.479 -0.0081 -0.1798  0.0460
14211W        W30395   9.544   3.734   5.272  0.0486 -0.1252  0.0564
14212W        W30396  14.294   5.910   2.870  0.0432 -0.3338  0.0872
14213W        W30397   5.127  17.466  12.343 -0.0565  0.1467 -0.1237
14214W        W30398   7.597  13.599  10.677 -0.0519  0.0773  0.0150
14215W        W30399  11.110   9.358   2.177 -0.2224 -0.2753 -0.2457
14216W        W30400   6.855   0.740  12.379 -0.1615 -0.2261 -0.0926
14217W        W30401   9.547  14.757  15.364 -0.3288 -0.2030 -0.0576
14218W        W30402  14.481   4.483   2.156 -0.2692 -0.0654  0.1109
14219W        W30403   4.554  12.877   2.946 -0.0061 -0.1728  0.1032
14220W        W30404   4.733   2.673  15.379  0.1956  0.0446 -0.1276
14221W        W30405  12.137  17.002  10.930 -0.1423 -0.2198 -0.1455
14222W        W30406   3.393  10.993   0.649  0.3887  0.1607 -0.0620
14223W        W30407   0.570   4.665  14.858 -0.0798 -0.1314 -0.0022
14224W        W30408  17.423   2.234  12.086 -0.1585 -0.0329 -0.2466
14225W        W30409  13.719   0.206  12.203  0.1147 -0.0578 -0.0875
14226W        W30410   7.034   4.656  13.798 -0.2321  0.3441 -0.1197
14227W        W30411   2.307  15.491  15.052 -0.2767  0.0609 -0.2636
14228W        W30412  17.863   5.227   4.934 -0.0824  0.2542  0.0201
14229W        W30413  14.569  15.615  15.080 -0.0013 -0.1627  0.0812
14230W        W30414   9.287   6.686   2.706  0.2890 -0.2415  0.2369
14231W        W30415   0.195  18.064   1.816 -0.0285  0.0191  0.2342
14232W        W30416  14.964   7.363  14.854  0.2048  0.1382  0.0025
14233W        W30417  12.499  12.065   0.596 -0.0309  0.0030  0.0179
14234W        W30418  13.446  11.279  14.171  0.2385  0.1662  0.2993
14235W        W30419  12.967   4.101   4.287  0.1641  0.1631 -0.2252
14236W        W30420   4.687   9.016  14.810 -0.0994  0.0711 -0.2611
14237W        W30421   8.151  15.646   2.979 -0.1796  0.1182  0.2689
14238W        W30422  14.135  11.324   0.811 -0.1430 -0.1557  0.2713
14239W        W30423   3.046  17.396  10.680 -0.0264  0.3626 -0.1572
14240W        W30424   3.452  10.965   5.388  0.2176 -0.0390  0.0718
14241W        W30425  13.963  15.979   1.197 -0.1389 -0.0240  0.1398
14242W        W30426   2.003  17.413   2.746 -0.2381 -0.0885 -0.4093
14243W        W30427  11.040   9.595  12.194 -0.0482 -0.0360  0.0088
14244W        W30428   3.894   7.506  13.743 -0.2018 -0.2512 -0.1953
14245W        W30429   1.303  10.804   2.545  0.1992 -0.1301 -0.1273
14246W        W30430  14.938   4.536   2.316  0.0790 -0.0033 -0.2856
14247W        W30431   8.928  16.533  11.325  0.0915  0.0361 -0.0621
14248W        W30432  18.191   7.362   5.382 -0.0555 -0.1278 -0.1078
14249W        W30433   9.411   8.222  11.563  0.3373  0.3168 -0.2122
14250W        W30434  13.267  11.454   2.465 -0.2240 -0.1607  0.1850
14251W        W30435   2.159  11.858  13.159 -0.1374 -0.0681  0.0688
14252W        W30436   6.312   9.781   3.683 -0.0387 -0.1743  0.0637
14253W        W30437   7.548  10.138   0.777  0.0492 -0.3493 -0.0623
14254W        W30438   5.643  12.015  14.882  0.5126  0.0009 -0.2388
14255W        W30439   5.552  18.799  13.244  0.1921  0.0856 -0.1780
14256W        W30440   5.489  17.898  13.314 -0.0663  0.0908  0.2302
14257W        W30441   0.483  12.607   2.461  0.0002 -0.0797  0.0133
14258W        W30442   7.265  12.748   4.230 -0.4235 -0.4838  0.1037
14259W        W30443   7.079  14.657  11.237  0.1744  0.0079 -0.0138
14260W        W30444   5.454  12.654   0.893  0.1102 -0.0751  0.0566
14261W        W30445   9.663  10.559  13.215 -0.2320  0.0979 -0.1081
14262W        W30446   5.275   5.286  14.108  0.0433 -0.1620 -0.0597
14263W        W30447  10.913  13.420  10.863  0.0414 -0.0134 -0.1566
14264W        W30448   6.674   6.714  12.634 -0.2555  0.1322 -0.2367
14265W        W30449  14.535   8.998  15.395 -0.0505 -0.0998 -0.0412
14266W        W30450   7.823   3.182  11.008 -0.0172 -0.0706 -0.2270
14267W        W30451   3.430   3.752  11.408 -0.0351 -0.2920  0.2121
14268W        W30452   2.143  10.863  12.274  0.2162 -0.1730 -0.0024
14269W        W30453   2.296   3.870   4.664 -0.0130 -0.3573 -0.0115
14270W        W30454  14.751   9.674  11.165 -0.0683 -0.4234  0.1186
14271W        W30455   4.511  17.279  10.329  0.1621 -0.2588 -0.4792
14272W        W30456   6.099   5.623   1.435  0.3524  0.0168 -0.0055
14273W        W30457  14.395  12.282   0.733  0.0622 -0.1290 -0.1141
14274W        W30458  10.484  17.315   0.997  0.2237 -0.0649  0.3125
14275W        W30459  18.086   4.682   3.576  0.3162  0.0650  0.1120
14276W        W30460  14.340   7.996   1.447 -0.1732  0.0763 -0.0049
14277W        W30461   6.838  16.202  14.930  0.1877 -0.1383 -0.3818
14278W        W30462   2.545   8.006  11.028 -0.1903 -0.1258 -0.0573
14279W        W30463   8.017  13.683  11.050  0.3563  0.0949 -0.1823
14280W        W30464  15.425   1.592  10.849 -0.2270 -0.1609 -0.3229
14281W        W30465  13.958   2.312   1.096  0.0644 -0.1800 -0.0290
14282W        W30466  14.521  14.891   2.787  0.7606 -0.1934  0.0665
14283W        W30467  12.748   3.930  12.287  0.0958 -0.0346  0.1342
14284W        W30468   6.938  15.090   3.830 -0.2175 -0.0284  0.0747
14285W        W30469   8.208   7.163   2.717 -0.1606 -0.0380 -0.0464
14286W        W30470  18.461   3.758   3.332  0.1166 -0.0590  0.4010
14287W        W30471  15.760  15.880   1.868  0.1029 -0.0288  0.2750
14288W        W30472  18.109   5.116   0.257 -0.0041  0.0521  0.1372
14289W        W30473  13.350  12.961   0.230  0.0121 -0.3060 -0.2196
14290W        W30474   8.346   6.991   4.291  0.0428 -0.1135  0.1226
14291W        W30475  10.906   2.601  11.438 -0.1276  0.1453  0.1983
14292W        W30476   9.355   1.162   5.142  0.2341  0.2197  0.1091
14293W        W30477  10.075   4.782  13.003  0.5603  0.0663  0.2105
14294W        W30478  13.293  12.167   1.011  0.2573  0.2231 -0.0501
14295W        W30479  18.742  13.755  13.360 -0.0681  0.3014 -0.3254
14296W        W30480   3.336   3.024   1.834 -0.1755 -0.1959 -0.3010
14297W        W30481   5.743  13.352   3.870  0.2009  0.1837 -0.1959
14298W        W30482  18.498   0.793  13.362 -0.0746  0.2004 -0.2591
14299W        W30483  10.121   1.307   2.587 -0.0086 -0.1741 -0.0037
14300W        W30484   1.433  11.411  11.960 -0.0459  0.0696 -0.3148
14301W        W30485  18.234   9.684  13.332  0.1243  0.1051 -0.1768
14302W        W30486   8.499  12.673   5.267 -0.2994 -0.6566  0.0385
14303W        W30487  12.114   3.297   5.383 -0.1159 -0.2869  0.2941
14304W        W30488  16.047  14.412   2.923 -0.2057 -0.2743  0.3282
14305W        W30489   1.221  16.835   4.409  0.1866  0.0074  0.0345
14306W        W30490   6.886   4.015   3.993 -0.1197  0.2655 -0.4278
14307W        W30491   8.789  16.087  14.018 -0.2139 -0.2108  0.0329
14308W        W30492  10.248   7.936  13.500 -0.0045  0.0103  0.0145
14309W        W30493  18.642   3.201  13.244 -0.0913 -0.3866 -0.1280
14310W        W30494  17.895   6.836   0.798  0.1253 -0.2214 -0.0429
14311W        W30495  12.726   0.250  10.679  0.0501  0.0171  0.1618
14312W        W30496  10.297  16.647   4.664 -0.1161 -0.0198 -0.0890
14313W        W30497   5.536   3.434   5.198  0.1428  0.2313  0.0261
14314W        W30498  11.073   9.695  14.539 -0.1281 -0.0644 -0.2605
14315W        W30499  16.148  14.016   3.791 -0.2530 -0.0954 -0.2429
14316W        W30500  11.462   4.366  12.231  0.1000  0.1053 -0.1466
14317W        W30501  18.280  14.557   0.446  0.0724  0.2408  0.5356
14318W        W30502   8.276  18.721  15.335 -0.0387 -0.1378  0.0866
14319W        W30503   0.147   9.995  10.479  0.1821  0.3073 -0.1964
14320W        W30504   2.526  16.988   1.854 -0.0793 -0.1919  0.0709
14321W        W30505   8.768   3.592  13.905 -0.1653 -0.4159 -0.0452
14322W        W30506   0.616   3.245   4.327  0.3464 -0.0459 -0.2900
14323W        W30507   4.618   7.273   3.330 -0.0489 -0.2200  0.0794
14324W        W30508   3.751   5.350  14.581 -0.0485  0.1472 -0.0793
14325W        W30509   2.051  14.477   0.765  0.0946  0.0240 -0.2854
14326W        W30510   2.032  17.949  13.180  0.0043 -0.0300 -0.1142
14327W        W30511  14.032   3.454   0.291  0.0331 -0.3017  0.0000
14328W        W30512  13.372   4.515  11.633 -0.0293  0.0651  0.0605
14329W        W30513   8.152  12.746   0.155  0.1178  0.1192  0.0941
14330W        W30514   2.773  12.530  13.527  0.1389 -0.0440 -0.0328
14331W        W30515   1.461   4.508  12.389 -0.0388 -0.2046  0.0485
14332W        W30516  10.121  18.572   2.325  0.1900 -0.2699 -0.0049
14333W        W30517   7.345  13.657  13.722 -0.0803 -0.3343  0.1120
14334W        W30518   1.604   2.915   2.499 -0.0837 -0.1012  0.0986
14335W        W30519   4.990   3.402   5.832 -0.0426  0.2041  0.1257
14336W        W30520   5.860  17.587  12.940  0.2597 -0.0334  0.2106
14337W        W30521   9.742   6.280   2.446 -0.1169  0.0088 -0.2525
14338W        W30522   0.854   8.515  14.342  0.1181  0.0192  0.3495
14339W        W30523   2.145  18.684  15.467 -0.1374 -0.2125 -0.0948
14340W        W30524   9.375  13.282   5.985 -0.0417  0.0401 -0.0514
14341W        W30525  15.460   0.968  14.868  0.1102 -0.2647 -0.2667
14342W        W30526  16.128   9.879  10.899  0.2903  0.1113 -0.3193
14343W        W30527   6.670  14.327  11.207  0.1568  0.2994  0.0911
14344W        W30528  14.445  18.375  12.151  0.0241 -0.0437 -0.2875
14345W        W30529  11.186  11.091   4.358 -0.1031  0.3508 -0.2436
14346W        W30530   9.812  16.363  14.742  0.0620 -0.1506 -0.0076
14347W        W30531  10.742   7.426  11.781  0.1211 -0.0766 -0.0514
14348W        W30532   7.615   7.750  11.225  0.1839 -0.0264 -0.1948
14349W        W30533   5.393   3.416  11.978 -0.0963  0.0190  0.0320
14350W        W30534  17.843   1.671   4.248 -0.0286 -0.0263 -0.0174
14351W        W30535   4.065  12.878  14.292  0.2974 -0.1184  0.0087
14352W        W30536  17.694  11.863   4.001  0.5560  0.1203 -0.1008
14353W        W30537  11.560   4.573   4.163 -0.0180  0.0894 -0.1659
14354W        W30538  18.651   3.343   2.941 -0.0197 -0.0858 -0.0178
14355W        W30539   5.003   9.444   4.035  0.1341  0.0674 -0.1352
14356W        W30540   2.293  13.986  12.368 -0.2493 -0.0948 -0.2268
14357W        W30541  17.926   1.321   2.678  0.2040  0.0105 -0.1748
14358W        W30542  13.191   1.734   3.198  0.1288 -0.1234  0.1334
14359W        W30543   8.476  10.529   1.821 -0.0907  0.2451 -0.2754
14360W        W30544   4.874   7.342   4.764 -0.0295 -0.1766  0.1235
14361W        W30545   3.713  13.169   3.648 -0.2730  0.1612 -0.2009
14362W        W30546  11.892   3.498  12.451 -0.1370 -0.3526 -0.1843
14363W        W30547  18.330  14.320  13.463  0.0801  0.0040 -0.1494
14364W        W30548   2.016  14.997  11.258  0.0994 -0.0426 -0.0564
14365W        W30549  13.468   2.887   2.316  0.1200 -0.0324 -0.0248
14366W        W30550   3.742   6.274  10.619  0.0266 -0.0592  0.0076
14367W        W30551   8.432   8.556  12.072  0.1788 -0.1494 -0.3085
14368W        W30552   2.786  11.995   2.148  0.2603 -0.1284 -0.0746
14369W        W30553   9.230  16.890   1.185  0.0502  0.0362 -0.0510
14370W        W30554  15.945   9.204   4.505 -0.0609  0.0709  0.2329
14371W        W30555  11.944  16.565  11.816 -0.0959 -0.1218  0.1709
14372W        W30556  14.068   7.065   0.226  0.1442 -0.1873 -0.2424
14373W        W30557   8.198  13.645  12.532  0.1713 -0.0231 -0.0637
14374W        W30558  15.413  13.540  11.751  0.1322 -0.1546 -0.0621
14375W        W30559  14.822   6.379   1.551  0.2446 -0.0856 -0.3833
14376W        W30560  13.289  17.743   3.148  0.2914  0.0258  0.1000
14377W        W30561   1.770   0.537  14.348 -0.0356  0.1687 -0.1292
14378W        W30562  13.269  14.362   4.013  0.0856  0.5521  0.2179
14379W        W30563   1.492  12.945  14.565  0.0090  0.3345  0.0193
14380W        W30564  17.775   7.077  13.961 -0.0588 -0.0186  0.0037
14381W        W30565   6.021  18.698  14.194 -0.0844  0.3399  0.0451
14382W        W30566   8.204  14.968   1.824  0.4663  0.2287  0.3227
14383W        W30567  14.433   0.277   1.829 -0.2019 -0.0199  0.2025
14384W        W30568  11.407  15.786   2.219  0.2376 -0.0951  0.3471
14385W        W30569   5.915  12.040   1.356 -0.0033  0.0670 -0.0270
14386W        W30570  18.366   4.773  11.239  0.1486  0.2167  0.0926
14387W        W30571   6.954   2.064   3.598 -0.0547 -0.1124  0.1299
14388W        W30572   7.388  14.133  13.479 -0.0997  0.1194  0.2346
14389W        W30573  15.024  11.503  14.204 -0.2404  0.1837  0.4392
14390W        W30574   4.703  12.027  13.577 -0.1561 -0.0451  0.2013
14391W        W30575   6.674   3.873  12.404  0.2029  0.1483  0.0338
14392W        W30576  13.030   6.118  12.487  0.0676  0.1476 -0.0965
14393W        W30577   5.613  18.663   4.354 -0.2164  0.1658 -0.2044
14394W        W30578  12.827   9.847  12.418 -0.0509  0.0268 -0.1512
14395W        W30579   4.077   2.631   4.740 -0.1903 -0.3430  0.0460
14396W        W30580   3.067  17.122   3.363  0.1450 -0.2197 -0.0420
14397W        W30581  17.203   7.065   3.770  0.1753  0.0958 -0.0035
14398W        W30582  18.243  15.261   1.562  0.1363  0.0501  0.1224
14399W        W30583   6.083   3.097   9.863 -0.2718  0.1678  0.4184
14400W        W30584  10.032   3.818   0.070  0.0809 -0.1331 -0.0191
14401W        W30585  17.054   4.170   1.901 -0.0510 -0.2319 -0.1420
14402W        W30586   5.679   1.881   3.141 -0.0308 -0.2499  0.2668
14403W        W30587  12.174  12.011   3.810  0.0242 -0.2520 -0.0989
14404W        W30588  14.812   6.400   5.265 -0.2144 -0.2170 -0.3540
14405W        W30589   9.402  12.401  12.439  0.1747  0.2087  0.1835
14406W        W30590  11.600   2.233  14.038  0.2643  0.2070  0.0260
14407W        W30591   3.367  13.481   1.506  0.0160  0.1568 -0.1180
14408W        W30592   5.336  17.643  14.618  0.2538  0.2214  0.0056
14409W        W30593   1.539  15.737  14.690  0.1170  0.2412  0.3144
14410W        W30594   1.419   4.749  15.125  0.0892 -0.3954  0.1995
14411W        W30595   5.044   7.207  14.980 -0.2340  0.1549 -0.1674
14412W        W30596   5.099  10.798   3.665  0.0502 -0.1956 -0.0611
14413W        W30597  17.120   1.977   2.756  0.0909 -0.0515  0.0125
14414W        W30598   7.446  10.199   3.121 -0.0501  0.0230  0.2022
14415W        W30599  15.222  12.248  11.590  0.1089 -0.0346 -0.0632
14416W        W30600   6.094  12.994   1.670 -0.1493  0.0102 -0.1777
14417W        W30601   3.852  10.497   1.659 -0.1177  0.1945 -0.0306
14418W        W30602  10.301   7.214   2.544  0.0676 -0.0505  0.3561
14419W        W30603   5.758  16.850   4.711 -0.3156 -0.0210 -0.1103
14420W        W30604   7.912  16.370   4.183  0.1948 -0.1378 -0.2318
14421W        W30605  11.038   5.571  12.455  0.0211 -0.0065  0.2184
14422W        W30606   7.608   3.326  11.410  0.1015  0.2167 -0.1587
14423W        W30607  18.726   4.811  12.373  0.4610  0.2923 -0.0095
14424W        W30608   0.826  13.630   3.267  0.1800 -0.0028  0.2627
14425W        W30609  13.049  16.819   2.580  0.0310  0.0309  0.2567
14426W        W30610  15.480   8.755   3.398 -0.1962  0.1404  0.1280
14427W        W30611   1.396   9.812  12.511  0.3020 -0.2463 -0.1608
14428W        W30612  16.163  12.978   0.958  0.5298  0.1167  0.2773
14429W        W30613   0.920  14.591   1.512 -0.1172 -0.0432 -0.0724
14430W        W30614  15.177   0.737  10.508  0.0451  0.0623  0.2750
14431W        W30615   9.421  12.255  10.749  0.0861  0.0159  0.1282
14432W        W30616  10.010   2.052   3.552 -0.2933  0.0330 -0.0887
14433W        W30617   8.491  17.815  14.447 -0.0879 -0.0271 -0.0007
14434W        W30618  18.007  11.797   4.390  0.0100 -0.1756  0.2203
14435W        W30619   6.868  12.944   5.493  0.1946 -0.4291 -0.1440
14436W        W30620  13.078   0.996   4.012 -0.0252 -0.3740  0.2823
14437W        W30621  17.810   2.051  13.385 -0.3996 -0.1283 -0.0325
14438W        W30622   1.262  18.462   1.825 -0.0164 -0.1271 -0.1026
14439W        W30623   3.500  10.248  14.313  0.0298 -0.3795  0.2161
14440W        W30624   6.040  18.572  12.807 -0.1896 -0.0997 -0.0019
14441W        W30625   9.600   2.869  12.405  0.0382 -0.2201  0.2168
14442W        W30626   0.042   5.471   4.362  0.1786  0.0305 -0.0780
14443W        W30627   3.160  10.050  15.092 -0.0012  0.1015 -0.2448
14444W        W30628   3.163   9.805   3.134 -0.5275  0.1257 -0.0422
14445W        W30629   7.374   1.410   0.887  0.0560 -0.2858 -0.0109
14446W        W30630  17.120  17.905   3.667  0.2455  0.0914 -0.0410
14447W        W30631  12.964   8.712  10.023 -0.0203  0.0748  0.1242
14448W        W30632   6.661   0.742   0.307 -0.0405  0.1365 -0.0584
14449W        W30633   8.877  15.669   2.743 -0.0610  0.0105 -0.0878
14450W        W30634   8.121   1.702  14.384 -0.2345  0.1601 -0.1409
14451W        W30635   7.565  14.886   1.280 -0.2031  0.0068  0.0716
14452W        W30636  15.916   4.729   3.517  0.2436 -0.2244 -0.0799
14453W        W30637  12.311   2.117  12.076  0.0933 -0.0906  0.2899
14454W        W30638   3.236   7.512   1.907  0.0364  0.0075  0.0034
14455W        W30639  12.180  12.768   3.826  0.5161  0.2847 -0.1546
14456W        W30640   8.316  14.050  11.753  0.3951 -0.0432  0.3556
14457W        W30641  18.306  10.009   4.565  0.0065  0.1260  0.1913
14458W        W30642  12.805   2.188  11.803 -0.1387 -0.3992 -0.0561
14459W        W30643   6.659  15.197  15.374  0.0438  0.3233  0.1695
14460W        W30644  11.664  17.685   3.677  0.2883 -0.3040 -0.0671
14461W        W30645   0.970   8.397  10.547  0.0192 -0.0028  0.2351
14462W        W30646  10.302  15.785   3.536 -0.1884  0.1855 -0.3412
14463W        W30647  13.084   8.806   4.325 -0.0489 -0.0416 -0.2497
14464W        W30648  11.326  13.277   4.509  0.2633  0.2569 -0.1210
14465W        W30649   6.710  16.802  14.028 -0.0464  0.3732 -0.0687
14466W        W30650  10.536  10.691   5.130  0.0954  0.1068  0.1019
14467W        W30651  14.625   6.944   3.831  0.1749 -0.0955 -0.0745
14468W        W30652  15.724   3.056  10.676 -0.3113 -0.0201  0.2659
14469W        W30653  16.101   2.419  14.886 -0.1412 -0.2659  0.0048
14470W        W30654  18.851   8.521  11.297 -0.0694 -0.0176  0.2755
14471W        W30655   7.215   9.929   5.075 -0.1935  0.1021 -0.2877
14472W        W30656   6.283   1.262   5.176 -0.1235 -0.0984 -0.2313
14473W        W30657  17.458  17.226  11.725 -0.5758 -0.1315  0.1711
14474W        W30658   0.262  15.685  13.491 -0.0031  0.1712 -0.1832
14475W        W30659   3.552  12.846  11.952  0.1632  0.2225 -0.0214
14476W        W30660  18.044  16.123  14.508 -0.1436  0.2004 -0.1668
14477W        W30661  17.410  18.167  12.846  0.0341 -0.0850 -0.2739
14478W        W30662  12.398   8.970  11.669  0.0539  0.1112 -0.1613
14479W        W30663  13.719  11.915   0.078  0.1578 -0.0436 -0.2623
14480W        W30664   3.524   6.057  13.862 -0.2877  0.3723 -0.1376
14481W        W30665  18.718   2.040  11.352 -0.3507 -0.2397  0.1360
14482W        W30666   1.102  13.049  10.797 -0.2480  0.2522  0.1136
14483W        W30667   1.899  12.238   4.263 -0.0469 -0.3168  0.0349
14484W        W30668  16.374   3.487  13.614 -0.3312  0.1353 -0.4207
14485W        W30669   7.233  18.793  11.266 -0.1508 -0.1181  0.0496
14486W        W30670   3.755   4.095  14.011 -0.2483  0.3486  0.1466
14487W        W30671   5.374  13.436   4.918 -0.2601  0.0692  0.3712
14488W        W30672   1.211   4.441   2.172  0.0879  0.1259  0.2042
14489W        W30673   9.625  15.640   1.187  0.1759 -0.2933  0.0319
14490W        W30674  12.763   5.417  13.440  0.1861 -0.2957  0.0097
14491W        W30675   3.242  13.759   0.098  0.1594 -0.1300  0.1674
14492W        W30676   3.224  18.779  12.141 -0.1267  0.0159  0.0433
14493W        W30677  12.717  13.043   0.839 -0.0163 -0.0048 -0.0515
14494W        W30678  15.553  12.862  11.805  0.2466  0.3661  0.0921
14495W        W30679  15.405  17.547   3.176  0.0059  0.0859 -0.1430
14496W        W30680  17.850  12.259  12.356 -0.1978  0.0846 -0.1395
14497W        W30681  14.165   3.181   0.747  0.1954  0.0018  0.3451
14498W        W30682  11.276   3.483   2.359  0.2614  0.4003 -0.1302
14499W        W30683   9.218  17.272   4.921  0.2808 -0.0001 -0.2066
14500W        W30684  11.990   2.490   5.869  0.0862  0.1080  0.1559
14501W        W30685   9.232  17.045   0.185  0.1477 -0.0054 -0.1226
14502W        W30686   3.695   0.716  11.102 -0.0050  0.3626 -0.2141
14503W        W30687   3.877   6.979  15.079 -0.1902 -0.1041  0.1600
14504W        W30688  12.371  14.246  12.558 -0.0746 -0.0637 -0.0124
14505W        W30689  12.827  17.228   0.483 -0.0289 -0.1272 -0.1603
14506W        W30690  16.073  16.213   2.104  0.1960  0.0493  0.0898
14507W        W30691  15.438  16.890   1.203 -0.0118  0.0715 -0.1786
14508W        W30692  10.224  17.953  13.953 -0.2986 -0.2647  0.1918
14509W        W30693  12.341   9.056   0.711  0.1214 -0.1474 -0.2559
14510W        W30694   1.762   5.816  12.051  0.1384  0.1044 -0.2220
14511W        W30695   9.289  15.536  13.089  0.0490  0.0351  0.1477
14512W        W30696   3.500   8.636   2.214  0.1687 -0.2110 -0.2332
14513W        W30697  17.502   0.480  14.285  0.3434  0.0888 -0.0699
14514W        W30698   4.937   8.401  15.465  0.0488  0.0827  0.0070
14515W        W30699  16.240  11.891   0.157 -0.1910  0.1569 -0.2450
14516W        W30700   2.819  14.083  12.347  0.1982 -0.2165 -0.0846
14517W        W30701   0.202   2.627   0.562 -0.3252  0.0716  0.1753
14518W        W30702  18.657   4.559   2.341  0.3708  0.1246  0.2871
14519W        W30703  10.925   4.001  14.701 -0.0226  0.0660 -0.0436
14520W        W30704  10.881  12.433   2.798  0.0278  0.0327 -0.0822
14521W        W30705  17.880   2.716  11.351  0.5168 -0.1376  0.1627
14522W        W30706   1.157   9.879   1.419 -0.1345  0.2816 -0.2260
14523W        W30707   4.993   1.579   1.022  0.0387  0.2816 -0.2268
14524W        W30708  11.098   4.727   5.949 -0.3142 -0.2241 -0.1661
14525W        W30709   7.266  17.219   0.201 -0.4104  0.1363 -0.1351
14526W        W30710   7.734   2.787   4.282  0.0325  0.0389  0.1988
14527W        W30711   8.440   9.201  14.485  0.1219  0.3838 -0.3608
14528W        W30712   4.800  13.604   1.416 -0.0391  0.1352  0.2723
14529W        W30713   5.184   7.063   2.499 -0.2324  0.2748 -0.0576
14530W        W30714  15.649  18.064  13.963  0.6652 -0.1810 -0.0692
14531W        W30715  10.101  15.696   1.595 -0.0382  0.1619  0.2248
14532W        W30716   0.908   7.560  14.118 -0.2156 -0.2040 -0.0103
14533W        W30717   1.324  10.447   4.095 -0.2243 -0.1755 -0.3134
14534W        W30718  18.246  17.153   4.702 -0.1632 -0.0445 -0.0573
14535W        W30719   9.415   0.996  13.531  0.1240  0.2239  0.0905
14536W        W30720  18.247  11.764   4.877 -0.3653  0.3487 -0.0463
14537W        W30721  12.982   8.024  12.532  0.0821 -0.1505  0.2263
14538W        W30722   1.292  16.145  12.537  0.1506  0.1331 -0.0616
14539W        W30723   7.777  12.974   0.348 -0.1985  0.0241 -0.0751
14540W        W30724  11.066   5.602  10.595 -0.2400  0.0400 -0.1945
14541W        W30725   2.406   5.632  12.346  0.1147 -0.2555  0.1911
14542W        W30726  15.692  16.201   0.910 -0.2921  0.1060 -0.0118
14543W        W30727   4.892  17.097  13.283  0.1935  0.0609  0.1455
14544W        W30728   3.451   4.522  14.011 -0.1695 -0.1646  0.0519
14545W        W30729   3.462   5.044   5.344 -0.0641 -0.1008  0.2883
14546W        W30730   8.356  18.007   2.079 -0.3249 -0.3079  0.2944
14547W        W30731   9.482   5.953  13.662 -0.3421  0.1869  0.0745
14548W        W30732   3.202   3.231  13.229 -0.0050  0.0499  0.2582
14549W        W30733   1.277   6.802  15.031  0.0664  0.3781  0.1073
14550W        W30734  12.128   6.051  14.466 -0.1106 -0.2175 -0.4046
14551W        W30735   6.197   5.273   0.301 -0.2588  0.2967 -0.1437
14552W        W30736   8.574   4.367  11.079  0.0801 -0.1341 -0.1678
14553W        W30737   1.670   4.491  12.827  0.0084  0.0222  0.0285
14554W        W30738   0.873  14.522  14.947 -0.2501 -0.3325 -0.0972
14555W        W30739   7.867   1.888   2.998 -0.2984 -0.0721  0.1870
14556W        W30740  11.228   3.408  14.614 -0.2119 -0.0457 -0.0365
14557W        W30741   8.679   8.398  13.425 -0.0787  0.1165  0.0524
14558W        W30742   9.820   8.485   0.896  0.2614 -0.0254 -0.0124
14559W        W30743   6.386  10.420   4.311  0.0676 -0.2615  0.2131
14560W        W30744  10.000  17.949   3.695 -0.3398  0.0764 -0.1022
14561W        W30745  17.593  10.761   3.536  0.2223 -0.0254  0.0840
14562W        W30746   4.651   3.403   2.539  0.0079  0.1459  0.3143
14563W        W30747  15.188  12.829   0.812  0.3863  0.2323 -0.1958
14564W        W30748   7.103   4.922   3.438 -0.2182 -0.1232  0.0436
14565W        W30749   0.001   3.000   5.738 -0.2761  0.2252  0.1052
14566W        W30750  16.550   5.123  13.366  0.1785 -0.0362 -0.1044
14567W        W30751   9.057   9.891   2.781 -0.0867  0.0890  0.3102
14568W        W30752  13.310   2.094  12.165  0.0976  0.0380 -0.2172
14569W        W30753   1.463  13.819   4.702  0.0566 -0.0308  0.0143
14570W        W30754   1.230   5.202  13.264  0.3813 -0.2369  0.2357
14571W        W30755   0.899   4.398  15.200 -0.0489  0.1514  0.0121
14572W        W30756  12.989  13.893   1.796  0.1044 -0.3493 -0.0460
14573W        W30757   1.010   3.804   1.387  0.1169  0.1677  0.1635
14574W        W30758   9.099   9.698  12.933 -0.4233 -0.1841  0.0297
14575W        W30759  18.688   5.498   0.723 -0.2306  0.2211 -0.0018
14576W        W30760   0.294   4.686  14.055  0.1756 -0.1324  0.0551
14577W        W30761   4.698   8.370   3.314  0.1078 -0.0535 -0.1556
14578W        W30762  15.294   3.959   4.949 -0.1532  0.0269  0.5977
14579W        W30763   4.631  17.922   0.062  0.3717  0.2155 -0.2207
14580W        W30764   6.650  14.102   4.611 -0.0815  0.1393  0.0331
14581W        W30765   6.429  10.350   2.375  0.0960  0.3699  0.1934
14582W        W30766   1.030  18.187  14.520 -0.1681 -0.0820 -0.2602
14583W        W30767   1.914  10.229   2.902 -0.0830  0.2971  0.0674
14584W        W30768  10.035  13.540   0.290 -0.1642 -0.3754  0.2816
14585W        W30769   0.322   5.846   5.861  0.1542  0.2547  0.1004
14586W        W30770  15.409  18.845  14.760 -0.0082 -0.0035  0.0652
14587W        W30771   6.755   6.368   1.678 -0.0028  0.1576  0.0437
14588W        W30772  11.118  14.134   3.464  0.2543  0.1530  0.0811
14589W        W30773  13.393   3.825  12.899  0.4654 -0.1674  0.1215
14590W        W30774   9.245   9.474  10.848 -0.3819  0.1675 -0.1494
14591W        W30775   1.894   2.572   3.625 -0.0536 -0.0258  0.0729
14592W        W30776   7.991  10.306   0.643  0.5489  0.0980 -0.1007
14593W        W30777   9.182  15.844   5.182 -0.0198 -0.4413  0.0465
14594W        W30778   4.980  10.766  14.716  0.1293  0.0962 -0.0522
14595W        W30779   2.368  10.768   1.463 -0.0482  0.0995 -0.0487
14596W        W30780   5.180  15.167  14.708 -0.2989 -0.3139  0.0111
14597W        W30781   9.786   6.873   0.225  0.1998  0.0277 -0.3201
14598W        W30782   6.012  14.823  11.683  0.2664  0.1109 -0.0902
14599W        W30783   9.388  15.704  14.873 -0.1987  0.1093  0.0370
14600W        W30784   4.281   6.279  15.523  0.2045 -0.0539  0.1647
14601W        W30785  16.726  15.037  15.117 -0.1188  0.1251 -0.2298
14602W        W30786  17.808   0.212   3.161  0.3347 -0.0582 -0.1743
14603W        W30787  13.445  13.189  12.733  0.2731 -0.0654 -0.0266
14604W        W30788   9.201   4.193   4.310 -0.2618  0.1938 -0.0744
14605W        W30789  14.099  16.672   5.455 -0.2332  0.0701 -0.0345
14606W        W30790  18.754  12.026  11.017  0.0733 -0.1014  0.1222
14607W        W30791  12.381  10.160   0.456 -0.1327 -0.3454 -0.0908
14608W        W30792  14.056  13.948   3.668  0.2448 -0.2685  0.0924
14609W        W30793   1.542  18.550  12.304  0.1016  0.0388  0.1164
14610W        W30794   5.243   4.765  13.985 -0.2622 -0.2213  0.2354
14611W        W30795  10.729   1.808   1.346  0.3263 -0.2791  0.0052
14612W        W30796  11.368   6.229  11.659 -0.0233  0.4883 -0.3396
14613W        W30797  10.033  12.978  14.117 -0.0541 -0.1588 -0.1180
14614W        W30798   7.358  15.243   3.420  0.0153  0.3580  0.0383
14615W        W30799  18.650  12.083   4.976  0.0850 -0.0709 -0.3450
14616W        W30800   8.340   0.438  12.145 -0.0655  0.0801  0.0111
14617W        W30801  17.163   9.237  11.091  0.2985 -0.2478  0.0203
14618W        W30802   9.072   7.608   4.684  0.0396 -0.4072  0.0499
14619W        W30803  16.177  13.082  11.425 -0.0899  0.0019  0.0650
14620W        W30804  12.306   4.001   3.063  0.0024 -0.2383 -0.0865
14621W        W30805   2.695   1.939  13.949 -0.0001  0.2509 -0.0150
14622W        W30806  18.308   8.156   0.259 -0.5392  0.2184 -0.1266
14623W        W30807   0.508   1.091   3.982 -0.2066  0.3272 -0.1548
14624W        W30808   8.777   8.730   2.387 -0.0980 -0.0641 -0.0810
14625W        W30809   9.321   9.985  15.294  0.0788 -0.0979  0.2667
14626W        W30810   4.911   3.209   1.267  0.0984  0.0189 -0.0537
14627W        W30811   2.670   6.674   4.060 -0.0374  0.1961  0.0309
14628W        W30812   8.304  14.476  14.938  0.1162  0.1073 -0.1703
14629W        W30813  10.957  11.043   3.415 -0.0816  0.0178 -0.4055
14630W        W30814   9.298  17.487  12.291  0.1000  0.2307  0.0294
14631W        W30815  11.294   2.702   2.727 -0.0405  0.1588 -0.3528
14632W        W30816  16.622   3.769   1.910  0.2299  0.0391  0.0567
14633W        W30817   8.450   6.546  10.733 -0.2844  0.0155 -0.1802
14634W        W30818  18.374  17.334   3.746 -0.0015 -0.1860 -0.2611
14635W        W30819   7.133   5.842  14.938  0.2475  0.1013 -0.0011
14636W        W30820   4.932  15.849   0.192 -0.1262 -0.1044 -0.0338
14637W        W30821   4.324   2.840  12.804  0.1426  0.0585 -0.0495
14638W        W30822  14.709   2.501  14.832 -0.1584  0.2163 -0.1522
14639W        W30823  11.777   3.947  14.192 -0.1276 -0.1377 -0.1539
14640W        W30824  11.612  10.732  14.541  0.1017  0.1622 -0.1084
14641W        W30825   7.443   9.595  15.038  0.0426  0.2116 -0.2655
14642W        W30826   7.755   6.571   3.871 -0.2342  0.0494  0.2924
14643W        W30827  10.811   2.208   0.202  0.0229 -0.0684 -0.0194
14644W        W30828  12.711  11.541  10.562  0.4600  0.0028 -0.0612
14645W        W30829   6.156  18.493  15.487 -0.0329 -0.1210  0.0650
14646W        W30830  12.634   8.472  12.482 -0.4189 -0.0068 -0.0445
14647W        W30831   4.859   6.304   4.598 -0.1711 -0.2094  0.4260
14648W        W30832   1.618   7.950   0.198  0.0766 -0.2535  0.3589
14649W        W30833   8.308   0.572  11.141  0.1377  0.0602 -0.2524
14650W        W30834   7.750   4.641   1.658 -0.0433 -0.2688 -0.2039
14651W        W30835  10.853   3.522   1.598 -0.0018  0.1738 -0.0680
14652W        W30836   3.147   0.400  10.453  0.2528 -0.0173  0.0794
14653W        W30837  15.707   2.536  11.892 -0.2394  0.2051 -0.0239
14654W        W30838  11.585   9.578  14.721 -0.1236  0.3169  0.2230
14655W        W30839  16.107   0.020   2.622 -0.0268  0.0979 -0.2323
14656W        W30840   4.017  11.236   4.991  0.1785 -0.1273 -0.1163
14657W        W30841  12.077   0.557  14.254  0.1390  0.1349  0.0492
14658W        W30842  17.571  16.978  15.175  0.1429  0.4945  0.1435
14659W        W30843   1.882  11.701  11.746 -0.2990  0.0242 -0.1672
14660W        W30844   1.638   0.233   3.761  0.3791  0.0343 -0.1041
14661W        W30845  16.956  14.181   5.610 -0.5474 -0.0178 -0.2953
14662W        W30846   3.842  18.505  12.667  0.2099  0.1979 -0.3403
14663W        W30847   6.736  10.626  11.788  0.0889  0.1244  0.0226
14664W        W30848   4.605  10.903   4.981  0.1064  0.0609 -0.1157
14665W        W30849   0.169   0.811   3.173  0.0218  0.0561  0.1784
14666W        W30850  15.255   1.885  15.243 -0.0860  0.2834 -0.1133
14667W        W30851  15.911   1.010   4.694  0.0711  0.1056 -0.4984
14668W        W30852   5.359  10.324   2.360  0.1754  0.2634  0.0764
14669W        W30853  16.377  15.717   5.594 -0.1457 -0.3075 -0.1762
14670W        W30854  17.090   1.815  10.794  0.2308  0.1192  0.0633
14671W        W30855  14.602  16.741   1.514 -0.0715 -0.5201  0.2834
14672W        W30856   5.589   9.521   1.665 -0.0447 -0.2474  0.0638
14673W        W30857  15.461   1.403   1.320  0.0261 -0.2383 -0.4381
14674W        W30858  17.800  10.583   1.723 -0.0577  0.1521 -0.0555
14675W        W30859  18.489  13.465  10.962  0.0676 -0.2303 -0.2049
14676W        W30860  12.071  14.608  12.313 -0.1625 -0.2257 -0.0099
14677W        W30861  12.960  11.085  10.620  0.0381  0.1224  0.0825
14678W        W30862  17.246  14.825  11.229  0.4052  0.1325  0.0463
14679W        W30863  15.672   7.768  13.304  0.1176 -0.1416  0.1212
14680W        W30864  15.448  13.770  13.475  0.2073 -0.2002 -0.0407
14681W        W30865   7.321  15.362  15.480 -0.2101 -0.1035 -0.2216
14682W        W30866   1.244   2.670  12.666  0.1346  0.1839  0.0691
14683W        W30867   3.151  13.389   0.748 -0.0749  0.4585  0.2313
14684W        W30868  15.139  12.988  13.213 -0.1241  0.4670 -0.3219
14685W        W30869   0.172  17.495  14.204 -0.1723 -0.2067  0.0672
14686W        W30870  10.564   8.408   4.707  0.3046 -0.2251  0.2068
14687W        W30871  17.027   8.144   0.296 -0.1511 -0.3526  0.0618
14688W        W30872   2.906  18.680   3.999 -0.1151 -0.0229  0.3283
14689W        W30873   2.674   8.550   3.173  0.0938  0.0332 -0.0729
14690W        W30874  18.035  18.678  15.356  0.1537  0.0033 -0.3184
14691W        W30875  11.230  15.893  14.726 -0.1986  0.5315 -0.2760
14692W        W30876   9.948  10.386  14.668 -0.0844  0.0385  0.0198
14693W        W30877   9.674   1.001  12.547  0.1510  0.2401  0.0583
14694W        W30878   0.489  11.565   1.526 -0.0454 -0.1302  0.2790
14695W        W30879  10.473   4.014  11.862  0.0555  0.1801 -0.2021
14696W        W30880   2.356  16.374  14.103 -0.2137  0.3741  0.1689
14697W        W30881   2.313  18.065  12.466 -0.0923 -0.0294 -0.3309
14698W        W30882   6.115  10.485  12.488  0.1912  0.0064  0.0937
14699W        W30883  13.957   7.471  15.491 -0.4325  0.1901 -0.0760
14700W        W30884  15.688   8.093  12.532 -0.1014  0.1798 -0.2221
14701W        W30885  17.535   6.247  13.135 -0.0916  0.1453 -0.0949
14702W        W30886   5.476   6.100   2.168 -0.3448  0.0920  0.1658
14703W        W30887  16.047  15.919  11.817  0.1202  0.1300 -0.1639
14704W        W30888  16.509  13.726  11.871  0.1590  0.0284  0.0118
14705W        W30889  16.979  10.339   0.029 -0.2648  0.0963  0.3180
14706W        W30890  12.277   4.322  12.081 -0.0729 -0.2248 -0.2272
14707W        W30891   3.048   4.786   2.507  0.0895  0.2342  0.0997
14708W        W30892  11.428   7.618  14.216 -0.1407  0.2973  0.2305
14709W        W30893  13.637  18.840   2.969 -0.1384  0.2152 -0.1332
14710W        W30894  18.037  11.492   3.893 -0.1099  0.1300  0.2242
14711W        W30895   3.736  18.428   4.279 -0.2282 -0.1401 -0.0136
14712W        W30896   1.687   4.916  11.082 -0.1043 -0.1737  0.0724
14713W        W30897   3.990  15.099   5.610  0.2600 -0.0390  0.0103
14714W        W30898   1.513  11.341   1.455  0.0843 -0.2431  0.2362
14715W        W30899   9.896  16.889  11.227  0.1002 -0.0243  0.2217
14716W        W30900  15.024  13.740  14.257 -0.1349 -0.3407 -0.1220
14717W        W30901   7.073  16.276  12.699  0.2904 -0.0086  0.1761
14718W        W30902  15.859  17.997   4.399 -0.1451 -0.0181  0.2754
14719W        W30903  16.744   0.182   0.758 -0.1712  0.0761  0.0779
14720W        W30904  11.062   9.153   0.389  0.0693 -0.1362  0.1314
14721W        W30905   6.514  13.351   0.888 -0.1932  0.0598  0.0054
14722W        W30906  13.123   7.839  11.947 -0.2146 -0.1159 -0.0108
14723W        W30907   6.484   5.839  12.768  0.1739  0.0724  0.0333
14724W        W30908   1.041   9.543  11.745 -0.3443  0.0160 -0.3369
14725W        W30909   4.466  11.403   3.573  0.0367  0.0420 -0.0928
14726W        W30910   7.874  11.039   2.839  0.1115  0.0303  0.1611
14727W        W30911  18.556  10.880   4.889  0.3422 -0.0048  0.1421
14728W        W30912  17.421   3.665   5.728 -0.0584  0.2014  0.2329
14729W        W30913  17.601   1.691   1.141 -0.0904  0.0678  0.0023
14730W        W30914  16.953   3.236  11.880  0.1380 -0.1046 -0.1044
14731W        W30915   9.588  15.568  11.260  0.1338  0.2105 -0.0912
14732W        W30916  16.808  17.724   1.330 -0.1123  0.0855  0.0184
14733W        W30917  16.270   9.217   1.607  0.1979  0.0097  0.1961
14734W        W30918  15.169   8.707   3.769 -0.0609  0.0653 -0.1058
14735W        W30919   2.100  14.792   3.002 -0.2472  0.1791  0.1053
14736W        W30920  18.052   9.597  12.036 -0.0359  0.2499 -0.0892
14737W        W30921  17.176   1.086  14.366 -0.2533 -0.0606 -0.2891
14738W        W30922   2.726  17.534  14.754  0.2979  0.0008 -0.1723
14739W        W30923   1.098   6.268   4.215  0.0719 -0.0639 -0.3533
14740W        W30924  11.584  16.641  15.114  0.4471 -0.0117  0.1538
14741W        W30925   1.811  12.029  11.257 -0.0180 -0.3278  0.3978
14742W        W30926   3.251  11.545  14.728 -0.2338 -0.1133  0.0640
14743W        W30927   3.566   7.845   1.663 -0.2407  0.3621  0.0065
14744W        W30928  16.254   5.323  11.526 -0.0658  0.0644  0.1482
14745W        W30929  18.307  15.786   4.639 -0.1363 -0.0406 -0.0441
14746W        W30930   2.132  13.482   0.609 -0.0774  0.1891 -0.1420
14747W        W30931   1.231   8.105   4.089 -0.0071  0.0391  0.2426
14748W        W30932  11.552  12.180   1.625 -0.1767 -0.1490  0.2690
14749W        W30933  11.051  15.845   3.432 -0.0426  0.3140  0.1858
14750W        W30934  12.368   7.412  14.337  0.2811  0.2635 -0.1675
14751W        W30935  13.627   3.283   5.075  0.1474  0.2270 -0.0604
14752W        W30936  18.558   7.205  12.942 -0.1797 -0.2965  0.1998
14753W        W30937  15.937   3.211  13.504  0.1647 -0.1733  0.0190
14754W        W30938  17.382  10.869   2.705  0.1802 -0.4362  0.2219
14755W        W30939   7.908   7.051  10.299 -0.1399 -0.1836 -0.0670
14756W        W30940   2.590  11.944   0.702 -0.3062  0.3237  0.2849
14757W        W30941   5.060  17.285  12.789 -0.2895  0.2448  0.1277
14758W        W30942   6.968   9.136   4.445 -0.1636 -0.0737 -0.2835
14759W        W30943   7.481   6.214  14.228 -0.0322  0.3531  0.0266
14760W        W30944  14.485  10.013   1.634  0.0238  0.1532  0.0516
14761W        W30945  17.677  10.530   5.479 -0.2779 -0.1120 -0.0948
14762W        W30946   2.602   2.724  11.020  0.1680 -0.2147  0.3174
14763W        W30947  13.280  16.628  14.686 -0.1968  0.2100 -0.1033
14764W        W30948   1.706   8.798  14.257 -0.0462 -0.1774 -0.2104
14765W        W30949   2.983   8.786  12.287 -0.0860  0.1964 -0.1796
14766W        W30950  10.137   7.410   3.880  0.4452 -0.1639 -0.0595
14767W        W30951  11.435   3.248   0.533 -0.1661 -0.1736 -0.1425
14768W        W30952   7.381   6.241   3.882 -0.1672  0.3048  0.1529
14769W        W30953  13.659   7.851  13.406 -0.3173  0.2457 -0.3037
14770W        W30954  14.074  11.081  11.355  0.2491 -0.0115 -0.4212
14771W        W30955   7.193   6.406   4.809  0.0618 -0.0992  0.0431
14772W        W30956  18.262  18.312   0.011 -0.2415  0.0073 -0.0508
14773W        W30957  10.694   6.459  13.998  0.0109  0.0276  0.0450
14774W        W30958  15.864  13.961   2.818  0.0806  0.0723 -0.2490
14775W        W30959  16.419   4.585   3.228  0.0573  0.1750 -0.0030
14776W        W30960   4.079   1.685   0.912  0.1957 -0.1564 -0.1311
14777W        W30961  15.348  13.599   1.980 -0.3468 -0.1500  0.2447
14778W        W30962   6.517   4.857  14.911 -0.1765 -0.3213 -0.0287
14779W        W30963  16.131   8.359   3.969 -0.0629 -0.0421 -0.1720
14780W        W30964   2.177   4.180   2.501 -0.0636 -0.0066 -0.4136
14781W        W30965   9.405   9.405   1.338 -0.2141 -0.0662  0.0918
14782W        W30966   9.544   5.402  15.059  0.1532  0.2700 -0.0332
14783W        W30967   7.052   1.879  14.390 -0.3312  0.4226  0.2788
14784W        W30968  16.163   9.637   0.492  0.1019 -0.0923  0.2709
14785W        W30969  15.587   6.601  14.602  0.2578 -0.1084 -0.0673
14786W        W30970  13.506   8.638  12.355  0.0132 -0.3366 -0.0666
14787W        W30971   2.026   6.925  14.367  0.0470  0.1807 -0.1484
14788W        W30972   0.274   1.090   1.793 -0.3089  0.0081 -0.1127
14789W        W30973  14.959  14.046   2.733  0.1378  0.0093  0.0843
14790W        W30974   0.684  10.602   0.330  0.0069  0.4724 -0.1274
14791W        W30975  14.547   0.673   0.221 -0.1158 -0.0644 -0.1724
14792W        W30976  11.526  17.310  11.856  0.0423  0.2299  0.0957
14793W        W30977  11.143   7.979   0.012 -0.1507  0.2408 -0.0271
14794W        W30978   4.141  11.817   3.065 -0.0431 -0.0246 -0.2594
14795W        W30979  13.410  18.136  11.197 -0.2204  0.0182 -0.0949
14796W        W30980   4.282   4.620   4.874  0.2313 -0.1890 -0.2923
14797W        W30981   9.419   8.001  12.921  0.0992 -0.2856 -0.0475
14798W        W30982  17.353   3.710   4.674  0.0280 -0.0041 -0.0557
14799W        W30983   2.603  17.319  14.105  0.0632 -0.0237 -0.0945
14800W        W30984  13.374   3.432   4.654 -0.0721 -0.2952 -0.2133
14801W        W30985   5.926   9.075   0.241 -0.0292 -0.1833 -0.1720
14802W        W30986  16.901   8.676  13.295  0.4115 -0.1521  0.0333
14803W        W30987   8.625   7.181   5.403  0.1667 -0.0561  0.1455
14804W        W30988  17.451   9.205   4.769 -0.3358 -0.3709  0.1093
14805W        W30989  16.763   6.181  14.174 -0.2639 -0.0902  0.0291
14806W        W30990   4.766   7.368  10.802 -0.0615 -0.1854 -0.1420
14807W        W30991  14.867   5.069  13.682  0.1204 -0.0328  0.2284
14808W        W30992   8.610   1.505   5.067  0.0879 -0.2414 -0.1141
14809W        W30993   5.007   6.692  13.247 -0.0493  0.0222 -0.2346
14810W        W30994  15.770  18.669  14.467 -0.2201  0.1067  0.1254
14811W        W30995  15.422   9.565  10.843  0.1266  0.0055  0.2958
14812W        W30996   4.284   2.303   4.410  0.0948  0.0196 -0.1392
14813W        W30997  16.181   5.411   5.791 -0.1544  0.3632  0.2726
14814W        W30998   1.161  11.401   2.783 -0.1337 -0.1130 -0.0106
14815W        W30999   8.009   2.751   5.643  0.1272 -0.2530  0.0613
14816W        W31000   7.640   8.816   0.405 -0.0896 -0.1928 -0.2079
14817W        W31001   9.371   9.786   5.620 -0.2571  0.2187  0.2662
14818W        W31002   1.952  13.725  14.722 -0.0793 -0.1619 -0.2856
14819W        W31003  14.975  17.214  11.771  0.0458  0.5257 -0.0372
14820W        W31004   5.645   7.634   1.768  0.1531 -0.1118 -0.4640
14821W        W31005   7.946   6.285  13.836 -0.0976 -0.0913  0.1122
14822W        W31006  14.014   9.937   3.068 -0.0397  0.0874  0.0149
14823W        W31007  16.469  12.701  12.442 -0.0246  0.0566  0.1337
14824W        W31008   1.590  13.978   2.912 -0.1148  0.0873 -0.0838
14825W        W31009  14.160   9.760   0.688 -0.1271 -0.1082 -0.0355
14826W        W31010  14.884  15.778   4.069 -0.3957 -0.2594 -0.3305
14827W        W31011   1.719   2.660   4.130 -0.2272 -0.1256 -0.0519
14828W        W31012  12.488  10.373   1.882 -0.0043  0.1385 -0.1291
14829W        W31013   1.450  16.932   5.102  0.0210  0.2365 -0.0537
14830W        W31014   9.691   3.704  11.678 -0.2288 -0.0465  0.1490
14831W        W31015  15.460   5.116   4.033 -0.0218 -0.1533  0.1016
14832W        W31016   1.160  11.594   1.183  0.1933 -0.0958 -0.1663
14833W        W31017   6.178   5.180  11.589 -0.2355 -0.0321 -0.1687
14834W        W31018   3.392   3.376   3.723  0.0100 -0.1939 -0.3660
14835W        W31019   7.972  14.086  12.201  0.0894  0.1972 -0.1458
14836W        W31020  17.232   6.868  14.284  0.1724  0.0521 -0.0917
14837W        W31021  12.512   3.476  14.448  0.2830  0.2097  0.1311
14838W        W31022  13.766   8.470   3.252 -0.1088  0.1709 -0.0565
14839W        W31023  13.916  16.619   2.773 -0.0446 -0.1441  0.0032
14840W        W31024   6.174   9.373   2.867 -0.1313 -0.2895  0.0979
14841W        W31025  10.243  13.433   1.131 -0.2492  0.6923  0.0127
14842W        W31026  17.987   1.592   3.088  0.1357  0.3130 -0.0342
14843W        W31027  14.190   5.791  11.503 -0.2053 -0.0669 -0.0058
14844W        W31028   2.828  18.224  15.277  0.0342 -0.0831  0.0097
14845W        W31029   0.705   4.027   3.443  0.3018  0.1216 -0.0035
14846W        W31030   1.417   2.231  14.110 -0.0847  0.3123 -0.0108
14847W        W31031   3.280   5.559  10.930 -0.1072 -0.1693 -0.1149
14848W        W31032  18.828  10.815  14.428 -0.0954  0.1289  0.0318
14849W        W31033   0.561   8.877   2.149 -0.1226 -0.0558  0.4140
14850W        W31034  12.565  10.217   4.897  0.0298  0.1044  0.3506
14851W        W31035  11.005   1.684   4.218  0.2409 -0.0519  0.0917
14852W        W31036  14.599  14.784  15.370  0.0306 -0.1611 -0.1219
14853W        W31037   7.976  11.675  11.189 -0.1814 -0.3201 -0.0674
14854W        W31038   3.362   5.176   2.177  0.0831 -0.0377  0.1868
14855W        W31039   8.361   6.720   0.806 -0.4976  0.0445 -0.3440
14856W        W31040   6.289  16.757   2.837 -0.1536  0.0358 -0.1883
14857W        W31041  10.148   6.699  14.797 -0.0852  0.3268  0.1825
14858W        W31042   6.341  17.753   1.799 -0.3106  0.1021 -0.0152
14859W        W31043  18.822   0.009   2.353 -0.0928 -0.0753 -0.1623
14860W        W31044   2.942  12.839   2.508  0.1428  0.2909 -0.0099
14861W        W31045  17.865  14.121   1.067  0.3377  0.1831 -0.0724
14862W        W31046   4.367   9.978   4.286  0.0912 -0.0085  0.3273
14863W        W31047   7.493   2.092   1.346  0.2211 -0.1009  0.1037
14864W        W31048  15.120   8.086   5.455 -0.1599  0.1932 -0.0732
14865W        W31049   5.354   3.940  15.013  0.0592 -0.2821 -0.0101
14866W        W31050  13.738   4.635  12.983 -0.3118 -0.1696 -0.1995
14867W        W31051  14.693   9.100   1.518  0.1236 -0.0942 -0.2846
14868W        W31052   6.966  16.124  10.745 -0.1752 -0.0265 -0.2738
14869W        W31053   7.398   5.757   0.656  0.5166  0.0884  0.2448
14870W        W31054   2.750   5.187   2.584 -0.0100  0.1287  0.0750
14871W        W31055  16.538  17.239  11.271 -0.3834 -0.1747  0.0677
14872W        W31056   6.460   7.838  11.506 -0.3093 -0.1487 -0.1286
14873W        W31057  15.376  12.614   3.566 -0.2088  0.0402 -0.2107
14874W        W31058   6.236   3.382   2.619  0.0333  0.0496 -0.4610
14875W        W31059   4.642  10.267  12.513  0.2670  0.0882  0.0768
14876W        W31060   3.324  18.349  10.341  0.0552  0.0451 -0.1690
14877W        W31061   0.340   2.007   0.442 -0.2847  0.0224 -0.0820
14878W        W31062  13.161   0.779   5.075  0.0718 -0.0756  0.1593
14879W        W31063   5.635   5.560  13.692  0.1261 -0.0060 -0.3584
14880W        W31064  15.853   5.990  13.961 -0.0563 -0.0116  0.0921
14881W        W31065  13.886   0.125  11.322 -0.3563 -0.2187 -0.1185
14882W        W31066   4.878  14.256   2.013  0.2555 -0.1746  0.1339
14883W        W31067  11.106   8.911  14.964 -0.0875  0.0519  0.0279
14884W        W31068  17.929   9.943  15.363  0.1279 -0.1050 -0.0867
14885W        W31069   9.011  18.144   4.526  0.1800 -0.2174 -0.1555
14886W        W31070  11.613  12.395  14.804  0.1856  0.0451 -0.3539
14887W        W31071  17.889  12.776   2.385  0.0744 -0.0247  0.0944
14888W        W31072  11.951  11.521  13.270 -0.2232  0.1166  0.0087
14889W        W31073   2.324  12.326   1.573  0.1365  0.1586  0.1679
14890W        W31074  11.540   9.735  11.958  0.1958  0.1443 -0.0546
14891W        W31075  15.859   0.030   3.569  0.1084 -0.3355 -0.0256
14892W        W31076  15.458  12.781  12.340  0.2711  0.1380 -0.0337
14893W        W31077   9.168  15.196   2.955  0.0198  0.2295 -0.2171
14894W        W31078  18.824   7.342  11.968 -0.0986 -0.2418 -0.0767
14895W        W31079  14.320   2.081  11.769  0.0381 -0.0928 -0.2278
14896W        W31080   6.112   2.479   0.226  0.0526  0.3146 -0.1600
14897W        W31081   3.366   9.694  13.983  0.2881  0.3586  0.2416
14898W        W31082   6.852  10.313  11.395 -0.2195 -0.1624  0.0514
14899W        W31083  10.623   7.312   0.391 -0.2205 -0.3549 -0.0612
14900W        W31084  15.756   5.019   1.762  0.3169 -0.0251  0.0474
14901W        W31085   9.236   0.644   5.187 -0.2072  0.1839 -0.2203
14902W        W31086  12.217  17.914   0.467 -0.0024 -0.0030 -0.0232
14903W        W31087  15.267   9.676  11.856 -0.2087  0.2250 -0.2541
14904W        W31088  14.245  10.634   0.164  0.0561  0.3213 -0.0971
14905W        W31089  12.562  13.090  11.235  0.0582  0.3334 -0.0816
14906W        W31090  12.355   0.391  11.752 -0.2052 -0.2704 -0.2276
14907W        W31091  14.891  12.542  12.968 -0.0529 -0.0729 -0.1153
14908W        W31092  12.139   8.446   1.856  0.2992  0.0002 -0.1067
14909W        W31093  17.985  12.406   2.712  0.1305 -0.1763  0.1882
14910W        W31094  16.651   4.214  14.666 -0.2304  0.0503 -0.2869
14911W        W31095   3.658   8.078   4.281 -0.1957  0.1372  0.1445
14912W        W31096  10.306   8.057  14.508 -0.1369 -0.4628 -0.2116
14913W        W31097  15.802   4.566  13.113 -0.0181 -0.2136  0.1225
14914W        W31098   6.244  18.288   3.838  0.0379  0.0723 -0.1302
14915W        W31099  13.673  15.521   2.052  0.0101  0.3211  0.1272
14916W        W31100  12.566  12.350   3.975  0.2074  0.1140 -0.1289
14917W        W31101   2.258  15.306   2.290  0.0629 -0.0058 -0.0044
14918W        W31102   0.384  17.945   1.375  0.0502 -0.0450 -0.2028
14919W        W31103   9.850  13.615  15.330  0.0121 -0.1740  0.3577
14920W        W31104  17.731   9.632   4.461 -0.1535 -0.2532  0.2035
14921W        W31105   6.382  11.526  11.798  0.0537  0.0916 -0.1267
14922W        W31106  14.792   8.287   5.031 -0.1869 -0.0879  0.0273
14923W        W31107  17.258   9.964   0.846 -0.0685 -0.2418  0.2261
14924W        W31108  11.541   3.073   4.655  0.0691  0.2336  0.0131
14925W        W31109   3.612  11.529  13.953  0.3113  0.0007  0.2161
14926W        W31110  18.416  13.028  10.776  0.1799 -0.0467  0.0221
14927W        W31111  17.320  17.649  13.092 -0.0080 -0.1132 -0.1000
14928W        W31112  15.351  13.222  11.223  0.1377 -0.0549 -0.0542
14929W        W31113   8.417  16.745  11.586 -0.0896  0.1593 -0.2109
14930W        W31114  17.527   6.984  10.718 -0.1291 -0.1807 -0.0726
14931W        W31115   7.583   0.906   0.556  0.1684  0.2285  0.0855
14932W        W31116   1.527  13.921  15.049 -0.2535  0.1989  0.0227
14933W        W31117  13.627   7.242  12.550  0.1878 -0.0464 -0.1271
14934W        W31118   7.925  17.146   4.644  0.2539  0.2471  0.0461
14935W        W31119   1.463   3.610  12.912 -0.0405  0.1556  0.0558
14936W        W31120   1.171  14.179   4.452 -0.2904  0.0848 -0.0857
14937W        W31121   1.561  17.218   2.705  0.3135  0.1438 -0.0255
14938W        W31122  13.524  15.620  12.860  0.0139 -0.1908 -0.3583
14939W        W31123   9.950  14.400  15.341  0.0716  0.1277  0.0032
14940W        W31124   4.045   6.253  12.425  0.0326 -0.1963  0.2600
14941W        W31125   3.452   6.211  13.371  0.2263  0.2871  0.2995
14942W        W31126   1.006   0.531   1.602  0.3465 -0.4107  0.2669
14943W        W31127  13.242   5.917   5.579  0.0567 -0.4091 -0.3445
14944W        W31128   6.260   5.139  12.708 -0.1720  0.0549  0.1269
14945W        W31129  13.615   9.499   4.231 -0.1843 -0.1315 -0.3554
14946W        W31130   5.809  11.854   0.673 -0.0435  0.2221 -0.0814
14947W        W31131  16.021   4.849  12.198  0.2279  0.0131  0.3689
14948W        W31132  15.074  12.471  14.704 -0.0375 -0.3489  0.0145
14949W        W31133  17.610  15.507   1.674  0.2399 -0.3328 -0.1468
14950W        W31134   1.074   7.891  12.637 -0.0991  0.1894  0.0379
14951W        W31135  13.705  14.561   0.699 -0.1485  0.1647  0.1638
14952W        W31136   6.935   6.582  11.680  0.1105 -0.0352 -0.1767
14953W        W31137  16.378  14.971   2.871  0.2021 -0.0111  0.0661
14954W        W31138  11.688   6.749   2.946  0.1990 -0.0632 -0.4578
14955W        W31139  12.143  18.061  15.392  0.0717 -0.2073  0.1277
14956W        W31140  16.895  15.176   9.952  0.1436  0.1516 -0.4110
14957W        W31141  14.167  10.380  12.492  0.0377 -0.1054 -0.2203
14958W        W31142  15.635  12.415  12.058  0.1892  0.3121  0.1923
14959W        W31143  18.013   1.733  13.824  0.1332  0.1978  0.3841
14960W        W31144   4.958   7.669   3.169 -0.0671 -0.1683 -0.0086
14961W        W31145  16.758  10.749   5.291 -0.4344  0.0401  0.1085
14962W        W31146   3.719   3.690   1.245  0.2904 -0.0439 -0.0339
14963W        W31147  12.618   5.815   5.128 -0.1757  0.1703  0.1542
14964W        W31148  15.532  16.193  11.973  0.3198  0.0125 -0.2014
14965W        W31149  11.436   0.957   4.430  0.3553  0.0897  0.2982
14966W        W31150   9.278   0.059  15.397  0.2649 -0.2401 -0.0482
14967W        W31151   5.200   9.337  10.958  0.1800 -0.2823 -0.1881
14968W        W31152   0.854  16.097  12.174 -0.1353  0.3023  0.0243
14969W        W31153   4.555   2.470   2.889 -0.3024 -0.2143  0.0337
14970W        W31154   8.527  13.319  12.343 -0.1034  0.1580  0.1487
14971W        W31155   7.021  14.722   3.455  0.1105 -0.0976 -0.0450
14972W        W31156  12.417   1.357   2.151  0.0439 -0.0529 -0.0090
14973W        W31157   4.367  17.793   2.819  0.2523 -0.1699 -0.0815
14974W        W31158   8.329   2.280   1.234 -0.2688 -0.2640  0.2221
14975W        W31159  15.855   1.892   5.905 -0.1899 -0.2587  0.0598
14976W        W31160   1.081  16.724   5.909 -0.4725  0.5347  0.1903
14977W        W31161   3.130   0.138  12.983  0.0668 -0.0808 -0.0377
14978W        W31162  17.281   6.616   1.830 -0.0050 -0.0296  0.1375
14979W        W31163  11.466   5.230  10.738  0.0798  0.0717  0.3400
14980W        W31164  13.510   7.750   2.986  0.0638 -0.2530 -0.0865
14981W        W31165  18.727  13.707   4.466  0.2580  0.2010  0.2458
14982W        W31166  12.308  12.425  13.549 -0.1466 -0.0030 -0.1435
14983W        W31167  10.769   9.140  13.700 -0.0019  0.2568  0.2678
14984W        W31168  12.335   4.635   1.109  0.4665  0.2064  0.0784
14985W        W31169   1.631   8.600  11.471  0.1521 -0.2358 -0.0722
14986W        W31170   9.518   5.601  15.532 -0.4257  0.2196  0.1627
14987W        W31171   9.525  16.218   0.140  0.2222 -0.1937  0.0690
14988W        W31172  17.202   7.535  13.047  0.0881  0.0731  0.1768
14989W        W31173   2.684  16.624  11.674 -0.1036 -0.1075 -0.0423
14990W        W31174  17.262   1.377   2.430  0.0549 -0.3407  0.1938
14991W        W31175   9.297  11.388   2.423  0.3372  0.2746 -0.3708
14992W        W31176   4.585  17.881  11.224  0.2748 -0.1464  0.2702
14993W        W31177  15.857  17.455   3.505 -0.1133  0.1213 -0.0769
14994W        W31178  17.391  10.117   4.762  0.0022  0.0226 -0.2950
14995W        W31179  13.628  14.382  12.396 -0.0196 -0.1483  0.0232
14996W        W31180  11.372  10.092   0.678  0.1737 -0.2201 -0.0764
14997W        W31181   2.966  13.384   2.469 -0.0130  0.1349  0.1164
14998W        W31182   3.729  18.163  10.574 -0.4172 -0.4647  0.3970
14999W        W31183   5.817   5.480   1.846 -0.0462  0.0489  0.2603
15000W        W31184   1.713   9.771   2.955  0.1232  0.1337  0.2701
15001W        W31185  18.688   6.823   1.048  0.1870  0.2922 -0.1848
15002W        W31186   5.285   4.343   0.429  0.0431  0.0861  0.2124
15003W        W31187  14.093   3.508   2.585 -0.1975  0.0827 -0.1359
15004W        W31188  12.431  13.394   1.052  0.4903  0.0289 -0.0113
15005W        W31189   6.098   8.785  12.959  0.0985  0.4286 -0.0869
15006W        W31190  15.952   9.041   5.024  0.0410 -0.1885 -0.3474
15007W        W31191  14.060  11.208   1.345 -0.3734 -0.1313 -0.0340
15008W        W31192   2.851   5.512  12.154 -0.2500  0.1421  0.0353
15009W        W31193  12.100   8.867  12.101 -0.0112 -0.3653 -0.0666
15010W        W31194   7.068  11.559  12.987  0.1103  0.3293  0.1409
15011W        W31195   8.627   1.939  14.320 -0.2667  0.1487 -0.1076
15012W        W31196   4.639   9.998  13.011  0.1564  0.1902  0.3993
15013W        W31197   8.273  15.049   4.895 -0.2375 -0.0937 -0.0581
15014W        W31198  11.989   5.721  11.710 -0.0489 -0.0586 -0.1873
15015W        W31199  14.250   7.836  12.333  0.0226 -0.0059 -0.0533
15016W        W31200   2.151  18.451   0.943  0.0603 -0.1207  0.2158
15017W        W31201  10.716   8.909  14.702  0.0351  0.1136  0.0259
15018W        W31202  13.335  11.734   4.360 -0.0029 -0.1682  0.1753
15019W        W31203  10.258   5.743  14.269 -0.1807  0.1193 -0.2698
15020W        W31204   3.366   0.304   4.537 -0.5707  0.2649  0.1116
15021W        W31205   0.087   1.329  13.885  0.0817  0.3635  0.2725
15022W        W31206  14.101  16.869   4.507  0.1681  0.0290  0.1178
15023W        W31207  14.497   0.686  12.550  0.2117 -0.3462 -0.0389
15024W        W31208  15.209   3.038  12.665  0.0673  0.0502  0.0860
15025W        W31209  10.032  14.634   0.316  0.1276  0.2156  0.0862
15026W        W31210   9.015  15.453   3.473 -0.1192 -0.1973 -0.1812
15027W        W31211   0.674   5.853   0.288 -0.2571 -0.2704  0.1876
15028W        W31212   6.260   2.130  12.831  0.3697 -0.2476  0.0016
15029W        W31213  12.639   4.967  11.148  0.2203 -0.2396  0.0621
15030W        W31214  11.519   7.179  11.036  0.3451  0.0119 -0.0199
15031W        W31215  12.368   4.100   4.334  0.3715 -0.1569 -0.1712
15032W        W31216   2.534  10.570   0.622 -0.0078 -0.1661 -0.0574
15033W        W31217   9.808  10.855  14.710  0.2392  0.2750  0.2765
15034W        W31218   3.035   9.397  10.919 -0.2732  0.0691  0.0777
15035W        W31219  10.458  10.340   4.183 -0.1471 -0.1310  0.1429
15036W        W31220   7.764   7.391  14.107 -0.2952  0.2224 -0.2359
15037W        W31221   9.900   3.206   1.423  0.0345 -0.4301 -0.0912
15038W        W31222  11.172   3.210   3.779 -0.0039 -0.1811 -0.0159
15039W        W31223  13.889   3.397  11.730  0.1703 -0.1126  0.1405
15040W        W31224  16.823   3.491  11.354  0.0601  0.1119 -0.1442
15041W        W31225   3.911   5.856   1.154  0.1756  0.3206  0.4277
15042W        W31226   9.775   0.212  12.575  0.3448 -0.0188  0.1790
15043W        W31227   4.127   8.151  12.351  0.0842  0.0369  0.0233
15044W        W31228  12.048  11.113  15.425 -0.2355 -0.0813 -0.2057
15045W        W31229   2.336   9.086   1.709 -0.2091 -0.1240 -0.3341
15046W        W31230   7.129   3.585  15.392 -0.1589 -0.0156 -0.3949
15047W        W31231  10.739  16.626   0.824 -0.0321  0.2163  0.1133
15048W        W31232   6.336   8.659  10.881 -0.1219 -0.0337  0.0066
15049W        W31233   6.341   2.868   1.105 -0.2664 -0.3025  0.0242
15050W        W31234  14.569   1.455   0.918  0.0656  0.0163  0.0080
15051W        W31235   2.949   4.567  13.721  0.0344  0.0195 -0.0187
15052W        W31236  18.016  12.907  12.588 -0.0815 -0.2478 -0.3375
15053W        W31237   3.466  15.726   4.473  0.3796 -0.1672 -0.1668
15054W        W31238  15.111  16.341  15.436 -0.1766 -0.1628  0.3641
15055W        W31239  13.620  10.025   4.060  0.1863  0.1065 -0.3105
15056W        W31240  12.550  10.840   3.573 -0.0155 -0.1370 -0.2248
15057W        W31241   5.589   6.907   4.328  0.2128 -0.2244 -0.2367
15058W        W31242   2.229  16.612   3.857  0.0974  0.0346 -0.2830
15059W        W31243  13.453   1.024   2.315 -0.2930  0.1361  0.0430
15060W        W31244  17.747   8.095  13.612 -0.1198  0.0084  0.4074
15061W        W31245   4.398   9.783  11.262  0.0895 -0.2024 -0.3236
15062W        W31246   8.526  17.505   5.736  0.0042  0.0177 -0.4179
15063W        W31247  11.880   3.755   5.406  0.1053 -0.1933 -0.0739
15064W        W31248   4.915   0.883   4.908 -0.2762  0.0223 -0.0518
15065W        W31249   7.420   1.175  13.635 -0.0416 -0.1026  0.0543
15066W        W31250   8.698  17.217   4.866  0.0136 -0.0553  0.1685
15067W        W31251   7.533   5.349  13.696  0.3375 -0.0937 -0.1589
15068W        W31252   1.061   3.193  14.568  0.0818  0.0922  0.2513
15069W        W31253   7.638  15.762  14.312  0.3083 -0.0455 -0.3019
15070W        W31254   8.951  14.480   4.882  0.0364 -0.1759 -0.0852
15071W        W31255   6.536   0.271  12.362 -0.0983  0.0259 -0.2562
15072W        W31256  13.367  10.749  15.169  0.0370 -0.2042 -0.0747
15073W        W31257   6.549   5.130   1.311  0.1724 -0.0271 -0.3639
15074W        W31258  13.374   8.005   1.570  0.0960 -0.0420  0.0635
15075W        W31259  16.444  16.928   3.961 -0.1561  0.2337 -0.1188
15076W        W31260   5.289   8.066  12.321  0.0475 -0.3147  0.0901
15077W        W31261   8.906  10.733  12.388  0.2405  0.2720 -0.2840
15078W        W31262  16.394   2.045   3.732 -0.1826  0.0278  0.2618
15079W        W31263  11.237   3.310   4.314 -0.1220  0.2139 -0.0816
15080W        W31264   7.846   6.438   9.392 -0.0976  0.0875 -0.0578
15081W        W31265  15.445   5.485  12.562  0.0370 -0.0115 -0.0514
15082W        W31266   9.356   9.541   2.298  0.1271 -0.3259  0.2278
15083W        W31267   0.622  10.365  10.728 -0.1472  0.0824  0.1047
15084W        W31268  17.278  16.545   4.096  0.0788  0.0358 -0.4273
15085W        W31269  13.619   2.381   5.891  0.1292  0.0034 -0.0999
15086W        W31270   3.185   0.791   3.803 -0.0187  0.3896  0.1386
15087W        W31271   1.588   8.705   3.658  0.0046 -0.1729  0.1833
15088W        W31272   0.644  16.308  11.381  0.1478  0.3289 -0.1156
15089W        W31273  17.454  15.971  12.109  0.2842  0.3190  0.2717
15090W        W31274   6.045  11.398   4.084  0.0635  0.0699 -0.2823
15091W        W31275  13.933   5.255  14.977 -0.3346  0.0335 -0.1071
15092W        W31276   0.883  13.336   4.211  0.1065 -0.0402 -0.0375
15093W        W31277   7.667   5.787   5.304 -0.0417 -0.0251 -0.0791
15094W        W31278   8.747   5.202  13.953 -0.0715  0.0702  0.3542
15095W        W31279   8.477   7.731   3.665  0.0471  0.0673  0.2084
15096W        W31280   0.477  10.870  14.277 -0.1526  0.3180 -0.0264
15097W        W31281  13.533  10.507   0.724 -0.2041 -0.2886 -0.1790
15098W        W31282  10.680  14.426   3.563 -0.0781 -0.1374  0.1259
15099W        W31283   8.709  16.745  13.708  0.2093 -0.0376  0.0476
15100W        W31284  11.458   5.927   2.262  0.3503 -0.0553 -0.0843
15101W        W31285   1.939   5.439  13.983 -0.0688  0.0911  0.3802
15102W        W31286   9.928  11.216   5.019 -0.0584  0.0190  0.1373
15103W        W31287   0.272  16.693   4.745  0.1950  0.1251 -0.2266
15104W        W31288  17.655   0.091  14.038  0.0270  0.1196  0.1743
15105W        W31289   0.864   1.456   4.989  0.0150 -0.0756 -0.0223
15106W        W31290  15.825   1.991   0.374  0.1161  0.3494 -0.0387
15107W        W31291   9.969   1.377   4.399 -0.1848  0.4102  0.1256
15108W        W31292   3.964   9.295  12.880 -0.4531 -0.0219  0.1120
15109W        W31293   0.720  14.759  14.577 -0.3769 -0.0156  0.3118
15110W        W31294  13.449  18.314   0.124  0.0512 -0.0524 -0.0187
15111W        W31295   7.099   1.058   0.247 -0.1967 -0.0593  0.4230
15112W        W31296   1.673  11.697   9.790  0.0442 -0.3154  0.0468
15113W        W31297   0.709   7.434   0.160 -0.1432  0.0925  0.0311
15114W        W31298   8.788   0.740   0.807  0.0699  0.3009  0.2057
15115W        W31299  15.163  16.808  13.766 -0.1532  0.1966  0.1609
15116W        W31300   2.006   9.562  11.813  0.0767 -0.4048  0.0672
15117W        W31301  15.560   1.463  11.651 -0.1399  0.3818  0.1405
15118W        W31302  16.734  15.426  11.565  0.1623  0.1442  0.1242
15119W        W31303  16.967  15.220   3.938 -0.0163  0.2047 -0.4720
15120W        W31304  12.011   9.420  13.348  0.2800  0.0221 -0.0949
15121W        W31305  18.327   4.187  15.367 -0.0698 -0.1771  0.0140
15122W        W31306   9.436  15.314  13.704 -0.3419  0.1191 -0.2017
15123W        W31307  13.525   8.648   4.689  0.1389  0.1117 -0.0358
15124W        W31308  10.997  18.517  13.711 -0.3141 -0.2596  0.0729
15125W        W31309   5.508   7.991  11.782 -0.2372 -0.2300 -0.1071
15126W        W31310   7.832  17.325  11.660 -0.0903  0.1103  0.0063
15127W        W31311   4.504   0.731  14.559 -0.2278 -0.1231  0.0926
15128W        W31312  14.735  12.722   0.527 -0.0657  0.0463  0.2786
15129W        W31313  18.243   2.455  14.903  0.1201  0.4366 -0.2989
15130W        W31314  13.768   6.752   0.635 -0.0589  0.0556  0.2619
15131W        W31315   9.972   7.885   3.665 -0.0770 -0.2241  0.0074
15132W        W31316  18.316  12.061  14.514  0.1032 -0.0219  0.1789
15133W        W31317   1.651  14.444   3.931 -0.0642 -0.1863  0.1273
15134W        W31318  12.374   6.734   0.589 -0.1144  0.2063  0.2585
15135W        W31319  17.033  13.147  11.381  0.1771  0.3807 -0.0274
15136W        W31320   9.267  14.203  11.969 -0.3558 -0.1895  0.0094
15137W        W31321  12.964   4.185  13.292 -0.1935  0.1288 -0.1179
15138W        W31322   3.003   2.473  13.049  0.3647  0.0595 -0.2664
15139W        W31323   2.795  12.425   0.854 -0.1321  0.1211 -0.2914
15140W        W31324   7.241  13.802   4.195 -0.1044  0.3913  0.5096
15141W        W31325   2.508  17.333  12.250  0.1300 -0.1007  0.3280
15142W        W31326   6.411  14.918   5.826 -0.1636  0.1362 -0.0582
15143W        W31327  12.776   6.206  12.133  0.0885 -0.0337  0.1489
15144W        W31328   5.665  11.960   5.350 -0.1384  0.0786  0.1463
15145W        W31329   0.724  13.973  14.138  0.1204 -0.0329  0.0400
15146W        W31330   3.454  11.728  12.980  0.0528  0.1537  0.3224
15147W        W31331  13.232  14.409   0.409 -0.0994  0.0815  0.1841
15148W        W31332   1.301   2.501   3.211 -0.0903  0.0617  0.0726
15149W        W31333  13.009  12.514  11.449 -0.2681  0.0853 -0.2284
15150W        W31334  10.215  15.050   2.251  0.3529 -0.1122  0.0126
15151W        W31335   6.950   7.931   4.105  0.1935 -0.2112 -0.0643
15152W        W31336   8.050   0.664  11.755 -0.2270 -0.3972  0.1752
15153W        W31337   1.065  14.797  10.887 -0.0958  0.0767 -0.2751
15154W        W31338   1.160   7.942  11.859 -0.2426  0.1415  0.2020
15155W        W31339   4.076   6.027   3.418 -0.0886 -0.1047 -0.1022
15156W        W31340   3.374   4.638   1.913 -0.1995 -0.0063 -0.0944
15157W        W31341  11.432   5.191   4.382 -0.1245  0.1069 -0.1569
15158W        W31342   5.670  17.429  11.849 -0.1839 -0.0328 -0.0933
15159W        W31343  13.324   5.453   9.846 -0.0025  0.1431  0.0004
15160W        W31344  18.453  17.063   1.960 -0.1755 -0.2955  0.1841
15161W        W31345   7.591  13.806  10.167 -0.2048 -0.3842  0.2056
15162W        W31346  11.970   2.510   1.746 -0.4253  0.1965  0.1829
15163W        W31347   5.432   4.742  10.868 -0.0104 -0.0033 -0.0750
15164W        W31348   5.450   7.101  13.424 -0.0716  0.4828  0.0237
15165W        W31349   0.935  14.381   4.032 -0.4051  0.1874  0.0127
15166W        W31350   9.667  10.252  11.665 -0.2653 -0.2630 -0.1033
15167W        W31351  16.034   1.434   5.778 -0.3269  0.0293 -0.1227
15168W        W31352  11.121  12.076  15.073  0.0908  0.2043 -0.1768
15169W        W31353  10.989  11.196  14.210 -0.2861  0.3409  0.1199
15170W        W31354   5.116  14.961   1.866  0.1480 -0.1887 -0.0090
15171W        W31355  16.078   5.602   5.361  0.1940 -0.3422 -0.4882
15172W        W31356  10.644   9.783   1.775 -0.5053 -0.0300 -0.1961
15173W        W31357  16.487  10.375   4.211  0.0370  0.2978 -0.2455
15174W        W31358   4.960  12.422   1.144 -0.2650 -0.1015 -0.0987
15175W        W31359  10.441  10.814  13.397 -0.1544 -0.0480 -0.0645
15176W        W31360   1.556  15.565   0.051 -0.0499 -0.2249 -0.3285
15177W        W31361  10.777  16.726   5.070  0.1560  0.3220 -0.1825
15178W        W31362   9.176  14.853  11.982 -0.0716 -0.1255  0.0282
15179W        W31363   3.906   4.586  10.503  0.1201  0.0896  0.0162
15180W        W31364  15.922  12.856   5.321  0.2661  0.0665 -0.1294
15181W        W31365  12.058  10.213   2.118  0.2623  0.1385  0.0491
15182W        W31366   0.343  18.070   3.023 -0.0061  0.2201 -0.5046
15183W        W31367  13.552   6.720   4.653 -0.0685  0.2829 -0.0493
15184W        W31368  18.464   9.337  13.773  0.2412 -0.0926 -0.0172
15185W        W31369  11.776   3.306  14.696  0.0755  0.1979 -0.0421
15186W        W31370  12.204  18.013  13.175  0.0236 -0.0171  0.0272
15187W        W31371   5.546  14.239  11.252 -0.2288 -0.2719 -0.2902
15188W        W31372   1.880   2.032   0.929 -0.0989 -0.0620 -0.2341
15189W        W31373  12.240   7.760  14.687 -0.1176 -0.1293  0.1007
15190W        W31374  14.699   3.197   1.539 -0.1341 -0.3651  0.2306
15191W        W31375  15.625   6.660  15.174 -0.2484 -0.2385  0.0101
15192W        W31376  16.172  11.768  11.555 -0.2336 -0.0001  0.1609
15193W        W31377  16.115   7.324  12.572 -0.1430  0.0063  0.2935
15194W        W31378   2.880   1.016  13.629  0.0795  0.0786  0.0415
15195W        W31379   4.869   4.642   2.189 -0.0101  0.1636 -0.3391
15196W        W31380  14.648   9.849  15.473  0.2773  0.3729 -0.1244
15197W        W31381   1.890   0.109  10.783 -0.1364  0.2273 -0.0369
15198W        W31382   3.215  14.945   4.688 -0.1512  0.1435 -0.0137
15199W        W31383  15.840   1.269   3.212 -0.0784  0.2293  0.1764
15200W        W31384   2.641  11.430   3.434 -0.0800 -0.0065 -0.5457
15201W        W31385   2.652   0.253  15.371  0.3617 -0.3297 -0.1965
15202W        W31386   3.890   7.620   3.536  0.3124 -0.0717 -0.3049
15203W        W31387  15.702   7.574   0.774  0.0018 -0.1468 -0.2435
15204W        W31388   6.904  16.577   3.947  0.0219  0.0077 -0.0221
15205W        W31389   0.092   2.063  15.350  0.2092  0.2415 -0.1615
15206W        W31390  18.287   4.134  12.630 -0.3646  0.3554 -0.1606
15207W        W31391   7.477   7.227  12.344  0.1131 -0.1545  0.0726
15208W        W31392   1.692  16.855  11.768 -0.2756  0.2437  0.0332
15209W        W31393   0.391  12.469   5.696  0.0345  0.0367 -0.0345
15210W        W31394   0.865   5.070   4.754  0.2706  0.0944 -0.2302
15211W        W31395   5.881   6.738   1.232 -0.0754 -0.2480 -0.0880
15212W        W31396  11.415  16.046  13.304 -0.2929  0.4139 -0.1280
15213W        W31397  10.208   7.940  15.534  0.3368 -0.0378  0.0935
15214W        W31398   4.332   2.144  13.394 -0.0496 -0.0568  0.0747
15215W        W31399   8.820   6.235  10.580 -0.0763  0.1389 -0.1382
15216W        W31400  10.774   0.552   2.876 -0.0526 -0.0168  0.1878
15217W        W31401   3.780  11.555  14.437 -0.0862 -0.3352  0.0029
15218W        W31402  15.065   1.547   3.117  0.1719 -0.1129  0.1244
15219W        W31403   9.616   0.338  15.163 -0.0276 -0.2355 -0.1330
15220W        W31404   3.459  11.514  13.455  0.1349  0.1510 -0.2634
15221W        W31405   5.852   2.523   2.397 -0.1866 -0.1752  0.0659
15222W        W31406   3.360   8.774   2.728 -0.3300  0.1786  0.0143
15223W        W31407   5.585  15.210   3.534 -0.1373 -0.1515 -0.1088
15224W        W31408  16.008   4.364   2.444 -0.1760 -0.0785  0.1552
15225W        W31409   0.106   6.787  12.044 -0.1771  0.3439  0.2069
15226W        W31410   2.147   2.312   1.859 -0.1158  0.0018 -0.0656
15227W        W31411  11.394   5.086   0.361 -0.1528  0.0233  0.0975
15228W        W31412  17.501  10.525  14.458  0.2600  0.0300  0.0255
15229W        W31413  17.001  10.022  12.045 -0.0610  0.1099  0.0556
15230W        W31414   2.413  17.099   4.055 -0.3259  0.4501  0.0430
15231W        W31415   1.553  10.178  13.842 -0.0021 -0.3009  0.0112
15232W        W31416  14.954   4.326   4.316 -0.0203 -0.3225 -0.1143
15233W        W31417  15.339  14.019   4.227 -0.2350  0.0149  0.0035
15234W        W31418  17.679  14.978   2.526 -0.0071  0.0966 -0.2694
15235W        W31419  10.346   3.899  14.496  0.0169 -0.0166  0.0039
15236W        W31420  13.118   1.281   4.978 -0.1671 -0.0976  0.1228
15237W        W31421  10.815  16.146   3.048 -0.0148  0.2657  0.1011
15238W        W31422  14.757   8.480   3.452 -0.1831  0.0846  0.2322
15239W        W31423   0.606   2.039   4.419 -0.0723  0.1261 -0.2452
15240W        W31424  17.014   7.887  12.758  0.0517  0.4421  0.1889
15241W        W31425  18.625   5.929  10.549  0.3430 -0.1572 -0.1346
15242W        W31426  15.050  17.844   3.340 -0.0930  0.1581  0.1483
15243W        W31427  10.718   4.035  11.342 -0.1341 -0.0555 -0.1513
15244W        W31428  12.862   0.175   4.053 -0.1275  0.0261 -0.3237
15245W        W31429  14.676   6.269   1.096  0.2150  0.1359 -0.0558
15246W        W31430   7.166  11.672  11.243 -0.0636  0.1303  0.2914
15247W        W31431  12.199   3.281  12.213 -0.0954 -0.1069  0.1634
15248W        W31432   0.603   6.049  10.670 -0.0648 -0.3585  0.1695
15249W        W31433  15.102   3.387   1.034  0.2258 -0.1191 -0.1475
15250W        W31434   5.841  11.155   5.066  0.4206 -0.0652 -0.0879
15251W        W31435   1.698   1.430   5.390  0.2673 -0.1561  0.1554
15252W        W31436  12.334   3.744  11.314 -0.3302 -0.0311  0.0702
15253W        W31437  14.373  15.812   0.831 -0.0280 -0.0300 -0.2302
15254W        W31438   9.705   6.079  13.113 -0.0752  0.1943  0.3738
15255W        W31439   1.936   4.455  13.291  0.2611 -0.2188  0.2685
15256W        W31440   0.854  14.661  11.693  0.0925  0.0521  0.3965
15257W        W31441  11.679   1.002  12.205  0.1682  0.1354 -0.1279
15258W        W31442  15.429   6.439  13.997 -0.0514 -0.0469 -0.1163
15259W        W31443  12.497   5.818  12.396 -0.0456 -0.0501  0.0255
15260W        W31444  16.814   3.018   3.002  0.2675 -0.1975 -0.3983
15261W        W31445  12.650   2.306   4.011 -0.1799 -0.3391 -0.1988
15262W        W31446  18.743   7.977  14.105  0.0454  0.0559 -0.5575
15263W        W31447  16.658   8.301   4.061 -0.1172 -0.4404  0.1809
15264W        W31448   4.048   1.102   0.417 -0.0374 -0.1943  0.0670
15265W        W31449   0.184  10.249   4.292 -0.0172 -0.1213 -0.0893
15266W        W31450   7.243  14.379  13.915 -0.1158 -0.0064 -0.2283
15267W        W31451  12.206  13.384  12.141 -0.2573  0.3389 -0.0295
15268W        W31452  15.009   1.919  10.703  0.2469  0.1557 -0.1476
15269W        W31453  14.296   2.584   0.686  0.2648 -0.0279  0.0837
15270W        W31454  14.000  15.343   1.657 -0.1763 -0.1200 -0.1520
15271W        W31455  15.903  18.170   1.412 -0.1839  0.3162 -0.1422
15272W        W31456  16.574  11.127  15.212 -0.0124 -0.0019  0.0376
15273W        W31457  12.895   9.783  11.880  0.1030 -0.1834 -0.1068
15274W        W31458  15.881  10.577  11.532  0.5643 -0.1055  0.2919
15275W        W31459   7.475   4.165  11.636 -0.0896  0.0628 -0.0463
15276W        W31460  14.739  16.304   3.173  0.0663  0.0924 -0.0149
15277W        W31461   9.582   8.568  12.971 -0.2596  0.1870 -0.4020
15278W        W31462  10.133  11.737   2.730  0.1201  0.2196  0.1274
15279W        W31463  10.987   6.215  15.140 -0.0285  0.0914 -0.1401
15280W        W31464   1.991  14.842   4.007  0.2968 -0.2923 -0.2187
15281W        W31465  15.104   5.658  14.543  0.2088  0.2106 -0.0628
15282W        W31466  15.929   0.601  12.559  0.4222 -0.0995 -0.1133
15283W        W31467   1.435  17.307  15.512  0.0646 -0.1847  0.1251
15284W        W31468  14.157   7.002   2.269 -0.0204  0.2425 -0.0464
15285W        W31469   2.473   1.487   4.865 -0.1580 -0.1035  0.3906
15286W        W31470  15.086  10.051   4.332 -0.0189 -0.1714  0.0141
15287W        W31471  11.566   8.428  11.956 -0.1271 -0.1283  0.2076
15288W        W31472  15.925  13.659  14.462  0.2095  0.4870  0.0304
15289W        W31473   8.284   3.123   0.382 -0.0875 -0.1167 -0.1969
15290W        W31474   4.071  18.615   4.599  0.0446  0.1346 -0.5225
15291W        W31475  11.304   1.823   3.251 -0.2294  0.0999  0.1912
15292W        W31476   9.163   4.220  11.842  0.1969 -0.2034 -0.0306
15293W        W31477  17.682  16.020  13.018 -0.2290 -0.0689  0.1132
15294W        W31478  11.819   2.245  15.270 -0.0677 -0.2298 -0.1145
15295W        W31479  13.808  11.820   4.858 -0.0694  0.0258  0.3971
15296W        W31480  15.610  16.455  15.515 -0.1130  0.0073 -0.1102
15297W        W31481   3.810  15.237   2.167  0.2214 -0.0011 -0.0534
15298W        W31482   3.539  11.269  12.861  0.0139  0.2904  0.0881
15299W        W31483   3.619  16.820   4.193  0.1289  0.0064  0.0754
15300W        W31484  12.871  10.263  11.132  0.0792 -0.3578  0.3983
15301W        W31485  17.282   0.121  13.547  0.2283  0.3090 -0.1218
15302W        W31486  16.755   2.395   3.805  0.0392  0.2843  0.0902
15303W        W31487  13.982  14.152   5.046  0.2816 -0.4497  0.2350
15304W        W31488  14.330  16.237   5.139  0.0720 -0.3259  0.0064
15305W        W31489   9.694   1.835  14.465 -0.0886 -0.0827  0.1136
15306W        W31490  10.316   2.197  12.364  0.2817  0.2170  0.1072
15307W        W31491   4.128  18.033   0.098  0.2714  0.2551  0.2861
15308W        W31492   9.830  15.361  12.252 -0.1363 -0.0816 -0.0278
15309W        W31493  12.091   1.420  14.666 -0.0252 -0.3018  0.2668
15310W        W31494   4.123   9.072  14.014  0.1263 -0.1394 -0.2281
15311W        W31495  17.913  15.963   2.615  0.3228 -0.0520  0.0176
15312W        W31496  12.897  12.925  11.709 -0.1162 -0.1452  0.1826
15313W        W31497   9.966  17.049  10.753  0.2576 -0.2345 -0.0960
15314W        W31498   9.322   5.567  12.080  0.1233 -0.1144  0.1014
15315W        W31499  16.424   6.928   1.293 -0.3897  0.2869 -0.0382
15316W        W31500  13.818  16.146  12.797 -0.0061  0.3402  0.0471
15317W        W31501  12.682   8.902   3.993 -0.0599 -0.0892 -0.5640
15318W        W31502  17.142   0.260  13.973  0.0395  0.1082  0.0759
15319W        W31503   5.522   4.141  13.442 -0.2453 -0.0465 -0.2350
15320W        W31504  18.510   0.056  10.845 -0.1575  0.2104 -0.1333
15321W        W31505  13.300  18.416  14.439 -0.0951 -0.3853 -0.0688
15322W        W31506  18.669   2.531   4.655  0.4551  0.0532 -0.3737
15323W        W31507   4.354  18.090  14.574  0.2244  0.3043 -0.1692
15324W        W31508  10.576  18.252  15.246  0.1922  0.1678  0.0564
15325W        W31509   6.140   3.406  14.811  0.3542  0.1202  0.1560
15326W        W31510   9.020   4.046   2.855 -0.0027  0.1431 -0.1389
15327W        W31511  14.345  14.345   4.017 -0.0815  0.0890 -0.0757
15328W        W31512  11.463   1.894   3.955 -0.0874  0.0355  0.0197
15329W        W31513  10.955   9.208  11.352  0.0438 -0.0823  0.4122
15330W        W31514  14.785  10.302   1.983  0.0250 -0.2006  0.0286
15331W        W31515   9.987   2.055  11.526 -0.0296  0.2168 -0.0357
15332W        W31516  17.986   0.518  14.421  0.2187 -0.0876  0.2066
15333W        W31517   4.234  10.249  13.080  0.0482 -0.2431 -0.0281
15334W        W31518   4.377   5.611  13.443  0.0432  0.1860  0.1099
15335W        W31519   3.092  10.714  10.524  0.0056 -0.2947  0.0576
15336W        W31520  11.401  16.871   1.393 -0.4977 -0.4616 -0.1079
15337W        W31521   8.228  17.322   2.569  0.0518  0.0746 -0.0045
15338W        W31522  11.881   8.376   3.199 -0.2601 -0.3032  0.1244
15339W        W31523  15.669   9.892   1.969  0.0081 -0.0533 -0.0562
15340W        W31524  13.682  16.589   0.481  0.1074 -0.0967  0.3411
15341W        W31525   9.935  16.585   5.251  0.0068 -0.3095  0.0072
15342W        W31526   9.018   8.836   4.110 -0.2458  0.0373 -0.0782
15343W        W31527   3.258   6.446  15.125  0.1236 -0.0924 -0.0854
15344W        W31528   6.430   4.250   0.949  0.2728 -0.1227 -0.3126
15345W        W31529   0.075   9.473   1.552  0.1317 -0.0462  0.1770
15346W        W31530  12.625   1.324  14.202  0.1333 -0.1034 -0.2629
15347W        W31531   2.526  17.431  11.344 -0.0505  0.0157 -0.1418
15348W        W31532  14.706  16.453  12.601 -0.0663  0.1434 -0.0594
15349W        W31533   1.093  16.553  14.743 -0.1550  0.0742 -0.2216
15350W        W31534  15.224  16.109  13.857  0.0786 -0.5109 -0.3110
15351W        W31535   8.392   7.966   3.173  0.1132  0.1705  0.0585
15352W        W31536   1.626  14.694  10.960  0.0449  0.0253  0.1916
15353W        W31537   4.701  15.933  12.832 -0.0208 -0.0053  0.0796
15354W        W31538   0.306   7.075  12.757 -0.3089 -0.1373  0.3642
15355W        W31539   2.211  14.107   4.896 -0.3583  0.1095  0.0214
15356W        W31540  10.597   9.387  12.352 -0.0168 -0.1460  0.2306
15357W        W31541   2.880   4.371   4.855 -0.1167 -0.1252  0.3360
15358W        W31542   7.053   0.700   1.122 -0.0083  0.4158  0.1757
15359W        W31543  16.724  11.137  14.707 -0.0603  0.0820 -0.0237
15360W        W31544   2.785   5.558  15.234  0.3740  0.1063 -0.0541
15361W        W31545   9.299   9.935   1.385  0.1074 -0.0101  0.1557
15362W        W31546  15.944  13.108   3.455  0.0395 -0.3562 -0.1219
15363W        W31547   6.180  15.770  11.149  0.1140 -0.0721  0.0019
15364W        W31548   8.587  11.147  12.440  0.2416  0.0095  0.2185
15365W        W31549  18.771   8.189   0.427 -0.2859 -0.1642  0.1111
15366W        W31550  13.358  14.328   5.028  0.1459  0.0438  0.3322
15367W        W31551   8.561  17.377  12.597  0.1407 -0.2282 -0.1480
15368W        W31552   1.314   6.392   1.292  0.0253  0.2286 -0.0800
15369W        W31553  13.702   9.738   2.754  0.1353 -0.1889 -0.1324
15370W        W31554   2.914   1.301   1.453 -0.0447 -0.1786  0.3976
15371W        W31555   5.950  13.561   3.423 -0.3444  0.0334 -0.2709
15372W        W31556   1.508   8.359  14.819 -0.0199  0.0717 -0.3812
15373W        W31557  11.579   9.056  14.695  0.0846 -0.3624 -0.2334
15374W        W31558  13.589  16.257  11.488 -0.0794 -0.0629  0.2984
15375W        W31559  11.881   4.290  14.580  0.3382  0.1349  0.1435
15376W        W31560   7.611  13.954  11.021 -0.1414  0.0709 -0.1468
15377W        W31561   4.603   4.281   5.658 -0.0449 -0.1234 -0.1954
15378W        W31562   9.569   5.129  14.572 -0.3552 -0.1547 -0.1901
15379W        W31563   4.181  10.750   0.023 -0.1285  0.0687 -0.0475
15380W        W31564   7.971   2.649   4.699  0.1390 -0.5256 -0.0745
15381W        W31565   9.247   2.722   2.570  0.3111  0.1741 -0.2187
15382W        W31566  14.224   1.779   5.176  0.1826 -0.0511 -0.0180
15383W        W31567  17.671   4.560  11.894 -0.0093 -0.0376 -0.0572
15384W        W31568   4.096   1.821   2.255  0.1900  0.1329 -0.2533
15385W        W31569   8.842   0.800  14.933  0.1488  0.0618  0.1701
15386W        W31570   0.055   0.564   4.396 -0.0976 -0.0733  0.5024
15387W        W31571   2.721   2.835   3.315  0.0174 -0.2214  0.3286
15388W        W31572   5.151   5.201  13.611  0.1914  0.2526  0.1987
15389W        W31573  16.165   5.492   0.442  0.2603  0.1466  0.0529
15390W        W31574  13.711   4.823   1.725  0.1763  0.3309  0.2087
15391W        W31575  10.445   6.793   1.240  0.0055 -0.2766  0.3356
15392W        W31576  18.360   0.470  14.112  0.0543  0.3008 -0.1887
15393W        W31577  14.977  14.575   1.099 -0.1303  0.3279  0.2842
15394W        W31578  17.207   9.604   4.477  0.0545  0.1027 -0.3643
15395W        W31579   6.738  13.805  12.794  0.2304 -0.0394  0.0438
15396W        W31580  10.156  14.360  11.931  0.0555  0.0890 -0.1294
15397W        W31581  13.080  15.664   0.651 -0.3562 -0.0792  0.1848
15398W        W31582  16.196  15.458  11.641 -0.0983  0.1670  0.1679
15399W        W31583   4.721   3.633   5.500  0.1725 -0.0449 -0.0342
15400W        W31584   6.620  16.184  11.213 -0.3101  0.1208 -0.0576
15401W        W31585  11.888   0.744  15.178  0.0489  0.1331 -0.1319
15402W        W31586   7.492   6.892   2.979 -0.0952  0.0377 -0.2429
15403W        W31587   6.787  13.092   4.189 -0.0732  0.0511  0.0189
15404W        W31588  11.629  13.260  14.934 -0.3194 -0.2952  0.0934
15405W        W31589  13.284  12.110  14.973 -0.2416 -0.0136  0.1330
15406W        W31590   2.626  13.158   2.187 -0.0510  0.5066  0.1206
15407W        W31591   9.803   3.490  15.282  0.2208 -0.0802  0.3738
15408W        W31592  15.525   8.066   0.585 -0.1610  0.0960  0.0405
15409W        W31593  13.953   6.315   5.357  0.0105 -0.1347  0.0110
15410W        W31594   8.377   8.646   2.693 -0.2904 -0.2213  0.3915
15411W        W31595  14.120  12.426  14.802  0.0114  0.0521 -0.0825
15412W        W31596   6.113   5.003  12.184  0.1746 -0.1373  0.0850
15413W        W31597  16.884  15.973   0.134  0.1211  0.0491 -0.1544
15414W        W31598   6.618  11.877   1.367  0.2599  0.1094 -0.1901
15415W        W31599  16.008  13.166  14.317  0.1967 -0.2603  0.1693
15416W        W31600   0.655  14.940   9.509 -0.0804  0.4165  0.0464
15417W        W31601  11.073  18.334  12.253  0.1634 -0.1007 -0.3956
15418W        W31602  15.920  15.005  11.723  0.0034 -0.0299  0.1698
15419W        W31603   3.922  17.201  15.476 -0.0149 -0.3613 -0.0293
15420W        W31604  17.275   6.571  11.028  0.0328 -0.0808 -0.3475
15421W        W31605  18.478   1.183  12.567  0.1920  0.1963 -0.0605
15422W        W31606   8.032   5.688  15.026  0.2334  0.1097  0.0905
15423W        W31607  14.428   8.266   4.446  0.0599 -0.2188 -0.2788
15424W        W31608  18.438   2.094   0.861  0.0120 -0.0653 -0.0593
15425W        W31609  15.165   1.607   5.791  0.0454 -0.2019 -0.1116
15426W        W31610   4.163  15.397   3.291 -0.3031 -0.1929  0.1215
15427W        W31611  11.088  14.920   2.455 -0.0718 -0.1354 -0.2121
15428W        W31612   8.041  10.577  11.940 -0.2573  0.0160  0.0529
15429W        W31613   6.882  16.688   5.490 -0.1561  0.1280  0.0282
15430W        W31614  14.989  18.789  11.657  0.2448  0.2325  0.0158
15431W        W31615   4.850  14.300  12.321 -0.2337  0.0649  0.1782
15432W        W31616   0.001   6.706   3.909  0.0690 -0.1851  0.2304
15433W        W31617  13.973  17.836  11.896  0.2673  0.1136 -0.0372
15434W        W31618  10.318   3.904   4.502 -0.2220  0.1441 -0.2177
15435W        W31619   9.748   3.295   4.390 -0.0219 -0.0631 -0.1306
15436W        W31620   5.540  14.992  10.780  0.0169  0.2921 -0.1983
15437W        W31621  17.998  12.346  14.789  0.2637 -0.2556 -0.2291
15438W        W31622   4.473  16.734   0.251  0.2701 -0.1320  0.3559
15439W        W31623  11.317  11.289  13.037 -0.0998 -0.1765  0.1363
15440W        W31624   1.898   8.760   5.043 -0.0208  0.1315 -0.0389
15441W        W31625  15.235  10.462   2.171 -0.0691  0.1372 -0.0686
15442W        W31626   6.357  14.115   1.713 -0.3586  0.0095  0.1199
15443W        W31627   8.097  17.048   1.535  0.2379 -0.0837 -0.1572
15444W        W31628  11.375   9.989   0.159 -0.2248 -0.1222  0.3555
15445W        W31629  13.094   4.998  13.457 -0.0609 -0.2446  0.1096
15446W        W31630   9.772   7.136  11.121 -0.0153  0.0531  0.0453
15447W        W31631   4.187   2.693   1.649 -0.1453 -0.2536 -0.0378
15448W        W31632  17.750   8.634   0.941  0.1461  0.1570 -0.2272
15449W        W31633  12.988  14.620  11.139 -0.1961 -0.1823 -0.0486
15450W        W31634   5.741   2.226  14.408 -0.0428 -0.1755  0.1221
15451W        W31635   7.660   1.598  14.888 -0.3507  0.0195 -0.0472
15452W        W31636   6.535   9.201  10.680 -0.5527  0.0531  0.0942
15453W        W31637   2.858   7.662  15.177 -0.3631  0.0289 -0.0512
15454W        W31638   1.463  14.850   1.508  0.0171  0.4742 -0.1657
15455W        W31639   1.076  16.965  15.167 -0.1436  0.3600  0.3461
15456W        W31640  13.479  15.932  14.135 -0.0181  0.2821 -0.1293
15457W        W31641  16.548  11.600  12.211  0.2421 -0.1173  0.1110
15458W        W31642  13.682   5.070  11.193 -0.4086  0.1197 -0.1788
15459W        W31643   3.574   4.813   4.402 -0.0286 -0.2827  0.2595
15460W        W31644  12.334  14.369  11.156 -0.2188  0.1809 -0.1545
15461W        W31645  12.303   1.243  11.649 -0.0089 -0.0614 -0.1331
15462W        W31646  16.297  17.133   3.317  0.0736 -0.2222  0.1981
15463W        W31647  11.431   3.679   0.019  0.1659 -0.1375  0.0212
15464W        W31648  17.993   7.357  13.501  0.3747 -0.3486 -0.1851
15465W        W31649   4.357   1.897   5.132  0.2624  0.0871 -0.2865
15466W        W31650  10.138  10.625  10.407  0.0637 -0.2113  0.2501
15467W        W31651   1.276  18.173  12.521 -0.0317  0.0495 -0.0270
15468W        W31652   9.502  13.390   0.078 -0.0855  0.2195 -0.0536
15469W        W31653   1.687   9.300   0.742 -0.1037 -0.1160  0.4012
15470W        W31654   5.768   2.066  13.073  0.1303  0.0511  0.0156
15471W        W31655  15.842  11.226   0.822 -0.1610 -0.0885  0.0444
15472W        W31656   3.702  10.620   0.169 -0.0406  0.1881 -0.1472
15473W        W31657   0.973  11.524  12.671  0.1429  0.1874  0.0004
15474W        W31658  12.002  16.188  14.148 -0.1268 -0.0722  0.1453
15475W        W31659   4.265  18.630  11.808  0.3879 -0.2322 -0.0900
15476W        W31660   0.620   1.051  11.492  0.2459 -0.0049  0.1168
15477W        W31661  10.460  12.583   2.553 -0.0003 -0.0540  0.0460
15478W        W31662  13.943  10.621  11.228  0.0358  0.2699 -0.0956
15479W        W31663   4.672   8.252   2.790 -0.1497  0.1296 -0.0785
15480W        W31664  17.248   3.303   2.839 -0.3655 -0.0621  0.0305
15481W        W31665   9.112   0.007  14.427  0.2342  0.3679 -0.2068
15482W        W31666   6.820  14.682  15.090 -0.0446  0.3923 -0.2228
15483W        W31667  13.118  10.955  13.906  0.3282  0.1494 -0.1320
15484W        W31668  18.498   6.607   3.514  0.0078  0.0689 -0.1166
15485W        W31669  16.068   7.984  11.772 -0.0905 -0.3245  0.2934
15486W        W31670  16.333   7.821   2.776  0.1652  0.1612  0.0025
15487W        W31671  15.552   7.798   1.976  0.4077 -0.2290 -0.2920
15488W        W31672  17.455   5.527   1.181  0.0094  0.1965  0.2347
15489W        W31673   6.821   8.421  14.549 -0.4837  0.1980 -0.1109
15490W        W31674  10.855  11.781  12.504 -0.0964 -0.1505  0.2338
15491W        W31675  13.492  11.452   4.974  0.3295  0.0340 -0.0770
15492W        W31676  12.486   8.478  11.925 -0.0859  0.1738  0.0247
15493W        W31677   3.936  18.103   1.365 -0.3080  0.0933  0.1286
15494W        W31678   2.384  15.591   4.484  0.1430  0.0110 -0.2472
15495W        W31679  10.859  18.220   2.572 -0.1697  0.1691  0.1559
15496W        W31680   7.554   8.426  10.163 -0.4048 -0.1321 -0.1397
15497W        W31681   5.053  17.805  11.389 -0.0453  0.2135  0.1249
15498W        W31682  16.876   3.644   5.595  0.2261 -0.1589 -0.2162
15499W        W31683  18.408   5.037  15.425  0.1893  0.3161 -0.0840
15500W        W31684   1.336  17.954   2.881 -0.1218  0.0793  0.0151
15501W        W31685  14.103   7.794  13.286 -0.0786 -0.1065  0.0817
15502W        W31686   6.993  11.611   3.018  0.1334 -0.4454 -0.0418
15503W        W31687   8.969   1.983  12.471  0.1667 -0.1689  0.2353
15504W        W31688   1.313  13.306   4.661  0.0517  0.3039  0.1007
15505W        W31689   1.042  18.130   5.672 -0.1327 -0.3886 -0.0140
15506W        W31690   9.770   6.081   4.972 -0.0827  0.0581  0.0155
15507W        W31691  17.953   5.926  15.079 -0.0038 -0.0154 -0.0432
15508W        W31692  13.937   7.697   3.379  0.0899 -0.0503 -0.1604
15509W        W31693   1.072  15.193   2.653  0.2151 -0.1865  0.1710
15510W        W31694   4.874   3.518  13.144  0.1201  0.0620 -0.0505
15511W        W31695  17.786   4.907  15.504  0.0306  0.0232  0.0789
15512W        W31696  14.252  15.835  12.224 -0.0342  0.0154  0.3324
15513W        W31697  10.564  17.753  15.435 -0.3817  0.3866  0.1698
15514W        W31698  15.764  15.128  12.404 -0.2339 -0.1024  0.0599
15515W        W31699   4.237  11.200   0.639  0.0624  0.1842  0.0410
15516W        W31700  11.418   5.856  13.782 -0.1987  0.0327  0.2710
15517W        W31701   6.342   9.034  13.392  0.0025  0.0484  0.0610
15518W        W31702  10.151  12.697   0.133 -0.3206  0.2159 -0.1301
15519W        W31703  10.750   6.788   0.348  0.2464  0.3530  0.0741
15520W        W31704  13.605   7.691  15.171 -0.0894 -0.1363  0.0574
15521W        W31705  10.947   2.850  13.651 -0.0228  0.0127 -0.2900
15522W        W31706  14.703   8.329  11.298 -0.0971  0.0267  0.0407
15523W        W31707  12.417  14.424   1.308 -0.1474  0.0514 -0.4781
15524W        W31708   6.085  16.271   2.931 -0.2221 -0.1205 -0.2577
15525W        W31709   9.196  18.585   5.256  0.0055  0.0279  0.1321
15526W        W31710  17.106  17.426   4.572 -0.0884 -0.1674 -0.2519
15527W        W31711   2.462  18.750  15.035  0.0059 -0.0493  0.2134
15528W        W31712  18.417  10.979  14.715 -0.3597 -0.2317 -0.1751
15529W        W31713  11.788   9.199   1.436  0.0707 -0.3339  0.3241
15530W        W31714  14.493   1.924   4.400  0.0028 -0.1522 -0.3294
15531W        W31715   0.893   4.815   3.874 -0.1355  0.0796 -0.1063
15532W        W31716  17.721  11.324   4.263 -0.1502 -0.0380 -0.1283
15533W        W31717  16.209   2.759  13.663 -0.1030  0.1166 -0.0670
15534W        W31718  13.604   4.755   3.278  0.1146  0.0151  0.0557
15535W        W31719  12.854  15.460  14.937 -0.0327 -0.3635  0.2824
15536W        W31720   7.325  12.468   4.723 -0.0150 -0.1694  0.3493
15537W        W31721   6.279  14.694   4.127  0.1046 -0.0575 -0.1612
15538W        W31722  12.127  12.093  15.390 -0.1394  0.2375 -0.0048
15539W        W31723  11.479  11.421   0.231 -0.0624  0.1613  0.0143
15540W        W31724  14.177  17.979   3.165  0.1898  0.0483 -0.0753
15541W        W31725   8.361   1.312   1.016  0.0308  0.0645 -0.2152
15542W        W31726  17.882   3.661  14.790 -0.0571  0.2754  0.1794
15543W        W31727   7.536   2.337  11.199 -0.0401 -0.3285 -0.0779
15544W        W31728   0.393  11.164  13.041 -0.2320  0.0661  0.1152
15545W        W31729   5.427   0.402   2.698 -0.1945  0.0997 -0.1567
15546W        W31730   6.563  11.250   4.571 -0.0228  0.2542  0.0932
15547W        W31731  16.882   0.557   3.895 -0.3106 -0.1037 -0.1186
15548W        W31732   0.630   2.614   5.239 -0.2972  0.0838 -0.0193
15549W        W31733   3.345   9.593  11.258  0.3752 -0.1921  0.0031
15550W        W31734  15.199  10.732   5.884 -0.3581 -0.0300  0.0209
15551W        W31735  17.579  12.036  14.282 -0.2479 -0.1779  0.2429
15552W        W31736   1.370   0.885  14.714 -0.0751  0.0708 -0.3395
15553W        W31737   8.788  15.487  14.859  0.1899  0.0962  0.5538
15554W        W31738  10.046   4.803  10.107 -0.3518 -0.1141  0.0258
15555W        W31739  10.898  18.049   1.082 -0.1624  0.0696 -0.0430
15556W        W31740  17.040  16.178  15.278  0.3302 -0.3137 -0.3765
15557W        W31741   9.100  17.367   0.687 -0.0380  0.1481 -0.3811
15558W        W31742   4.622  17.653   1.100  0.3543  0.3322  0.0070
15559W        W31743  10.646   9.330   2.119  0.2790  0.2303 -0.3857
15560W        W31744   8.954  10.222   4.203 -0.0963  0.2691  0.0559
15561W        W31745  14.244   1.233   3.717 -0.2997  0.0570  0.1291
15562W        W31746  10.628  14.762   2.475 -0.0919 -0.0032 -0.0472
15563W        W31747  10.462  14.556  11.584 -0.0287 -0.4854  0.0377
15564W        W31748  15.605   1.379   2.382 -0.0370 -0.0371  0.1230
15565W        W31749   0.249  13.058   0.979 -0.4562  0.0730  0.1532
15566W        W31750  10.493   1.031   2.730 -0.0052 -0.3455 -0.0076
15567W        W31751  18.180   0.967  14.149 -0.1191 -0.0830 -0.0231
15568W        W31752  16.215  10.694   4.601 -0.1189  0.0608 -0.2405
15569W        W31753   6.311   3.099   4.285 -0.1189 -0.3352  0.0941
15570W        W31754   4.701  17.498  13.591 -0.0910  0.3364 -0.0398
15571W        W31755   4.204  16.965   4.332  0.1086  0.0102 -0.0378
15572W        W31756   1.107   9.586   4.698  0.2265  0.1501 -0.0846
15573W        W31757  14.709  17.548   3.511 -0.0361 -0.0612  0.1222
15574W        W31758  14.681  15.531  13.591 -0.1815  0.0837  0.1862
15575W        W31759  16.922   0.575   0.491 -0.1974 -0.1562  0.0055
15576W        W31760  14.742   4.062   2.079  0.0294  0.0927  0.1302
15577W        W31761   3.307  13.265   0.253  0.1101  0.0631  0.1101
15578W        W31762  15.976  18.665  12.590 -0.2122 -0.1024 -0.0799
15579W        W31763   5.333   8.716  11.647 -0.2521  0.0176  0.1507
15580W        W31764  14.057   7.614   1.510  0.1607 -0.0713  0.0106
15581W        W31765  11.486   4.462  11.729 -0.2980  0.1401  0.0497
15582W        W31766   4.371   0.298  12.151 -0.0284  0.2764  0.1234
15583W        W31767  13.319   2.669   4.458 -0.2266  0.1334  0.0247
15584W        W31768   4.967   7.293  11.988 -0.3979  0.0577  0.1879
15585W        W31769   5.111  16.260  12.284 -0.0429  0.1289 -0.0254
15586W        W31770  13.309   2.354   5.283 -0.0877 -0.0927  0.2055
15587W        W31771   2.288   5.585   3.226  0.1691 -0.0137 -0.0382
15588W        W31772  15.929  18.363  11.743 -0.0343  0.1076  0.2837
15589W        W31773  18.013  18.025  13.965  0.2723  0.2644 -0.1126
15590W        W31774   5.428  15.728  14.500 -0.0422 -0.3392  0.0744
15591W        W31775   2.221   2.031  13.014  0.1640 -0.0188  0.2655
15592W        W31776  14.080   9.930  12.209  0.1070  0.3353 -0.1156
15593W        W31777   1.028  11.086  12.978 -0.0399  0.0045 -0.2554
15594W        W31778  17.216  16.029  14.090  0.1425  0.4126 -0.2791
15595W        W31779  12.654  12.080  11.475  0.0561  0.3260  0.2040
15596W        W31780   2.025  15.116  12.815 -0.2741  0.1731 -0.3867
15597W        W31781   8.410   3.455  12.740  0.1316 -0.2167 -0.2086
15598W        W31782  15.840   6.181  11.685 -0.1350 -0.1258 -0.1319
15599W        W31783   3.458   0.849   3.362  0.3546  0.0753 -0.1033
15600W        W31784   3.492   4.513   3.298  0.0570  0.0893  0.2412
15601W        W31785  10.063  13.742   3.691  0.1136  0.1029 -0.2444
15602W        W31786   0.511   7.469  10.468 -0.2514  0.0165  0.3329
15603W        W31787  13.388  18.337  13.826  0.1146  0.0069 -0.0083
15604W        W31788   0.872  17.075  10.148  0.0544  0.0804  0.1953
15605W        W31789   9.576   3.922  12.162 -0.3943  0.1379  0.0374
15606W        W31790   2.273  12.579  13.268 -0.0872  0.0662 -0.5510
15607W        W31791  17.217  13.409  13.508 -0.1030 -0.0298  0.0794
15608W        W31792  14.797   0.442   0.596 -0.0888  0.0668  0.3230
15609W        W31793  10.609  12.634   4.058 -0.1136 -0.0327 -0.0485
15610W        W31794   6.593  17.399  15.463 -0.1040  0.1451 -0.0150
15611W        W31795  17.521   6.105  10.890  0.1712 -0.0076 -0.0751
15612W        W31796   7.665   4.970   3.339 -0.0353  0.0433  0.1515
15613W        W31797   1.220   2.634  14.426 -0.1082 -0.0508  0.0599
15614W        W31798  14.199   9.773  14.517 -0.0549 -0.0122  0.2203
15615W        W31799   6.624  12.913  14.676 -0.1004 -0.2343  0.0251
15616W        W31800   9.962   8.175  13.803  0.3178  0.0527 -0.2586
15617W        W31801   8.365   0.862  13.214 -0.1674 -0.2187  0.0762
15618W        W31802   0.292   8.935  14.034 -0.1627  0.2667 -0.0583
15619W        W31803  11.918  10.151   0.843  0.0274 -0.1342  0.0252
15620W        W31804  17.799  12.167  12.842  0.1453  0.0718 -0.0969
15621W        W31805   4.983   7.759   4.544  0.0289  0.1513 -0.1316
15622W        W31806  14.642  18.442   3.188  0.2724 -0.0869 -0.1860
15623W        W31807   0.896  14.433   0.127 -0.0887  0.0158 -0.2027
15624W        W31808  14.294  11.335  12.816 -0.2783  0.0702  0.1964
15625W        W31809   9.030   5.105  13.464 -0.0057  0.0923  0.3652
15626W        W31810  13.367   8.447  11.346  0.0795  0.0059 -0.0448
15627W        W31811  15.212  15.340  14.938  0.2725  0.2521  0.1754
15628W        W31812   5.892   1.236  11.498 -0.0563 -0.2660 -0.2366
15629W        W31813  14.644   8.368  14.008 -0.1128 -0.2601  0.3397
15630W        W31814   8.788  11.418  13.917  0.2407 -0.0808  0.2819
15631W        W31815   1.167   9.193   2.658  0.0159  0.0168  0.3047
15632W        W31816   3.919  10.062  12.054 -0.0353 -0.0202 -0.0747
15633W        W31817   0.421  10.715   4.009  0.1368  0.0517 -0.1036
15634W        W31818   9.924   3.744  12.556  0.0651 -0.2339 -0.2998
15635W        W31819   6.737   5.416  12.774 -0.1342 -0.0325 -0.0204
15636W        W31820   7.050   2.266   1.145  0.0143 -0.1339 -0.2398
15637W        W31821  16.989   6.146   4.299  0.0243  0.0559  0.1743
15638W        W31822  14.823  17.812   4.381 -0.1625  0.3283  0.1500
15639W        W31823  18.757   0.349  11.501 -0.3977  0.2023  0.0478
15640W        W31824  11.496  11.747  11.719 -0.2743  0.2267 -0.1568
15641W        W31825   9.112  11.852   2.281  0.1319 -0.3550  0.0256
15642W        W31826   6.165   5.605   3.825 -0.2629 -0.2172 -0.1549
15643W        W31827  12.786  10.927   1.803 -0.2856 -0.2838 -0.2199
15644W        W31828   0.322  12.742   2.914  0.0096 -0.1291 -0.0932
15645W        W31829   3.870   2.178  15.347  0.1820 -0.4216 -0.0454
15646W        W31830  17.397   4.359  11.415  0.3131  0.0656 -0.0277
15647W        W31831  10.725   3.501  14.523 -0.1372 -0.1104  0.0376
15648W        W31832  16.695   5.988   2.595 -0.1474  0.0285 -0.0391
15649W        W31833  15.029   3.123   4.351 -0.3071 -0.1006  0.1063
15650W        W31834   1.526  15.239   0.582  0.1019  0.3001  0.1284
15651W        W31835   0.239   5.398  14.737 -0.0421  0.0666 -0.1254
15652W        W31836   4.427   5.232  15.105 -0.0121 -0.0812 -0.3885
15653W        W31837  10.006  13.885  13.605 -0.0738  0.4317  0.2355
15654W        W31838   3.131   6.474   5.230 -0.0592 -0.5255  0.2776
15655W        W31839   3.235  12.562  14.704 -0.0372  0.0558  0.3880
15656W        W31840   4.676   6.356  13.460 -0.0910  0.4969  0.1612
15657W        W31841   1.820  11.655   1.698  0.3260 -0.2570  0.1961
15658W        W31842   2.307   5.951  12.707 -0.1184  0.3286  0.0414
15659W        W31843   1.286  18.847   2.494 -0.0594  0.2177 -0.0719
15660W        W31844   8.474  10.066  10.684 -0.0549 -0.0164 -0.0621
15661W        W31845   1.995  15.016   0.679 -0.0312  0.0187  0.2302
15662W        W31846   8.461   8.832   4.151 -0.1205 -0.0423  0.1940
15663W        W31847   4.500   1.758  15.396 -0.0261  0.0542  0.1198
15664W        W31848  13.839  11.327  14.471 -0.1111 -0.0002 -0.0016
15665W        W31849  15.478   7.401   2.278  0.1745 -0.2101  0.3472
15666W        W31850   7.974   8.533  11.013  0.1027  0.0673 -0.2363
15667W        W31851  10.983   1.171  15.052 -0.1132  0.2269 -0.0920
15668W        W31852   1.669  17.059   4.633 -0.0157  0.0543  0.4075
15669W        W31853  17.048   0.421   2.596  0.1444  0.1366  0.2514
15670W        W31854   4.465  18.791   5.135  0.0522  0.0064  0.2497
15671W        W31855  10.939  13.127  12.446 -0.1865 -0.1202 -0.1281
15672W        W31856  10.141   1.864   5.621 -0.0634  0.0573  0.3089
15673W        W31857   9.110   9.994   2.298  0.4790  0.1320  0.1479
15674W        W31858   6.648   5.336  13.633  0.6381  0.0124 -0.0812
15675W        W31859   6.192   7.697  10.922 -0.0337 -0.0313  0.0678
15676W        W31860  15.852  15.088   1.185  0.2290  0.3792 -0.1399
15677W        W31861   6.147   9.337  14.996 -0.0632  0.0328 -0.0215
15678W        W31862  18.424   3.111  10.788 -0.1550  0.2109 -0.1244
15679W        W31863  10.451  10.309   5.515 -0.0757 -0.0054 -0.1142
15680W        W31864  10.451   1.618   4.352 -0.1355  0.2512  0.0413
15681W        W31865   1.436   4.807  14.012 -0.0656 -0.2470 -0.2004
15682W        W31866   3.773  10.938   2.911  0.1998 -0.1615 -0.1789
15683W        W31867   8.176  12.907   4.341  0.0566 -0.0005 -0.0578
15684W        W31868  17.051   4.431  12.429 -0.1263  0.0038  0.3948
15685W        W31869  12.950  16.183  13.826  0.0574 -0.1861 -0.5190
15686W        W31870  18.717   2.094  12.573 -0.2367 -0.0594 -0.0030
15687W        W31871   1.306   4.030   4.788 -0.0416  0.0433 -0.1532
15688W        W31872   8.700   3.702   1.300  0.2561 -0.0027  0.1068
15689W        W31873   7.068   4.859   5.762 -0.1336  0.0389 -0.5452
15690W        W31874   9.326   4.302   0.456  0.0880  0.0492  0.3540
15691W        W31875  11.060   2.452  11.960  0.2453 -0.2564  0.2311
15692W        W31876  12.535   5.714   2.715  0.2299  0.2288  0.4311
15693W        W31877  13.294   0.331   2.725 -0.0768 -0.1298  0.1451
15694W        W31878  18.331   6.576   0.799  0.0603  0.0723 -0.1093
15695W        W31879   0.762  15.465  10.198 -0.3848  0.2875  0.1751
15696W        W31880  13.691   4.111  11.503  0.0997 -0.2000 -0.0496
15697W        W31881   5.323   1.007  12.859  0.2289  0.0364  0.1919
15698W        W31882  14.405  14.017   2.322 -0.3101 -0.1321  0.1072
15699W        W31883   6.978  12.150   9.482 -0.1555  0.3493 -0.1307
15700W        W31884  15.271   5.976   1.794 -0.1148 -0.0822 -0.0042
15701W        W31885   9.506   4.391   2.714 -0.0074 -0.0593 -0.0236
15702W        W31886  16.473  11.451  12.723  0.1083 -0.2234  0.3976
15703W        W31887  16.660  13.778  11.390 -0.2104 -0.1672  0.0783
15704W        W31888  16.962  11.716   0.689 -0.0537  0.1468 -0.2042
15705W        W31889  18.111  11.578  12.220 -0.1813 -0.0509 -0.0423
15706W        W31890   3.295   3.382   4.223  0.0432  0.0108 -0.3903
15707W        W31891   5.338   0.541  14.307 -0.0288  0.1217 -0.2459
15708W        W31892   3.986  15.822  15.134 -0.0046 -0.3098 -0.0771
15709W        W31893  11.440  12.890  12.683 -0.3647 -0.0122 -0.1078
15710W        W31894   7.101   1.093   2.707 -0.2201  0.0889 -0.1235
15711W        W31895   1.948   9.258  14.856 -0.1800 -0.1456 -0.1782
15712W        W31896   8.989   6.229  11.439  0.3013 -0.1912 -0.1496
15713W        W31897  14.190   4.293   0.240  0.2586  0.0760  0.0018
15714W        W31898   8.879  10.836  11.335 -0.2004  0.1294  0.0630
15715W        W31899   3.015   6.027   3.464  0.0560 -0.3679  0.1273
15716W        W31900   3.783  13.844   0.899  0.4508 -0.0035 -0.0396
15717W        W31901  12.526  10.206  15.132 -0.0587  0.3908 -0.1762
15718W        W31902   6.301   9.715  14.228  0.1471  0.0940 -0.0851
15719W        W31903  12.765  15.996  11.621 -0.0963 -0.2339 -0.2479
15720W        W31904   2.678  16.576   0.993 -0.1914  0.4063  0.2267
15721W        W31905  12.237  12.599  11.706 -0.0688  0.0386 -0.1654
15722W        W31906  10.758  15.664   2.957 -0.3830 -0.1513 -0.1637
15723W        W31907  13.812  15.611  13.776  0.1243 -0.1073 -0.3189
15724W        W31908  16.634  15.629  12.083  0.3813  0.0394  0.1513
15725W        W31909   8.277  12.073  11.162  0.0916 -0.1721  0.0335
15726W        W31910  16.227   8.027   1.523 -0.1705 -0.2291 -0.0490
15727W        W31911   8.574   3.534  13.191  0.2945  0.1032  0.2186
15728W        W31912   4.604  15.377   0.996  0.1803 -0.2285 -0.2153
15729W        W31913  14.226   1.438  12.744 -0.1268 -0.0888 -0.1077
15730W        W31914  14.717  17.842  11.705 -0.2921  0.0599 -0.5083
15731W        W31915   8.196   2.087  11.460  0.4225 -0.1018  0.0291
15732W        W31916   4.423  15.982  11.432  0.1105  0.2061 -0.1674
15733W        W31917   1.206  14.783  12.946 -0.2744  0.1526 -0.1677
15734W        W31918  14.869   1.092   3.009 -0.0538 -0.2893 -0.0492
15735W        W31919  18.152  16.888  12.587  0.1373  0.1637 -0.1641
15736W        W31920   8.564  17.839  10.071 -0.1694 -0.0012  0.0998
15737W        W31921  11.046   6.143   3.121 -0.1553  0.1035  0.1288
15738W        W31922   8.637  16.021   1.498 -0.1686 -0.0648  0.2351
15739W        W31923   1.225   9.520   5.187 -0.1696 -0.1312  0.3130
15740W        W31924  15.009  11.593   3.500 -0.0178 -0.2179  0.0283
15741W        W31925   0.958   5.569  13.146 -0.1724  0.0147 -0.1189
15742W        W31926   8.208   4.429  11.429 -0.1571 -0.0829  0.0492
15743W        W31927   5.224  10.024   2.725 -0.1170  0.2621 -0.2477
15744W        W31928   7.030   0.915   1.836 -0.2151 -0.0770  0.1125
15745W        W31929   8.858  10.002  14.219  0.0834  0.1249  0.3109
15746W        W31930  11.210  11.841   5.569  0.1292 -0.0062  0.0588
15747W        W31931  16.400   7.599  10.621  0.0945 -0.0386 -0.0476
15748W        W31932   5.030  16.305   0.806  0.0771 -0.1589 -0.0185
15749W        W31933  12.725   7.190  15.254 -0.0444 -0.0822  0.4128
15750W        W31934   2.671  17.720  13.825 -0.1253  0.1706 -0.0102
15751W        W31935  12.306  15.184   2.224  0.2254 -0.1279 -0.3303
15752W        W31936   5.485   2.928  11.567 -0.4034 -0.0925  0.1536
15753W        W31937   2.978   5.966  13.451  0.0151  0.0155 -0.2556
15754W        W31938   2.527  10.178   1.915 -0.3368 -0.4059  0.4085
15755W        W31939  12.394   1.629   4.207 -0.0343  0.1775 -0.0185
15756W        W31940  14.270  10.217  13.397 -0.0884 -0.2837 -0.1265
15757W        W31941   1.126   5.067  12.002 -0.0845  0.1843 -0.0833
15758W        W31942   7.685  10.197   9.584  0.0897  0.1036 -0.1206
15759W        W31943   7.760  15.128  15.512  0.0543  0.1473 -0.0942
15760W        W31944  13.772  12.716   3.054 -0.1866  0.1472  0.1025
15761W        W31945   1.670  15.028  11.977  0.0323 -0.0987 -0.1003
15762W        W31946   2.653  15.383  13.792 -0.4592 -0.0839  0.0677
15763W        W31947   0.910   0.789  13.044  0.2149 -0.1128 -0.2986
15764W        W31948   4.089   7.387   3.970  0.1319 -0.0898  0.2612
15765W        W31949   7.583  18.538  12.306 -0.3339 -0.2390 -0.1612
15766W        W31950  11.819   0.669   3.324 -0.0567  0.1076 -0.1013
15767W        W31951   5.004   6.160  13.155  0.0364  0.0120  0.1824
15768W        W31952   7.635   0.958  11.553 -0.1619  0.1416  0.0989
15769W        W31953  18.066   2.827   3.699  0.0474  0.0862  0.0454
15770W        W31954  10.631  11.691  12.952  0.0411  0.0598 -0.3806
15771W        W31955  18.002   1.878   2.681 -0.0185 -0.1206  0.1735
15772W        W31956  13.447   2.824  12.497 -0.0976 -0.0701 -0.0617
15773W        W31957  11.670   2.698   4.910  0.5704  0.1916  0.1386
15774W        W31958   0.274   7.259   0.883 -0.0229  0.1321 -0.1092
15775W        W31959  12.560  17.989  14.481 -0.1873  0.4120 -0.1304
15776W        W31960   1.929   5.237   3.997 -0.0613 -0.1007  0.1965
15777W        W31961  15.252  10.683  12.560  0.0767  0.1057  0.0047
15778W        W31962  15.188  17.975  15.203  0.0517  0.3520 -0.2596
15779W        W31963  11.548   3.429   3.324 -0.1349  0.1142  0.0867
15780W        W31964  16.862  15.747   1.450  0.5349  0.1009  0.3252
15781W        W31965   1.060  14.130  11.985  0.4635 -0.0721 -0.0725
15782W        W31966   5.001   0.516  14.656 -0.2141 -0.2072 -0.0260
15783W        W31967  14.692  13.918  13.782 -0.1896  0.1332  0.2013
15784W        W31968  18.647  15.283  14.722  0.1774 -0.1602  0.1580
15785W        W31969   1.193  10.140  10.726  0.1192 -0.1094 -0.2360
15786W        W31970   1.863   5.347   3.176 -0.0186 -0.0162  0.2166
15787W        W31971   2.924   5.052  12.071  0.2234 -0.1891 -0.0702
15788W        W31972  14.733  10.200  11.064 -0.0600 -0.1551 -0.0284
15789W        W31973   8.765   5.936  12.838 -0.0112 -0.5935 -0.3297
15790W        W31974   6.554  13.319  13.165  0.0954 -0.1699  0.0257
15791W        W31975   6.054   9.299  13.720  0.2124  0.1941  0.2768
15792W        W31976  13.358   2.888  14.509 -0.1486 -0.0269  0.0715
15793W        W31977   1.489   0.273  12.437  0.1018 -0.0976  0.0351
15794W        W31978   8.742   3.706   4.865 -0.0087 -0.0125  0.0657
15795W        W31979  12.303   5.996   1.679 -0.0190 -0.1756 -0.1589
15796W        W31980   6.165  13.596   5.894  0.0437 -0.1100 -0.3230
15797W        W31981  14.882  18.109   2.968 -0.0306 -0.1281  0.1670
15798W        W31982  18.213  10.345   5.349 -0.0869 -0.1322  0.2519
15799W        W31983  14.022   2.612   4.431  0.2373  0.1984 -0.0057
15800W        W31984  14.141   2.940  12.572 -0.0281 -0.2363  0.4364
15801W        W31985  13.973  11.464   5.846  0.2368 -0.0269  0.0248
15802W        W31986  11.980   0.223   1.625 -0.3561 -0.1017  0.1125
15803W        W31987   0.976   5.603  15.530  0.2334  0.1369 -0.1623
15804W        W31988   7.993  15.795   4.374 -0.1432  0.2563 -0.2359
15805W        W31989  10.399  18.671  11.407 -0.0741 -0.0622 -0.1291
15806W        W31990   7.052   8.585  15.152 -0.1493  0.2647  0.0177
15807W        W31991  15.378  15.149   4.571  0.1580  0.0721  0.0044
15808W        W31992   1.882   9.659   4.804  0.0022  0.1346 -0.1058
15809W        W31993   6.038   4.138   3.132 -0.0274 -0.1303  0.1528
15810W        W31994  16.150  15.762   0.952  0.0387 -0.2971  0.0904
15811W        W31995  10.795   8.623   0.061 -0.1161  0.0252 -0.2203
15812W        W31996   5.110  10.971  10.961  0.1567  0.0040 -0.2492
15813W        W31997  16.796  14.652   3.894  0.0451 -0.0984 -0.2736
15814W        W31998   2.713   1.628   2.495  0.0915 -0.1650  0.1654
15815W        W31999   5.363   8.262  15.312 -0.3976 -0.0284  0.1789
15816W        W32000  13.980   6.076   1.183 -0.3889  0.0410  0.2831
15817W        W32001  18.013  12.283  15.404 -0.0650  0.2794 -0.0896
15818W        W32002   9.272  12.615   1.848 -0.1355 -0.0361 -0.1632
15819W        W32003   2.196  17.732  12.082 -0.2053  0.0342 -0.1428
15820W        W32004  16.172   2.843  11.944  0.3031  0.2121 -0.0741
15821W        W32005   0.701   4.319  10.630 -0.0313 -0.1568 -0.0054
15822W        W32006   3.941   1.206   2.727 -0.0117 -0.1456 -0.3467
15823W        W32007   4.572  13.480   3.206  0.2858 -0.0931 -0.0224
15824W        W32008   2.526  17.075  14.605 -0.1742  0.1745 -0.0451
15825W        W32009   0.312  12.116  14.789  0.0390 -0.2395  0.2680
15826W        W32010   5.514  17.294   1.430  0.0814 -0.2036  0.0763
15827W        W32011  14.241   8.303  12.925 -0.1402 -0.2387 -0.1813
15828W        W32012  13.685   0.684  10.958 -0.1222 -0.1587  0.2547
15829W        W32013  10.240   7.289   5.474  0.0036  0.0804 -0.0594
15830W        W32014   1.682  14.660  13.686  0.1003  0.2110  0.0009
15831W        W32015  18.263   2.664   4.144  0.1100 -0.1409 -0.0883
15832W        W32016   3.533   2.830  12.470 -0.0102 -0.1716  0.1774
15833W        W32017   9.888   7.340   0.426  0.3637  0.1562 -0.1735
15834W        W32018   1.022  15.371  13.738 -0.0276 -0.2419  0.4270
15835W        W32019   3.764   9.800  14.345 -0.0229 -0.0016  0.1041
15836W        W32020  16.266   4.640  10.693  0.2791 -0.0572  0.0324
15837W        W32021   8.471   4.688   0.488 -0.1420 -0.2700  0.2107
15838W        W32022   7.197   2.564  13.875 -0.2006 -0.2573  0.1318
15839W        W32023   1.328   2.660   2.063  0.4204 -0.1169  0.1652
15840W        W32024   0.315   8.040   3.670 -0.0865 -0.0471  0.1409
15841W        W32025  14.862  14.339  14.025  0.0983 -0.0581 -0.0334
15842W        W32026   0.242  13.412   4.737 -0.2625  0.0002  0.2247
15843W        W32027   2.585  17.656  11.764 -0.1994 -0.3440  0.1864
15844W        W32028   7.765   3.144   0.243 -0.4713 -0.0892  0.3580
15845W        W32029  15.060   5.675  12.094  0.0199 -0.1606 -0.0034
15846W        W32030  11.812   7.081  13.627  0.0411  0.1945  0.1011
15847W        W32031   3.645  16.087   1.226 -0.1437 -0.1826 -0.1595
15848W        W32032   8.129  17.056   3.701 -0.1039  0.0207 -0.2100
15849W        W32033   2.671  16.299   4.584  0.2326  0.2787 -0.3355
15850W        W32034   8.737   9.823   3.879 -0.0805 -0.1911  0.0373
15851W        W32035   3.095   5.658  13.907  0.1317  0.2975  0.2350
15852W        W32036   3.637  15.118  14.607 -0.2428  0.0438 -0.0351
15853W        W32037  14.587   5.903  15.407 -0.3484  0.0883  0.1906
15854W        W32038  16.453   8.176  10.932 -0.2014 -0.2825  0.0584
15855W        W32039  17.366   7.341  10.200  0.0831 -0.0920  0.0407
15856W        W32040   0.110  12.873   4.795  0.0401  0.2075 -0.0137
15857W        W32041  18.657   2.905  13.778 -0.0676 -0.2778 -0.1932
15858W        W32042  10.376  14.236   0.649 -0.0179 -0.0298  0.2487
15859W        W32043  14.702   0.484  13.026  0.0251 -0.2322  0.2255
15860W        W32044   2.700   0.397  13.693  0.0912  0.3466  0.2407
15861W        W32045   8.324  18.535   0.699  0.0780 -0.1944  0.2484
15862W        W32046  11.789  14.046   4.636 -0.0010 -0.2432  0.0816
15863W        W32047  18.032   3.732   2.422  0.2484  0.0083 -0.0281
15864W        W32048  10.420   5.155  12.996  0.0296 -0.1355  0.3643
15865W        W32049  15.608  17.721   0.742  0.1705 -0.0570  0.0016
15866W        W32050  14.047   4.311  12.230  0.0703 -0.1923 -0.1910
15867W        W32051  12.778  13.472  10.950  0.3338  0.1249  0.0836
15868W        W32052   9.714   5.701  14.584  0.2784 -0.0580  0.1271
15869W        W32053   4.654   7.011  11.702 -0.2741 -0.1726  0.0686
15870W        W32054  16.346   0.488  15.422  0.0328 -0.2269 -0.1385
15871W        W32055  11.248   2.976   5.094  0.0476 -0.1533 -0.3244
15872W        W32056   9.342   7.492   0.842  0.0564 -0.0573  0.3441
15873W        W32057  14.654  18.699   2.594  0.0868 -0.0510  0.0005
15874W        W32058  11.140   5.951  12.757  0.1057 -0.2069  0.1697
15875W        W32059   7.400   3.230   3.265 -0.3133  0.1915 -0.2280
15876W        W32060   1.279  18.721  12.650 -0.0393 -0.1928  0.1552
15877W        W32061   1.112  15.862   3.087 -0.0837  0.0859  0.1756
15878W        W32062   4.899   3.996   4.254 -0.0120  0.3191 -0.3682
15879W        W32063   3.042  14.037  13.166  0.1650 -0.1058 -0.4329
15880W        W32064  17.130   3.717  13.104 -0.0534 -0.0785 -0.2128
15881W        W32065   4.376  12.891  13.215 -0.2762  0.1650  0.0853
15882W        W32066   4.769   0.509  14.219 -0.0118  0.2074 -0.3265
15883W        W32067   1.830   6.826   3.643 -0.1017  0.0237  0.7570
15884W        W32068   3.348  11.801  11.225 -0.1759  0.1677 -0.0152
15885W        W32069  17.129   8.848   5.989 -0.1691 -0.4132  0.1939
15886W        W32070  13.670  10.035  13.950  0.2605  0.0973 -0.0417
15887W        W32071  12.474   7.173   1.713 -0.0660 -0.0084 -0.0182
15888W        W32072   7.704  13.198   3.284 -0.2288  0.1304 -0.0621
15889W        W32073   4.755  18.563  11.622  0.0107 -0.3308  0.1011
15890W        W32074   9.150   2.948  12.688 -0.4669  0.3582 -0.1310
15891W        W32075   8.188  15.264  15.059  0.1158 -0.1212  0.0023
15892W        W32076  14.921  13.110  13.736  0.1649  0.0171  0.0594
15893W        W32077   0.616  16.729  11.581  0.2094  0.0390  0.0984
15894W        W32078   7.667   7.212   1.037  0.1446 -0.0987  0.0568
15895W        W32079  17.986   7.755   3.242  0.1138 -0.2079 -0.0605
15896W        W32080   1.088   5.138  13.828 -0.3083 -0.2231 -0.1790
15897W        W32081  18.798   5.617   2.516 -0.0947 -0.2500 -0.0017
15898W        W32082   1.922  15.700  12.971 -0.1795  0.1654 -0.0808
15899W        W32083   4.213  12.582  14.686  0.0998  0.0478  0.0538
15900W        W32084  11.449   1.243   2.621 -0.2783  0.3082 -0.1228
15901W        W32085   4.205   9.195   5.528  0.0755  0.2377  0.2265
15902W        W32086  16.147   7.168  10.542 -0.2616 -0.0057 -0.0594
15903W        W32087  13.763   0.508   2.963  0.1149 -0.1859 -0.2591
15904W        W32088   2.965  12.145  11.267 -0.0073  0.0167 -0.1862
15905W        W32089   7.903  11.775  13.228 -0.2224  0.0551 -0.1834
15906W        W32090  15.732   8.868   1.249  0.2338 -0.3006 -0.0714
15907W        W32091   4.725   1.848   5.493  0.0283 -0.1467  0.1478
15908W        W32092   2.639   0.066   4.892 -0.0844 -0.4164 -0.0108
15909W        W32093   2.633   1.061  10.385 -0.3600 -0.1146  0.0282
15910W        W32094  14.521   4.538  11.432  0.0565 -0.0004  0.2511
15911W        W32095  10.765   5.215  11.888  0.1456 -0.0623 -0.1303
15912W        W32096   2.284  15.495   5.780  0.0821  0.0013  0.2038
15913W        W32097   9.651  15.029  11.970  0.2769 -0.2031 -0.0219
15914W        W32098  15.694   8.097   4.001  0.0005 -0.0198  0.1220
15915W        W32099   8.884   1.474   1.896  0.3356 -0.0081  0.0714
15916W        W32100   3.584   3.287   3.274  0.1651 -0.0695 -0.0110
15917W        W32101   7.258   4.548  11.150  0.2110  0.1488  0.1931
15918W        W32102  16.172  15.469  11.122 -0.1571 -0.1420  0.2706
15919W        W32103   4.771  17.712   4.433  0.0324  0.0817  0.3588
15920W        W32104   5.083  10.803   4.621 -0.0901 -0.1043  0.1615
15921W        W32105  14.609   7.761   0.717  0.1164 -0.1630  0.1365
15922W        W32106   7.514  15.379  13.672 -0.2695 -0.1147 -0.3782
15923W        W32107   9.907   9.666  13.481  0.3160  0.2946  0.1913
15924W        W32108   9.247   9.335  12.435 -0.0397  0.0109  0.2268
15925W        W32109   9.274  15.056  10.929 -0.0602  0.2091 -0.0918
15926W        W32110   1.404   2.897   0.996  0.0771 -0.2276 -0.1532
15927W        W32111   6.288  13.116   3.368 -0.2562  0.0555 -0.0730
15928W        W32112   6.656   5.961  10.026 -0.2495  0.0170  0.2939
15929W        W32113  12.976   6.842  12.179 -0.2167  0.0087  0.0855
15930W        W32114  17.672  13.409  13.280  0.1488  0.1285 -0.3812
15931W        W32115   3.892  10.028   1.441  0.3830  0.2465 -0.1100
15932W        W32116   1.337   7.945  13.962 -0.0138 -0.0065  0.3520
15933W        W32117  10.877  12.080   0.782  0.2116  0.2577 -0.0979
15934W        W32118  18.558  11.554   3.717  0.1388  0.3351 -0.0155
15935W        W32119  16.885  17.854  14.534  0.1953 -0.1037  0.1199
15936W        W32120  15.439   5.931  12.806 -0.0791 -0.0274  0.0962
15937W        W32121   0.521   4.758   4.973 -0.0727  0.3218  0.1095
15938W        W32122   5.274  15.110  13.719  0.1215 -0.3658 -0.0331
15939W        W32123   9.775   8.061   2.763 -0.3492  0.2090  0.2399
15940W        W32124  15.210   7.489   4.615 -0.1887 -0.2931  0.1910
15941W        W32125   5.804   1.088   3.092 -0.2054 -0.1322  0.1865
15942W        W32126   9.785   4.286   4.460 -0.1824 -0.1541 -0.0439
15943W        W32127  16.961   6.953   0.789  0.0354 -0.0397 -0.0319
15944W        W32128   4.926   0.308  11.335 -0.0046 -0.1686 -0.2750
15945W        W32129   2.919   8.443  11.003 -0.0334  0.1711 -0.0867
15946W        W32130  13.056  13.051   4.115 -0.0177  0.1888 -0.1010
15947W        W32131   6.963   1.147  13.829  0.1729  0.1522  0.0001
15948W        W32132  10.920   6.885   5.953 -0.3435  0.4548 -0.1818
15949W        W32133  16.925   4.572   2.528 -0.0301 -0.0544  0.1934
15950W        W32134   9.818   0.926   2.487 -0.0277 -0.1767 -0.1901
15951W        W32135  17.695  12.141   0.554  0.1248 -0.2706 -0.4908
15952W        W32136   5.376   2.263   3.785 -0.0136  0.3796 -0.2755
15953W        W32137   2.759  15.776   3.268 -0.0682 -0.1313 -0.1909
15954W        W32138   2.571   0.105   1.438  0.1574 -0.1726  0.1852
15955W        W32139   1.010  11.358  11.739  0.0211  0.2342  0.1348
15956W        W32140  16.907   7.209   4.534  0.0449  0.2309  0.3434
15957W        W32141  16.605  14.750  13.955 -0.0330 -0.2129  0.1730
15958W        W32142   9.302   8.425  12.543  0.0892  0.0362  0.2697
15959W        W32143   1.461   8.829  12.295  0.1286  0.3223  0.0859
15960W        W32144  15.073   3.050   4.873  0.1131 -0.1359  0.3609
15961W        W32145   3.808  17.053  13.174  0.3940 -0.2664 -0.0005
15962W        W32146  12.886   3.405  15.393 -0.1519  0.4380 -0.0893
15963W        W32147   9.074  12.007  13.283 -0.0507  0.1901 -0.1247
15964W        W32148  10.126   4.180   4.035  0.2980 -0.1544  0.0667
15965W        W32149  17.281  10.197   2.496  0.1808  0.3664  0.0405
15966W        W32150  10.882   7.996   2.096 -0.0749 -0.4730  0.5754
15967W        W32151  15.066   9.874  12.246 -0.0435  0.0253  0.0084
15968W        W32152   6.963  10.368   4.421 -0.0505  0.0633 -0.0469
15969W        W32153   4.995   3.576   2.107  0.1792  0.3672 -0.2069
15970W        W32154   9.336  11.517  12.904 -0.2427  0.4755 -0.2148
15971W        W32155  18.839   4.717   5.162 -0.2934  0.2341 -0.3376
15972W        W32156   1.738  12.908   3.920  0.1764 -0.3130 -0.0229
15973W        W32157   8.426   3.221   4.845 -0.3053 -0.2793 -0.0131
15974W        W32158  16.573   3.705   4.175  0.0480  0.1653  0.0569
15975W        W32159  16.278   6.069  15.345  0.1960 -0.0411 -0.0810
15976W        W32160  15.102  12.737  11.919  0.1249  0.2564  0.0199
15977W        W32161   3.570   6.823   3.384  0.1177  0.0357  0.0159
15978W        W32162  18.551  14.203   0.705 -0.0216  0.3143 -0.0924
15979W        W32163   2.933   8.894   0.256 -0.0528  0.0551  0.0210
15980W        W32164  11.660  15.029   5.712 -0.0677 -0.0541  0.1207
15981W        W32165  15.471  10.768   2.478 -0.0232 -0.0596  0.0383
15982W        W32166  17.612   4.032  13.387 -0.1642  0.0668 -0.0023
15983W        W32167  11.105  13.292   3.259  0.1276 -0.1676 -0.1273
15984W        W32168  12.874   7.092  13.681  0.0522 -0.0814  0.3325
15985W        W32169   8.579   4.913   5.290 -0.0069  0.0468  0.1930
15986W        W32170   2.265   6.479   0.932  0.1048  0.1599  0.0001
15987W        W32171   1.329   9.631  14.212 -0.0987  0.0451  0.3022
15988W        W32172   6.222  13.093  14.455  0.3634 -0.1280  0.0366
15989W        W32173  16.700   4.208  13.730 -0.0448  0.1310  0.1909
15990W        W32174   4.665  13.836   2.845 -0.1286 -0.0728  0.3090
15991W        W32175   6.559   7.512   5.363  0.3699 -0.0620 -0.0973
15992W        W32176   3.789   8.648   2.976 -0.1364  0.0347  0.1739
15993W        W32177   3.741   0.782   2.897 -0.1298  0.1069  0.3702
15994W        W32178  17.560   2.155  12.915 -0.1891 -0.2585 -0.0967
15995W        W32179  16.345   4.818  12.986  0.3627 -0.1500  0.3263
15996W        W32180  10.277   3.239   4.137 -0.2828  0.1812  0.0646
15997W        W32181   8.015  17.133   3.148 -0.0743 -0.2693 -0.1126
15998W        W32182   8.173   6.473  13.032  0.0198  0.1758 -0.0670
15999W        W32183   6.129   9.932   2.488 -0.0057 -0.0981  0.0052
16000W        W32184   1.853  14.664  10.512  0.0178  0.0811  0.0121
16001W        W32185  13.346  17.306   3.827 -0.2516  0.0035  0.0378
16002W        W32186   3.970  11.311  10.666 -0.2818  0.0346  0.4532
16003W        W32187   0.775  13.230   1.911 -0.3455 -0.1077  0.0966
16004W        W32188   8.368   8.294   3.634 -0.0817  0.0434 -0.3024
16005W        W32189   1.466   7.239  15.067 -0.3805 -0.1343 -0.4515
16006W        W32190  10.689   0.149   1.209 -0.0060 -0.0663 -0.0142
16007W        W32191  14.964  10.817   4.925  0.0448  0.1899 -0.1789
16008W        W32192  11.689  12.070   3.190  0.1996  0.1263  0.0003
16009W        W32193   5.695  13.851   5.325  0.0350  0.1543 -0.0274
16010W        W32194   5.353  14.747  15.113  0.2614  0.1232  0.3293
16011W        W32195  14.187   8.858  11.849 -0.2222 -0.0953  0.3159
16012W        W32196  12.450  10.819   4.413  0.1457 -0.0751  0.1869
16013W        W32197  10.467   7.362  12.888 -0.1013  0.3608  0.2129
16014W        W32198   3.517   4.814   1.292 -0.0085 -0.1849  0.1430
16015W        W32199  16.993   8.772  11.043 -0.3229 -0.1425 -0.2452
16016W        W32200   3.158   3.917   2.476 -0.0679  0.1746  0.0934
16017W        W32201   8.417   4.980   1.096 -0.0782  0.1359  0.0979
16018W        W32202   8.662  13.862  14.714 -0.1043 -0.2951  0.3823
16019W        W32203  10.009  18.041  10.492  0.1901  0.1222  0.2178
16020W        W32204  10.879  14.689   2.071 -0.1393 -0.4176  0.2534
16021W        W32205  17.595  10.985   0.276  0.0237 -0.0287 -0.0239
16022W        W32206   4.337  10.874   3.164  0.2022  0.3007  0.1960
16023W        W32207  17.369   2.714  15.171  0.0753 -0.0298 -0.0986
16024W        W32208  14.881   1.415  10.930 -0.0451 -0.3397 -0.1478
16025W        W32209  11.779   7.155   2.428  0.0189 -0.0132  0.2423
16026W        W32210   9.639   9.635  11.634  0.0656  0.2086 -0.0453
16027W        W32211  13.338   4.763   5.128 -0.3587 -0.2411  0.0867
16028W        W32212  12.497  13.805  11.839 -0.1177 -0.3167  0.1332
16029W        W32213  13.326  17.379  11.691 -0.1016 -0.2860  0.1048
16030W        W32214   7.734  12.845  15.317 -0.0640  0.0317  0.0521
16031W        W32215  11.466   7.574  10.665  0.0308  0.0616  0.2088
16032W        W32216   5.817   4.349   1.276 -0.1829 -0.0102 -0.3801
16033W        W32217  15.282  12.246   2.108  0.0492  0.1220  0.2111
16034W        W32218   7.860   2.632   5.198 -0.1399  0.0786  0.0517
16035W        W32219   7.633  15.370   3.849  0.2960 -0.1631  0.1668
16036W        W32220   8.091   2.645  14.128 -0.0142  0.1714 -0.0761
16037W        W32221   3.824  14.074   5.379  0.1910  0.1356 -0.0671
16038W        W32222   2.649   0.786   5.061 -0.2753  0.2805  0.1300
16039W        W32223  12.503   4.896  14.601  0.0875 -0.2348  0.2204
16040W        W32224   5.710   9.356   3.096  0.0206  0.2218 -0.5904
16041W        W32225  15.682   6.045  12.104  0.1168 -0.1515 -0.2284
16042W        W32226   6.306  14.888  11.321  0.0635  0.0365 -0.1497
16043W        W32227  17.824   3.713   4.539 -0.0391 -0.0300 -0.2433
16044W        W32228  11.529  10.138  14.841  0.0844 -0.0908  0.1882
16045W        W32229   1.821  11.453   3.538 -0.3360 -0.1206 -0.2402
16046W        W32230  16.051   2.432   4.584 -0.1531  0.1972  0.2388
16047W        W32231  17.288   4.622   4.430 -0.3668  0.1338 -0.3929
16048W        W32232  12.356   8.543   0.878  0.3761 -0.1229  0.2343
16049W        W32233  10.547   7.279   1.403  0.3583 -0.2943  0.0777
16050W        W32234   0.074  12.513  13.385  0.0196 -0.0671 -0.0007
16051W        W32235  10.356   3.375   2.730 -0.1372 -0.0281  0.1119
16052W        W32236  18.071   2.230   2.262 -0.0013 -0.0036 -0.4864
16053W        W32237  13.407  15.781  10.806  0.0636 -0.1510  0.1999
16054W        W32238   1.907  11.522  11.259  0.1438 -0.1328  0.1025
16055W        W32239   1.813  17.086   3.114  0.2737 -0.0234 -0.1751
16056W        W32240  17.146   0.012  14.463 -0.2900  0.0443  0.2066
16057W        W32241   2.698   7.980  14.076  0.0989 -0.0958 -0.2669
16058W        W32242  16.716  17.511  14.831  0.1792 -0.2279  0.0379
16059W        W32243  10.784   4.710   4.671  0.1978  0.0141  0.2313
16060W        W32244   3.626  11.851  14.781 -0.0096 -0.3457  0.4276
16061W        W32245   0.059   7.750   0.366  0.2379  0.0081 -0.0105
16062W        W32246  17.361  14.697   3.855  0.1630 -0.3048  0.0741
16063W        W32247   2.518  10.371   1.098 -0.0988  0.1751 -0.1303
16064W        W32248   1.442   2.594   3.720  0.2050  0.0456  0.3467
16065W        W32249  16.430   7.734  12.028 -0.4473  0.0435 -0.0738
16066W        W32250  11.192   1.022   2.251 -0.0592  0.0503  0.0652
16067W        W32251   6.865   2.344   5.040 -0.0999 -0.3840 -0.1192
16068W        W32252   3.301  16.583  12.324  0.2504 -0.2664  0.1256
16069W        W32253  14.214   8.352   4.938 -0.2624  0.0066  0.1562
16070W        W32254  14.451  15.291   5.609 -0.0230  0.1420 -0.1343
16071W        W32255   9.843   0.647   4.532 -0.0740 -0.0162  0.2744
16072W        W32256   2.147  18.631   3.035  0.1464 -0.6140 -0.2608
16073W        W32257  16.198  11.010  11.516 -0.4095  0.1180 -0.1971
16074W        W32258  14.900   0.733   2.675  0.2652 -0.0365  0.1162
16075W        W32259  13.575  15.869   2.398  0.4331  0.2166  0.0119
16076W        W32260   5.693   3.525   4.722  0.0437  0.2276  0.1254
16077W        W32261  11.401  16.748   4.667  0.5437 -0.0362  0.2431
16078W        W32262  17.712   4.142   2.629  0.0524 -0.0273 -0.3541
16079W        W32263   6.301  11.454   4.939 -0.0198 -0.1420  0.1733
16080W        W32264  15.655  18.210  11.224 -0.0732 -0.0277 -0.0888
16081W        W32265   8.748   6.695   5.282  0.0095  0.0324  0.1142
16082W        W32266  13.875  13.235   1.551  0.2721 -0.1238 -0.3408
16083W        W32267   9.004   1.088   3.948  0.1003 -0.2600 -0.1322
16084W        W32268   5.804   6.257  13.459  0.0062  0.0981  0.1191
16085W        W32269  13.859  13.830  14.475 -0.0698 -0.0587  0.1627
16086W        W32270  15.448   7.336   4.091 -0.0152  0.2083  0.1974
16087W        W32271   6.181  12.015  11.739  0.0881  0.2038  0.2811
16088W        W32272   6.807  13.379  10.832  0.2084  0.0297  0.0144
16089W        W32273   0.020  12.537  12.804 -0.0744 -0.0695  0.1865
16090W        W32274  14.496   7.524   2.359 -0.0643  0.2157  0.2065
16091W        W32275   8.571   9.658  12.880  0.2881  0.3266 -0.0397
16092W        W32276   5.411  18.175  14.178 -0.1139  0.2011 -0.1718
16093W        W32277  12.989   3.675  13.187  0.0661 -0.4474 -0.1567
16094W        W32278  12.560   6.618  13.637  0.0391 -0.1716  0.2539
16095W        W32279   5.338   0.566  15.166  0.1991  0.1802  0.0517
16096W        W32280  11.602  17.710   3.122  0.0881  0.0650 -0.3658
16097W        W32281  13.199   7.058   2.655 -0.0319  0.1226  0.1104
16098W        W32282   3.642  10.465   4.643 -0.0969 -0.0387  0.0698
16099W        W32283   7.754  14.000   5.146 -0.2000 -0.1126 -0.2308
16100W        W32284   6.660   3.811  14.193 -0.0335  0.0463  0.1971
16101W        W32285   1.804  15.652  15.166 -0.0100  0.1328  0.1886
16102W        W32286  12.127   9.836   4.531  0.1547 -0.1186 -0.0991
16103W        W32287   3.130  14.830  14.815  0.1911  0.0751  0.1870
16104W        W32288   6.016  14.523  12.546 -0.1994 -0.0346 -0.1701
16105W        W32289   5.802   6.677  12.631  0.2347  0.2920 -0.1256
16106W        W32290  15.096  16.169   2.171 -0.2871  0.0859  0.0310
16107W        W32291   9.809  10.322   3.556 -0.1210  0.1119 -0.1261
16108W        W32292   3.491  15.481   9.722 -0.3982  0.0396  0.2437
16109W        W32293  16.577   1.947  14.058  0.0532 -0.1660 -0.0506
16110W        W32294   9.524   1.051   1.090  0.2670 -0.3733  0.0472
16111W        W32295   5.678   6.675  12.148 -0.1498 -0.4216 -0.3966
16112W        W32296   2.275   9.974   4.814  0.1001 -0.2213  0.0182
16113W        W32297   1.523   0.979  10.917  0.0352  0.1846 -0.1383
16114W        W32298   4.827  11.937  14.062  0.2162  0.1457  0.0874
16115W        W32299   9.830   7.497   0.943 -0.1743  0.0695  0.1097
16116W        W32300  15.780   8.266  13.588 -0.0273  0.0089 -0.0251
16117W        W32301  18.482   7.630  12.231  0.0600 -0.0959 -0.1337
16118W        W32302  15.280   0.699   0.496 -0.0655  0.0153  0.0832
16119W        W32303   9.190  14.896   3.374 -0.3457 -0.0598 -0.1752
16120W        W32304  16.021   6.325  12.371 -0.3105  0.4271  0.3965
16121W        W32305   0.330  14.510  13.346 -0.3210 -0.3851  0.0027
16122W        W32306  18.157   7.598   2.764 -0.1481  0.0826 -0.1328
16123W        W32307  16.720   9.546  13.936 -0.0207  0.4313  0.2749
16124W        W32308   5.417  10.303   3.519  0.0495  0.0545 -0.1070
16125W        W32309  15.019  12.713   2.726  0.1451 -0.1483  0.2353
16126W        W32310   9.240  14.695  11.492 -0.2759 -0.1971  0.3062
16127W        W32311   0.305  14.049   1.873  0.1298 -0.0700 -0.0841
16128W        W32312   9.523  17.471   5.268 -0.2085  0.0985  0.2357
16129W        W32313  14.281  17.529  14.120 -0.0555 -0.2970 -0.0871
16130W        W32314   5.837  11.289  14.563  0.4424  0.0461  0.0086
16131W        W32315   8.572  10.738  15.509 -0.0008 -0.2459 -0.1382
16132W        W32316   1.057   6.135  13.056  0.2559 -0.0560 -0.3130
16133W        W32317  10.094  10.009   5.171 -0.3171  0.1595  0.0063
16134W        W32318  17.831   5.338  13.958  0.0844  0.2214  0.1222
16135W        W32319  13.613  12.557   5.517 -0.2362 -0.1148  0.2027
16136W        W32320   8.646  16.498   2.633  0.1001  0.1761  0.0479
16137W        W32321  14.629   3.026  15.057 -0.3436  0.1859 -0.0895
16138W        W32322  18.816   7.205  13.862  0.2405 -0.2609  0.4152
16139W        W32323   5.444  13.117  11.318  0.0815  0.1336 -0.1066
16140W        W32324  14.923   5.243  11.578 -0.1808  0.2898  0.0466
16141W        W32325   5.593   7.938   2.551 -0.1180  0.0080  0.2037
16142W        W32326   9.188  10.948  13.953 -0.3029  0.3492 -0.0326
16143W        W32327   8.225  18.163  14.212  0.3066  0.0329 -0.1554
16144W        W32328   3.669   6.337   1.147 -0.0111 -0.1243  0.0282
16145W        W32329   0.661   2.226   0.844 -0.0055 -0.1768  0.1393
16146W        W32330  15.289  13.665  12.424 -0.3631 -0.2594 -0.4979
16147W        W32331   2.643   8.857  15.167  0.0099  0.3152  0.2001
16148W        W32332   0.193   3.585   0.884 -0.1969  0.0669 -0.0795
16149W        W32333  13.462  12.594   2.064 -0.0305  0.2610 -0.1537
16150W        W32334  13.899   5.406  11.449 -0.1673  0.1123 -0.3980
16151W        W32335   7.889  15.916   3.842 -0.0278 -0.3926  0.2391
16152W        W32336   8.504   6.010   2.909 -0.0839  0.1334  0.1177
16153W        W32337   7.592   7.385   4.145  0.3024 -0.2758  0.1289
16154W        W32338  13.129   3.192   5.160 -0.1745  0.1909 -0.1547
16155W        W32339   7.027   8.139   3.448  0.3200 -0.2310  0.0740
16156W        W32340  17.502   9.193  15.006  0.0060 -0.3005  0.0524
16157W        W32341  10.662  14.409   1.076  0.0172  0.0059 -0.4719
16158W        W32342   9.981  10.100   2.372 -0.1333 -0.0329 -0.1549
16159W        W32343  15.794  17.125  11.378  0.0430 -0.1530  0.1953
16160W        W32344  11.676   3.828   3.586  0.1733 -0.3608 -0.5332
16161W        W32345  14.218   1.580   3.337 -0.2448 -0.2102  0.2241
16162W        W32346   6.468  14.317   5.059  0.0065 -0.1713  0.2481
16163W        W32347   3.326   1.212   0.605  0.1885  0.3942  0.3690
16164W        W32348  11.639   8.713   3.855  0.1819  0.0472 -0.1938
16165W        W32349   7.550   2.330   3.033 -0.1139  0.0336  0.0461
16166W        W32350  13.749  16.481   4.212 -0.3282  0.2481  0.0021
16167W        W32351  12.401  15.082  13.349  0.2586 -0.0524  0.0325
16168W        W32352   2.382   0.358  12.153  0.0378  0.2545  0.2786
16169W        W32353  12.576   4.994  13.667 -0.3387 -0.1576  0.0101
16170W        W32354  13.105   3.063   1.937 -0.0569  0.1945 -0.2010
16171W        W32355  18.513   7.609   3.416 -0.2652 -0.1856  0.0348
16172W        W32356  13.637   4.822   3.902 -0.0374 -0.0413 -0.1405
16173W        W32357  15.192  10.784   3.613 -0.0606 -0.2057  0.1249
16174W        W32358  12.967   9.936   1.933  0.1351  0.0997  0.0425
16175W        W32359  15.936  11.794   1.084 -0.0827  0.2596  0.0871
16176W        W32360  17.649   2.367   4.812  0.1075 -0.0518 -0.0497
16177W        W32361  11.301   2.611   4.597 -0.1343  0.1895  0.0032
16178W        W32362  14.908  10.777  13.632 -0.3215  0.1847 -0.1304
16179W        W32363   1.662  17.508   1.740 -0.1338  0.3237 -0.0010
16180W        W32364  14.357   7.201   2.710 -0.2356 -0.1612 -0.0596
16181W        W32365  15.212   1.339  15.422 -0.3495  0.0868  0.0382
16182W        W32366  10.345  15.289  12.057  0.0401 -0.3206  0.1449
16183W        W32367   7.969  14.559  10.947  0.0525  0.0306  0.1082
16184W        W32368  17.899   5.618   2.648 -0.0634 -0.0065  0.3069
16185W        W32369   9.547   3.127   3.818  0.0883  0.3572 -0.0091
16186W        W32370   3.617  17.902   5.178 -0.0665 -0.0358  0.0231
16187W        W32371   1.572  12.827  13.089  0.0332  0.2060  0.3624
16188W        W32372  13.464   1.154   1.690 -0.0322 -0.0161 -0.3712
16189W        W32373   3.341  10.596  13.967  0.2795 -0.1862 -0.1697
16190W        W32374  16.327  15.726   4.913  0.0236 -0.1058  0.3033
16191W        W32375   5.012   7.282  13.380 -0.0102  0.5154 -0.4878
16192W        W32376   7.541  15.957   1.270 -0.2092  0.1324  0.1338
16193W        W32377   5.232  13.918   2.386  0.1779  0.0032 -0.1187
16194W        W32378   9.054   4.434   5.062 -0.4537  0.2467 -0.0647
16195W        W32379  17.414  11.363  13.275  0.2399 -0.3264 -0.5056
16196W        W32380  13.662  14.631   3.009 -0.0555 -0.1397  0.2212
16197W        W32381   2.528  11.095  10.022 -0.0336  0.3637 -0.2319
16198W        W32382   6.525  14.582   1.446 -0.0863  0.0596 -0.2606
16199W        W32383  14.663  12.921   1.092  0.3539  0.0609 -0.1552
16200W        W32384   1.061   6.137  15.460 -0.0048 -0.2670 -0.1554
16201W        W32385  14.858   7.884   3.696 -0.2953  0.1557 -0.0996
16202W        W32386  13.588   2.296   0.180  0.1491  0.0505  0.0305
16203W        W32387   9.825   8.980  14.951  0.0462 -0.0710  0.1411
16204W        W32388   1.509  13.765  12.824 -0.1312  0.4814 -0.3169
16205W        W32389   2.144   5.114   3.461 -0.4189  0.0612  0.1189
16206W        W32390   1.983  16.165   3.411 -0.2067  0.0945 -0.0765
16207W        W32391   5.184   0.729   0.467  0.2202 -0.3345  0.3351
16208W        W32392  13.889   1.131  10.940 -0.0436  0.1334 -0.1497
16209W        W32393   6.073   3.818   3.491  0.1202  0.0771  0.1933
16210W        W32394   0.219  11.449   5.596 -0.1182 -0.0630 -0.0358
16211W        W32395  16.262   9.381  12.696 -0.0195  0.2340 -0.0750
16212W        W32396   4.804   0.158  11.859 -0.2319  0.0579 -0.0921
16213W        W32397   4.968  15.350  14.254  0.2431  0.0454  0.1863
16214W        W32398   5.723   5.742   0.979  0.1789  0.1501  0.2391
16215W        W32399   5.968  10.364  13.705  0.1462  0.1897 -0.1857
16216W        W32400   6.350   7.163  12.606  0.0574  0.0779  0.4473
16217W        W32401  12.045   0.766  11.559 -0.4841 -0.3135 -0.0411
16218W        W32402  14.521   7.119  11.786 -0.1833  0.2377 -0.0607
16219W        W32403   1.876  10.738  10.901  0.0899 -0.1989  0.3398
16220W        W32404   0.753  16.092  10.517 -0.1581  0.2172  0.0702
16221W        W32405  13.717   3.471   4.028  0.0423 -0.0176  0.0408
16222W        W32406  16.010   9.527   3.667 -0.2363  0.0613 -0.0402
16223W        W32407  18.252   0.098   5.859  0.0005  0.0363 -0.1155
16224W        W32408   8.493   0.941  12.019 -0.1155 -0.2592  0.0372
16225W        W32409   2.928  13.379   9.574  0.1777 -0.1754 -0.1425
16226W        W32410   6.656   6.381  12.168 -0.1391  0.1570  0.3218
16227W        W32411   3.681  15.037   0.600 -0.0197 -0.1508 -0.2237
16228W        W32412   4.757  16.095  11.116  0.2495  0.0449  0.2092
16229W        W32413   1.566   3.255   5.819 -0.0759  0.3162  0.0541
16230W        W32414  13.599   3.008   4.225 -0.1739  0.0480 -0.2651
16231W        W32415   5.450   0.012   2.007 -0.1270 -0.0761 -0.0366
16232W        W32416  15.493  10.416   2.832 -0.2813  0.1689  0.0616
16233W        W32417   4.810  18.105  14.214  0.2704 -0.0006  0.1826
16234W        W32418  18.462   7.846   4.685 -0.2080 -0.2070  0.3513
16235W        W32419   7.653   7.282  10.691 -0.0225  0.2712  0.1331
16236W        W32420  13.927   6.394   4.812  0.2724  0.1057 -0.1844
16237W        W32421  11.800   1.362   4.616  0.1246 -0.0594  0.2471
16238W        W32422  15.805   2.182  12.821 -0.0937 -0.1008 -0.1911
16239W        W32423  18.553   7.038  14.308 -0.3493  0.0497  0.0181
16240W        W32424  13.370   9.552   5.099  0.2563  0.1075  0.1735
16241W        W32425   9.342   1.543  13.649 -0.0384  0.3635 -0.0232
16242W        W32426   7.910  17.903  12.470  0.1310 -0.0900 -0.1166
16243W        W32427  15.913   3.275   3.161  0.0895  0.0840  0.0408
16244W        W32428   2.278   1.997   4.808 -0.2867 -0.0621 -0.2221
16245W        W32429  10.200  11.252  13.713  0.1606 -0.1176  0.2221
16246W        W32430   5.192   8.939  12.545 -0.2119 -0.0533  0.0183
16247W        W32431  14.634   2.961  14.585 -0.0441  0.1287  0.0892
16248W        W32432   9.893  12.819   3.413  0.1847  0.1629  0.0003
16249W        W32433   7.612   3.825   0.106  0.1797 -0.0737  0.3382
16250W        W32434  10.963  16.407   3.475  0.1904 -0.2463 -0.0714
16251W        W32435  14.517   6.433   3.705  0.1237  0.2333  0.0888
16252W        W32436  18.816  15.791  14.659  0.0574 -0.0170  0.1434
16253W        W32437  17.941  10.023  14.866  0.1791 -0.0354 -0.2845
16254W        W32438   5.671   3.582  14.954  0.0656 -0.2923  0.0332
16255W        W32439  10.693   3.587  12.895  0.0744 -0.0061 -0.0793
16256W        W32440  13.469   6.479   2.437  0.1330 -0.2815  0.0214
16257W        W32441   3.375  18.380   5.671 -0.1064  0.1623  0.0620
16258W        W32442  13.809  12.956  13.152  0.2294  0.1080  0.2112
16259W        W32443   7.805  18.227  11.042 -0.1788 -0.4285 -0.0224
16260W        W32444  14.137   3.310   5.379 -0.0611 -0.3746 -0.1885
16261W        W32445   2.934  16.390  13.188 -0.3660 -0.0112  0.0653
16262W        W32446  10.571   2.834   3.998 -0.1413  0.2110  0.2165
16263W        W32447  18.079  17.871   3.873  0.0550 -0.1371  0.2140
16264W        W32448  11.842   0.161  13.100 -0.0959  0.0413 -0.1997
16265W        W32449   2.348   6.804  11.515  0.0793 -0.1554 -0.1059
16266W        W32450   9.425   1.464   3.065 -0.2731  0.3363 -0.4263
16267W        W32451  11.484  14.520   2.625  0.2319  0.1261 -0.2054
16268W        W32452   3.325   6.471   2.002 -0.0576  0.0636  0.2778
16269W        W32453  13.311  12.937   4.608  0.0062 -0.4527 -0.1794
16270W        W32454   2.453  13.972   3.570  0.3409 -0.0476 -0.1571
16271W        W32455   2.498  14.017   4.133 -0.0157  0.3148  0.1955
16272W        W32456   9.783   3.673   2.377 -0.2144 -0.1360 -0.1094
16273W        W32457  18.489  12.036   1.389 -0.3129  0.1874  0.1582
16274W        W32458  15.870   0.450   2.474  0.0928 -0.2011 -0.0126
16275W        W32459  12.728   5.036   0.932  0.0070 -0.1329  0.4946
16276W        W32460  17.724   8.961   1.331 -0.1348 -0.1473 -0.0745
16277W        W32461   2.206  14.004   2.059 -0.0879  0.0579 -0.1985
16278W        W32462  14.309  17.070   0.926  0.0433 -0.2540  0.0343
16279W        W32463   5.227   4.363   4.286 -0.0983 -0.2485 -0.1154
16280W        W32464  12.182  17.142   2.487 -0.1745 -0.2503 -0.0042
16281W        W32465  15.603  16.276  10.225  0.0279 -0.2807 -0.2902
16282W        W32466   1.607  11.389   0.831 -0.1614  0.1013 -0.4618
16283W        W32467  12.993   1.410   1.605 -0.1855 -0.0424  0.3266
16284W        W32468  11.400   0.381   5.591 -0.2268 -0.0705  0.2470
16285W        W32469   0.727   3.719   1.818  0.0010  0.0508 -0.0870
16286W        W32470  16.377   6.280   2.321  0.0989  0.1732 -0.1534
16287W        W32471  12.524   3.783   1.622 -0.2063  0.4640  0.0245
16288W        W32472   6.568   0.499   0.720 -0.0298 -0.0768 -0.1076
16289W        W32473  13.158   3.354   1.526  0.0613  0.1873  0.2522
16290W        W32474  17.278  11.800   1.112  0.0841 -0.2944 -0.1265
16291W        W32475  10.793  17.329   2.434 -0.1392 -0.1334 -0.0206
16292W        W32476  12.360  11.212   2.127 -0.0574  0.2218  0.0030
16293W        W32477  16.855  13.781  12.531  0.1372  0.0671 -0.2075
16294W        W32478   6.700  12.868  13.069 -0.0380 -0.0880  0.1934
16295W        W32479  18.582  16.244   2.703 -0.1568  0.0830 -0.0942
16296W        W32480  12.449  11.446  13.120  0.1127  0.0633  0.0678
16297W        W32481   8.637  15.643  14.314  0.1292  0.4384  0.2003
16298W        W32482  15.812   8.151   4.578  0.1200 -0.2230  0.0859
16299W        W32483   2.127   5.127   4.496 -0.0101 -0.3426  0.1967
16300W        W32484   2.003  17.906   4.514  0.1138  0.5057 -0.0333
16301W        W32485  11.329  18.626  11.105  0.1825  0.1065 -0.0489
16302W        W32486  18.021   6.487   1.316  0.1469 -0.1074 -0.2277
16303W        W32487  15.973   8.938  15.438  0.1126 -0.1478 -0.0136
16304W        W32488   0.678   9.977   1.474  0.2043  0.1957  0.0592
16305W        W32489  18.714   3.815   4.781 -0.1178 -0.1148  0.0205
16306W        W32490  13.147  14.188  15.501  0.0208  0.0318  0.1306
16307W        W32491  12.800  18.021  11.680 -0.0330  0.0677  0.0042
16308W        W32492   5.319  11.248   3.381  0.0064 -0.0162 -0.0515
16309W        W32493  14.698   9.010  11.943 -0.4546  0.1874 -0.2809
16310W        W32494   5.578   3.466  14.086 -0.0239 -0.0750 -0.0102
16311W        W32495   2.361  14.791   2.191  0.4559  0.1215 -0.0449
16312W        W32496  18.400   7.127   0.746 -0.2214  0.1551 -0.0290
16313W        W32497  12.126   7.953   0.014  0.1015 -0.0337 -0.1821
16314W        W32498  17.217   2.775   1.945 -0.2558  0.1463 -0.0876
16315W        W32499   2.424  13.865   5.256 -0.0467 -0.2207  0.0376
16316W        W32500   5.111  17.565  14.132 -0.0452 -0.2486 -0.1546
16317W        W32501   5.024   1.846   3.833 -0.2945 -0.1590 -0.1778
16318W        W32502  15.035  12.882  14.385 -0.0148 -0.1697 -0.1498
16319W        W32503  15.558  18.638  13.281 -0.0919 -0.2536 -0.0222
16320W        W32504   2.243  10.962   0.977 -0.3970  0.2713  0.0450
16321W        W32505   3.244  12.371  13.654  0.4015  0.4045  0.0300
16322W        W32506  17.484   9.888   1.629  0.3031  0.1318  0.2421
16323W        W32507   5.770   6.784   0.645  0.5303  0.0003  0.4105
16324W        W32508  11.606  17.136   3.007 -0.0428  0.1031  0.0203
16325W        W32509   3.898   9.444   3.808 -0.0852 -0.0619 -0.2765
16326W        W32510   1.152   7.457   2.402  0.1746  0.1813  0.0472
16327W        W32511   0.562  16.173   1.482 -0.3092 -0.0458 -0.0403
16328W        W32512  10.695   8.839   1.118 -0.2192 -0.2210  0.1894
16329W        W32513  13.029   3.602   2.877 -0.0676  0.0402  0.0631
16330W        W32514  10.684   9.498   0.409 -0.0352  0.0974  0.0968
16331W        W32515   7.565  18.008   3.290 -0.1076 -0.0226 -0.3909
16332W        W32516   9.475   2.385  13.768  0.3072 -0.0897 -0.5194
16333W        W32517  15.369  12.390   2.596  0.3738 -0.1279  0.0494
16334W        W32518   4.351  15.473   4.203  0.3519  0.2160  0.0754
16335W        W32519  13.297  16.814   3.490 -0.3187  0.2359  0.0978
16336W        W32520  17.004   7.843  10.790 -0.1244 -0.1914 -0.0142
16337W        W32521   6.043  15.132  14.149  0.1167  0.4332  0.1246
16338W        W32522   3.442  17.423  11.838 -0.0755  0.2104  0.1192
16339W        W32523   6.565  10.470  12.284  0.0679 -0.0378 -0.0535
16340W        W32524   2.413   8.582  12.104  0.0583 -0.2109 -0.3110
16341W        W32525  16.816   4.461   3.590 -0.1777  0.2031  0.2983
16342W        W32526   6.690  16.140  15.449 -0.1168  0.0085 -0.1887
16343W        W32527  15.235   9.158   0.388 -0.0801  0.0564  0.0503
16344W        W32528  10.542   6.346   2.180  0.2809 -0.4051 -0.0453
16345W        W32529  14.496   1.649  11.572  0.2123  0.0729 -0.2638
16346W        W32530   8.581   4.386   4.265  0.2846 -0.0214  0.1767
16347W        W32531  10.044  12.064  11.276 -0.0282  0.2364  0.0576
16348W        W32532  10.564   1.334  14.592 -0.1907 -0.0402  0.3582
16349W        W32533  13.077  14.712   4.299  0.2139  0.0971  0.2958
16350W        W32534   9.962   1.368  12.008  0.0979  0.3201 -0.1641
16351W        W32535  15.243  13.577   4.026 -0.0007  0.2255  0.0922
16352W        W32536  13.503   4.268   1.239 -0.1148 -0.1904  0.1865
16353W        W32537   6.590   6.197   0.816  0.2018  0.1177 -0.3260
16354W        W32538  18.291  13.850  11.209 -0.0505 -0.4481  0.1907
16355W        W32539  14.712   4.923   2.102 -0.3803 -0.3058  0.0808
16356W        W32540   5.129  11.315   2.091 -0.2121  0.0587  0.0112
16357W        W32541   1.341  17.064   0.490  0.0674  0.0249  0.0721
16358W        W32542  15.022   1.005   1.733 -0.2633  0.2737  0.0798
16359W        W32543  18.357  15.875  10.125 -0.1976 -0.0444 -0.1043
16360W        W32544  17.700  13.665  14.698 -0.2744  0.0610  0.3405
16361W        W32545  18.392   5.270   4.264 -0.1954  0.0454 -0.3357
16362W        W32546  10.598  10.370   1.553  0.1073  0.3653 -0.3316
16363W        W32547  13.192  15.388   3.693 -0.1601 -0.3941 -0.1231
16364W        W32548  13.099  11.378   3.111  0.0174 -0.0811  0.2119
16365W        W32549  14.176   6.118  12.492 -0.0714 -0.2390  0.3729
16366W        W32550   3.518  14.477   4.586  0.0672 -0.3579 -0.0473
16367W        W32551  11.322   6.648  14.211  0.2183  0.0364 -0.2051
16368W        W32552  17.163   7.004  11.589  0.1219  0.0750 -0.0381
16369W        W32553   4.879  16.689  12.197 -0.0510 -0.1366 -0.0229
16370W        W32554  17.209   2.440   0.097 -0.1794  0.0586 -0.1783
16371W        W32555   9.370  17.588  12.786 -0.1402  0.2702 -0.1134
16372W        W32556   5.350   6.630   3.993  0.2358 -0.3939  0.0659
16373W        W32557   8.327  14.976   3.238  0.0678  0.0819 -0.3386
16374W        W32558   7.031   0.379  15.092 -0.0474  0.3074  0.0319
16375W        W32559   0.376   4.431   0.281  0.2114  0.0131  0.1588
16376W        W32560  10.241  12.688  14.641  0.0761 -0.2049  0.3917
16377W        W32561   6.121   9.096   1.215 -0.1169  0.0408 -0.5174
16378W        W32562   7.326  17.709   2.948  0.1768  0.0592 -0.1976
16379W        W32563   0.843   8.196  10.941  0.2129 -0.1416  0.3799
16380W        W32564  18.288   8.603   1.662  0.2119 -0.5094 -0.5546
16381W        W32565   0.178  18.844   1.897  0.0916 -0.0368  0.2200
16382W        W32566   8.383   3.067   1.981  0.0250 -0.0719 -0.2598
16383W        W32567   0.577  10.522   3.040  0.2870  0.0077 -0.0861
16384W        W32568   5.442  13.623  12.072  0.0488 -0.2717 -0.3677
16385W        W32569   5.184  10.855  11.450  0.3467 -0.0646 -0.0085
16386W        W32570  16.572   2.456  13.346  0.1424 -0.2068 -0.0065
16387W        W32571   3.133   3.690  10.999 -0.1126  0.4906 -0.1171
16388W        W32572  11.690   2.541  11.763  0.1785 -0.2636  0.2458
16389W        W32573  12.958  15.305   3.246 -0.1121 -0.0629 -0.1093
16390W        W32574  18.806   3.929   4.206 -0.0601 -0.0355 -0.0006
16391W        W32575   4.506  16.419   2.299  0.4691  0.2388 -0.2226
16392W        W32576  12.945  13.685  11.976 -0.0318  0.1819 -0.3532
16393W        W32577   9.334   0.845   1.801 -0.0846  0.1143 -0.0121
16394W        W32578   9.191  14.047   3.095 -0.0569  0.1051  0.1439
16395W        W32579   8.035  15.726   1.161  0.0034  0.0929  0.1303
16396W        W32580   7.410   4.920   0.983  0.2486 -0.0781 -0.2919
16397W        W32581  11.524   7.685  15.487 -0.0952 -0.0400 -0.1348
16398W        W32582  14.737   5.820   3.137 -0.1848  0.3490  0.0152
16399W        W32583  14.558   0.912   5.619 -0.0306  0.2657  0.0244
16400W        W32584  15.601   7.402  14.190  0.1931 -0.1780 -0.0907
16401W        W32585  17.833   4.096   1.533  0.0342  0.1166 -0.2528
16402W        W32586   2.632   1.945   1.061  0.1705 -0.0439  0.0377
16403W        W32587   3.788   7.056  13.909 -0.2611 -0.1044  0.0812
16404W        W32588   3.217   1.537  12.927 -0.0146  0.0639  0.0197
16405W        W32589   1.643   9.368  12.660  0.3442  0.0268 -0.0684
16406W        W32590  13.972   9.757   2.323  0.0510  0.0991 -0.1742
16407W        W32591  15.524  18.710  12.755  0.5421  0.1439 -0.3341
16408W        W32592   3.256  11.973  11.694 -0.1953  0.0839  0.1877
16409W        W32593   0.879   3.055   5.223 -0.0512 -0.3028  0.1162
16410W        W32594  15.124  14.153   0.687  0.2621  0.1345 -0.0680
16411W        W32595  12.436  13.173  11.712  0.3099 -0.0898  0.2433
16412W        W32596   4.476  15.493  13.017  0.0824  0.0615  0.0856
16413W        W32597  17.948   4.962   5.390 -0.1657  0.0052  0.1927
16414W        W32598  12.042   8.819  14.782 -0.0854 -0.0629 -0.0886
16415W        W32599   2.592   4.688  15.521  0.0860  0.1036  0.1965
16416W        W32600  12.238  17.616  15.409  0.1559  0.3056 -0.0212
16417W        W32601  14.168   9.040   2.306 -0.4022  0.1322  0.4243
16418W        W32602   2.051  11.514  13.569  0.3294 -0.3169 -0.0550
16419W        W32603   5.083   4.712   4.658 -0.0910 -0.1520  0.1839
16420W        W32604   7.808  10.989   4.067  0.1312 -0.2242  0.0803
16421W        W32605  14.992   7.113  13.085  0.2520  0.2112 -0.5079
16422W        W32606  12.241  14.969  13.805  0.1271  0.0611 -0.0436
16423W        W32607   5.969   5.745   0.240  0.1406  0.1042 -0.1931
16424W        W32608  14.376  17.695   5.245 -0.2359 -0.1265 -0.2480
16425W        W32609  15.667  16.721  11.969 -0.1449  0.2318 -0.4687
16426W        W32610  13.209  11.966   1.486 -0.0040 -0.1953  0.2405
16427W        W32611  12.703   1.169  12.032  0.0775 -0.1696 -0.2957
16428W        W32612  16.070   9.756  12.468  0.2500  0.2223 -0.0291
16429W        W32613  16.690  15.384   2.783 -0.1082  0.2148  0.1321
16430W        W32614   2.216   5.188  14.589 -0.1909 -0.0737  0.1581
16431W        W32615  11.992   3.756   4.098  0.2550 -0.1581 -0.2062
16432W        W32616  12.641   5.285   4.650 -0.0792 -0.1094  0.0734
16433W        W32617  10.864  13.440  11.852  0.1536  0.1596  0.2812
16434W        W32618   8.492   1.771   1.094  0.1205  0.1919  0.3056
16435W        W32619  18.038   7.117   0.337  0.1531  0.2609  0.3856
16436W        W32620   8.782  14.055   3.419 -0.0162  0.1287 -0.2279
16437W        W32621   4.404   8.272   4.050  0.1336  0.0621 -0.1433
16438W        W32622   2.216  12.814   1.367 -0.0577 -0.5821  0.0560
16439W        W32623   7.816  11.916   5.460  0.0662  0.1621  0.3091
16440W        W32624   2.076  13.153   4.619 -0.0607  0.1940 -0.0154
16441W        W32625  18.262   0.892   9.858 -0.1144  0.1654 -0.1326
16442W        W32626   3.231   7.708   0.813 -0.1375 -0.3013  0.1506
16443W        W32627  18.006   9.928   1.908  0.1636  0.1906 -0.0039
16444W        W32628  16.965  17.042   3.941  0.0312  0.0167  0.1694
16445W        W32629  17.373  18.646   0.010 -0.0269  0.0333 -0.2362
16446W        W32630  18.169   6.998   1.217 -0.1007 -0.4564 -0.0774
16447W        W32631   1.828   5.784  12.971  0.2502 -0.1335 -0.0701
16448W        W32632  18.222  16.164  13.425  0.1407  0.1327 -0.2528
16449W        W32633  18.571   6.911   3.149 -0.1394 -0.1084  0.1720
16450W        W32634  15.137  14.684  13.392  0.0200  0.0154 -0.1679
16451W        W32635  10.550  13.014  12.839  0.3024  0.0081  0.0153
16452W        W32636   3.003  17.078  11.650 -0.1411 -0.0874  0.0188
16453W        W32637  15.473   4.496   3.599 -0.4660  0.3542 -0.1377
16454W        W32638  14.454   3.743   1.395 -0.1243  0.3493  0.2756
16455W        W32639   1.760  17.554  13.350  0.1296  0.0058  0.0285
16456W        W32640   2.945   7.099   2.769 -0.1255 -0.1916  0.1709
16457W        W32641  16.192   9.901  11.997  0.0117 -0.0002 -0.0167
16458W        W32642  18.826   9.589  15.265 -0.1713  0.2687 -0.0034
16459W        W32643   9.357  10.809   2.362 -0.0375  0.0411 -0.0094
16460W        W32644  17.975  11.254  12.964 -0.1413  0.0796 -0.0436
16461W        W32645   3.267   7.956  15.388 -0.3375  0.1229 -0.1966
16462W        W32646   2.838   0.152  12.491  0.1434 -0.0651 -0.1342
16463W        W32647  10.646  17.058   4.709 -0.0471 -0.0300  0.0075
16464W        W32648  18.518  11.523   2.340  0.1699  0.2979 -0.2354
16465W        W32649   4.663   7.335   5.268 -0.1968  0.0194 -0.0615
16466W        W32650   2.776   5.599  14.346  0.1137 -0.1318  0.1049
16467W        W32651   0.023   6.936  13.190  0.0113 -0.0374 -0.0739
16468W        W32652  12.635  13.438  12.962 -0.0591  0.2912 -0.3987
16469W        W32653  17.198   0.206   4.297  0.1178 -0.0630 -0.0851
16470W        W32654   8.634   5.815  10.752 -0.1235  0.2621 -0.0438
16471W        W32655   7.267   5.730   5.588 -0.3817  0.1032 -0.0346
16472W        W32656   4.368   5.837   1.908  0.0899 -0.0845 -0.0141
16473W        W32657   7.138   1.045  11.406 -0.2675  0.0416  0.0727
16474W        W32658   0.005   9.113  11.287  0.1531  0.4154  0.1086
16475W        W32659  18.045   4.821   0.970  0.0979  0.1618  0.1389
16476W        W32660  11.710  12.085   4.704 -0.1760  0.2930 -0.3727
16477W        W32661   2.534   1.829  12.396 -0.0613 -0.1104 -0.1352
16478W        W32662   5.967   3.181   4.905 -0.0480  0.0009 -0.0560
16479W        W32663   2.948   7.977   3.356  0.1764 -0.1194 -0.0975
16480W        W32664  10.832   1.015   1.509 -0.1986 -0.1403 -0.0510
16481W        W32665  12.194   2.020   3.319  0.0619 -0.0000  0.2371
16482W        W32666  12.962   0.243  11.097  0.0901  0.2031  0.1733
16483W        W32667  15.048  13.153  12.640 -0.1660  0.1299  0.0262
16484W        W32668   5.985   3.860   5.024 -0.2558 -0.2296  0.1004
16485W        W32669   2.809  15.480  14.271 -0.2698  0.0621  0.2123
16486W        W32670   6.762  10.903   1.763 -0.1434  0.0542 -0.1627
16487W        W32671   7.869   1.763  15.276  0.0145  0.3877  0.2425
16488W        W32672   8.655  14.620   3.803  0.0578  0.1160 -0.3469
16489W        W32673  18.737   1.444   1.509 -0.1970  0.1825  0.1475
16490W        W32674  17.958   5.568   4.495 -0.2018  0.0739  0.2798
16491W        W32675   3.023   9.161  11.514  0.2949 -0.2938  0.3815
16492W        W32676  12.264  18.388   0.996  0.1213 -0.1363  0.2412
16493W        W32677   7.191  17.352   3.910  0.1378 -0.1081  0.1477
16494W        W32678   5.940  15.336   3.858  0.1299  0.1463 -0.1344
16495W        W32679  18.136   5.226  11.193  0.1201 -0.4135 -0.0458
16496W        W32680   8.241   3.306   4.023  0.0721 -0.0895 -0.1351
16497W        W32681   6.321  18.614   3.362  0.2523 -0.1862 -0.0573
16498W        W32682   4.534   0.383   3.275 -0.1047 -0.1470 -0.0059
16499W        W32683  11.534   0.528  12.383  0.0857 -0.0810 -0.0966
16500W        W32684  12.245   6.500   0.979  0.2928 -0.2235  0.2154
16501W        W32685   7.653  10.292   2.158  0.0647 -0.2032  0.0874
16502W        W32686   4.773  12.782  12.741 -0.0930  0.0793 -0.0457
16503W        W32687   6.813   6.344  15.011  0.1855  0.1482 -0.0435
16504W        W32688   3.672  14.756   3.815 -0.4494  0.0511  0.2213
16505W        W32689  10.542   9.836   4.311  0.1629 -0.4236 -0.1110
16506W        W32690   9.691   9.117   0.280 -0.0820 -0.0132 -0.2094
16507W        W32691   3.816  18.399   0.687  0.2802 -0.1843 -0.0934
16508W        W32692  12.817  16.313   1.457 -0.2031 -0.1367  0.1499
16509W        W32693   8.701   3.191   2.312  0.2328  0.0109 -0.1678
16510W        W32694   3.865   3.082   2.897  0.0426 -0.0867 -0.0120
16511W        W32695  15.975   0.575   1.015 -0.0410  0.1777 -0.0487
16512W        W32696  17.284  11.715  12.914 -0.0681  0.1131 -0.0652
16513W        W32697   0.141  18.500  14.011  0.3180  0.1931  0.2094
16514W        W32698   4.905  18.319   0.220  0.1966 -0.0389  0.1398
16515W        W32699  10.178   4.141  12.726  0.0081  0.2030 -0.3616
16516W        W32700   9.087  13.997  14.969  0.2821  0.2135  0.2291
16517W        W32701   7.482   1.593  14.291 -0.5289 -0.1472  0.0049
16518W        W32702   7.840  14.302   2.801 -0.0914 -0.1988  0.3754
16519W        W32703   9.632  18.355  12.344 -0.1550  0.0391 -0.4087
16520W        W32704   8.765   9.913  15.506  0.2746 -0.0191 -0.0423
16521W        W32705  15.990  18.430  13.042  0.0554 -0.0801  0.3467
16522W        W32706  17.664   7.525   2.549 -0.0024 -0.0521  0.4078
16523W        W32707   8.349  17.898  15.261 -0.2284  0.0055 -0.2684
16524W        W32708   1.517   7.678   4.045  0.1571 -0.0266 -0.1897
16525W        W32709  18.485  18.293   0.969 -0.0256  0.0224  0.0336
16526W        W32710   7.296  13.421  15.227 -0.0149 -0.3917  0.2574
16527W        W32711   6.153  14.601   0.140 -0.1286  0.1954 -0.2632
16528W        W32712   5.691   1.854  13.973  0.2679  0.1319  0.1962
16529W        W32713   9.035  13.953  14.324  0.1256  0.1200 -0.1675
16530W        W32714   4.536  15.231  11.618 -0.0592 -0.1380  0.1558
16531W        W32715  12.230  18.018   5.110 -0.1581 -0.1523  0.0248
16532W        W32716   3.036   3.279  14.867  0.2020 -0.0954 -0.0625
16533W        W32717   6.029   7.729   0.577 -0.1536 -0.0965  0.0884
16534W        W32718  11.009   2.181  14.688  0.2823 -0.0459 -0.1543
16535W        W32719  17.485   6.686  12.377 -0.0957  0.0885  0.2514
16536W        W32720   5.214   4.991   1.422 -0.0546  0.1290 -0.1666
16537W        W32721   9.435  10.123   3.998  0.1940  0.3724  0.0128
16538W        W32722   0.732   1.832   3.978 -0.0289  0.1746 -0.2269
16539W        W32723  11.908   9.881   1.790 -0.0252  0.3206 -0.0785
16540W        W32724  15.078  11.256   0.977 -0.1340  0.1366  0.0194
16541W        W32725   2.161   0.498  13.136 -0.1725 -0.4083 -0.1969
16542W        W32726  18.672   6.466   2.943  0.1624  0.1554 -0.1261
16543W        W32727   5.038   2.431   4.151  0.0453  0.0540  0.3321
16544W        W32728  14.134   7.194   3.421  0.1390 -0.0087 -0.1248
16545W        W32729  18.490  15.083  13.362  0.1989  0.3118 -0.1565
16546W        W32730  11.518   0.718   0.509 -0.1017 -0.2365 -0.0398
16547W        W32731   4.967   4.796   4.159  0.1140  0.1038 -0.2388
16548W        W32732  11.424  16.742   3.572  0.1084  0.1893 -0.1052
16549W        W32733  10.212  10.804   0.364  0.2001  0.1325  0.4477
16550W        W32734   5.641   9.297   2.591 -0.0010 -0.0232  0.1723
16551W        W32735   7.423   8.242  14.352  0.0325 -0.0886  0.1213
16552W        W32736   9.751  16.678   3.814  0.0476 -0.0266 -0.0300
16553W        W32737  17.220   3.858  11.259 -0.0855  0.4213  0.0450
16554W        W32738  15.130   9.736  15.183  0.4003 -0.3545 -0.0585
16555W        W32739   6.798   3.349   3.061  0.0930 -0.2657  0.1456
16556W        W32740   0.980   4.020   2.458 -0.0530  0.1790  0.0809
16557W        W32741  12.177  10.475  12.154  0.1932  0.0830  0.1943
16558W        W32742   2.368   4.174  14.306  0.1577  0.3353 -0.0352
16559W        W32743   3.123  15.780   5.146  0.0335 -0.2186 -0.1703
16560W        W32744   2.154  18.520  13.814 -0.1117 -0.1536  0.6164
16561W        W32745   8.815   4.554   2.013  0.1121 -0.2148  0.1862
16562W        W32746  15.490   0.177  14.186  0.2204 -0.0207 -0.1589
16563W        W32747   2.981   2.707  15.094  0.1010 -0.0547  0.0318
16564W        W32748   7.386   0.005   2.859 -0.0456  0.0665 -0.2581
16565W        W32749   1.960  13.055  11.452  0.1872  0.2158  0.0130
16566W        W32750   9.697   6.679  10.884  0.4014 -0.0440 -0.0190
16567W        W32751   2.701  14.713  15.374  0.1223  0.1541 -0.0442
16568W        W32752  16.305   2.533  14.165 -0.1729  0.1723  0.3981
16569W        W32753   9.612  17.750  11.166  0.0365  0.1455  0.2089
16570W        W32754   3.688   8.886  12.551  0.0151  0.0856  0.0143
16571W        W32755  14.546  17.446   1.555  0.1180 -0.0555 -0.3350
16572W        W32756  17.223  11.214  13.759 -0.1925  0.2450 -0.0434
16573W        W32757  15.030   1.418  11.708 -0.1142 -0.1982  0.0212
16574W        W32758  10.926   7.546  13.029  0.0771  0.1562  0.2836
16575W        W32759   8.239  14.928   2.750  0.0948  0.0588  0.2377
16576W        W32760  17.774   2.449   4.289  0.2716 -0.0639 -0.0064
16577W        W32761  16.403  11.649   0.885  0.0589 -0.0425 -0.0346
16578W        W32762  17.965   4.941  13.103  0.0085  0.2737 -0.1722
16579W        W32763  17.299  10.519  12.399  0.1190 -0.0218 -0.2608
16580W        W32764   3.559  18.698   4.655  0.0533  0.0819 -0.0451
16581W        W32765  16.227  14.823   0.680 -0.3061 -0.5008 -0.0688
16582W        W32766   4.539   5.949   1.404  0.1161 -0.3451  0.2440
16583W        W32767  12.178  15.515   3.359  0.1386 -0.2242  0.2041
16584W        W32768   3.713   4.254  12.911 -0.1228 -0.2374  0.2484
16585W        W32769   6.602   8.554  14.943 -0.1747  0.1546  0.1392
16586W        W32770  10.101  15.405  11.572 -0.1294 -0.2793 -0.0741
16587W        W32771   6.296  16.364   2.478  0.1123  0.1614 -0.3274
16588W        W32772   9.544  15.441  14.285  0.0694  0.0730  0.2691
16589W        W32773  12.917  17.237   1.698  0.0426  0.1575 -0.1092
16590W        W32774  13.606  11.655   5.479 -0.0384 -0.0728 -0.1471
16591W        W32775  16.297   7.302  15.232 -0.3423 -0.0958  0.2857
16592W        W32776  11.849   3.827   3.148 -0.3096  0.2218  0.4574
16593W        W32777  11.634  16.406   0.722  0.0335  0.0875 -0.3411
16594W        W32778  14.398  18.511   1.823 -0.0030  0.0280  0.3654
16595W        W32779   8.011   4.744  14.540 -0.1108  0.0256  0.1216
16596W        W32780   3.466   2.611  13.262  0.1334 -0.0538  0.3128
16597W        W32781   2.513  18.057  14.751  0.0319 -0.0809  0.0919
16598W        W32782  18.366  15.869   5.463 -0.0513 -0.4668  0.4026
16599W        W32783   2.158   7.238  15.340  0.0397 -0.1087  0.0990
16600W        W32784   1.764  13.890   3.708 -0.2356  0.2249 -0.0707
16601W        W32785   2.269   2.156  14.969  0.2345 -0.1023 -0.0160
16602W        W32786   3.075   4.974   4.571 -0.3578 -0.1725  0.1212
16603W        W32787  14.552  10.579   3.130 -0.2702 -0.0324  0.2912
16604W        W32788  13.209   1.646   5.958  0.1992 -0.1259  0.1650
16605W        W32789  11.189  17.559  11.093  0.3121 -0.2285 -0.0321
16606W        W32790   6.531  18.446  12.110  0.0592 -0.4152 -0.1265
16607W        W32791  10.520  16.951   1.748 -0.0345  0.2319  0.0771
16608W        W32792   4.592  11.755   2.796  0.3475 -0.1031 -0.0685
16609W        W32793   8.576  15.480  13.825  0.0129  0.1443  0.2998
16610W        W32794  11.211  18.830   1.316  0.1306 -0.2070  0.1198
16611W        W32795   3.835   0.474   1.959  0.0759  0.0973 -0.2459
16612W        W32796  11.696   3.534   4.498 -0.2267 -0.1613  0.3283
16613W        W32797   6.019   3.743  14.405  0.0918 -0.1375  0.2054
16614W        W32798   5.082   8.805   0.192  0.0243 -0.3987 -0.0760
16615W        W32799   2.089  17.166  14.929 -0.0975  0.1194  0.2101
16616W        W32800   4.577  11.393   1.749 -0.2323 -0.1865  0.1600
16617W        W32801  12.310  16.941   1.508  0.2287 -0.1120  0.2551
16618W        W32802   3.492   0.447  13.950 -0.1343 -0.2288  0.3473
16619W        W32803   8.142   9.321  12.782  0.0458  0.1091 -0.0774
16620W        W32804  11.216   4.061  11.330  0.1528 -0.1157  0.2088
16621W        W32805  11.667   4.035   5.747  0.3701 -0.3000  0.3005
16622W        W32806  11.717   8.656   2.055 -0.0492  0.1395  0.0082
16623W        W32807   0.448   4.424  13.262  0.4418  0.1176 -0.0698
16624W        W32808   9.366  14.967   2.360  0.2992  0.2087 -0.0877
16625W        W32809   7.979  15.297   5.754  0.0043 -0.0336 -0.1059
16626W        W32810  15.332  11.760   3.166  0.0552  0.0518  0.3020
16627W        W32811  14.340   6.452  10.131 -0.1712 -0.3248  0.2012
16628W        W32812  12.843   9.875   0.530  0.2567 -0.3475  0.0720
16629W        W32813  16.502   9.975  14.802 -0.2762  0.1694 -0.3556
16630W        W32814   2.006  13.154   9.812  0.2944  0.1785  0.0328
16631W        W32815  12.183   5.643   4.175 -0.3275  0.2647  0.0757
16632W        W32816   3.281   8.039   3.751 -0.0168 -0.0134  0.0111
16633W        W32817   7.449   8.426   2.913  0.0472  0.1765 -0.2757
16634W        W32818   8.575  14.252  12.670  0.1245  0.0828  0.0445
16635W        W32819   0.504   7.059  15.505 -0.0671  0.1752  0.2374
16636W        W32820  17.449   3.297  14.905  0.1387  0.1413  0.1923
16637W        W32821   6.369   2.350   4.971 -0.3751  0.0825  0.1633
16638W        W32822   3.351  10.751  12.593 -0.1018 -0.1554  0.1124
16639W        W32823  13.054  16.662   5.477  0.2267  0.0660  0.0742
16640W        W32824   7.653  10.734  13.203  0.2107 -0.1755  0.1146
16641W        W32825  11.236  11.028  12.027 -0.2745  0.3428 -0.0457
16642W        W32826  14.792  17.460  14.027  0.1068  0.0917  0.0456
16643W        W32827  13.053  13.468   1.043 -0.1451 -0.1488  0.2426
16644W        W32828   3.692   0.914  13.014 -0.1419 -0.1425  0.1303
16645W        W32829  18.576   5.498   1.587  0.0687 -0.0514 -0.1356
16646W        W32830   0.335  12.296  15.298  0.0334 -0.0260 -0.2973
16647W        W32831   5.857   1.354  13.559  0.0147 -0.0723 -0.0049
16648W        W32832  13.180  12.369   5.215 -0.4035 -0.0416  0.1907
16649W        W32833   9.681  12.081  11.630 -0.2796  0.0476 -0.3221
16650W        W32834   4.307  18.341   0.486  0.4530 -0.0862  0.0831
16651W        W32835   3.429   8.346  11.199  0.2173 -0.0602 -0.0252
16652W        W32836  14.799   7.617   0.240  0.3109 -0.0427 -0.1279
16653W        W32837   7.226   5.228   0.649  0.2367  0.0539  0.0450
16654W        W32838   0.200   8.171   2.983 -0.2313  0.0334  0.2546
16655W        W32839   6.447   5.427  12.374 -0.2775  0.1991 -0.3822
16656W        W32840   3.666  16.970   0.918  0.1677 -0.1015 -0.1928
16657W        W32841   6.386   7.595  12.946  0.4333  0.0286  0.3501
16658W        W32842   8.457   2.980  13.803  0.2240  0.1746 -0.2187
16659W        W32843  13.719  17.405  15.509  0.1907 -0.2257  0.0550
16660W        W32844   4.658  17.724   3.231  0.1718  0.0694  0.3517
16661W        W32845  10.394   6.264  14.468  0.3786 -0.2249 -0.0301
16662W        W32846   9.515  11.119  10.765  0.1046  0.1869  0.1008
16663W        W32847  15.707   3.194   1.957  0.1229 -0.0112  0.1783
16664W        W32848   2.519   6.437  14.951  0.0885  0.0981 -0.2140
16665W        W32849   1.783   9.814  14.075 -0.0028 -0.1314 -0.0331
16666W        W32850  16.133  10.927   3.746 -0.4824  0.4269 -0.0947
16667W        W32851  10.612  14.947  14.913 -0.4102  0.0658 -0.2997
16668W        W32852   9.778  16.031  10.935  0.3817  0.3914  0.0418
16669W        W32853  12.625   4.495  11.753 -0.2792  0.1674  0.0644
16670W        W32854   1.741  12.611   3.199 -0.2450  0.0606 -0.0293
16671W        W32855   9.838  12.603   1.323 -0.0250  0.0156 -0.0101
16672W        W32856   8.228   6.963  12.190  0.1262  0.1046  0.0079
16673W        W32857   8.241  12.398   0.528 -0.0477 -0.1757  0.3392
16674W        W32858   9.918   9.184   2.922 -0.0225  0.0899 -0.0213
16675W        W32859   7.868   6.198   4.587 -0.0515 -0.0932 -0.4464
16676W        W32860   3.433   4.548   0.268  0.2076  0.1109  0.3067
16677W        W32861   3.400   4.932   0.583 -0.3009 -0.1778 -0.2516
16678W        W32862  14.749   9.670  14.561 -0.1458  0.1349  0.3272
16679W        W32863  14.700   8.048   2.329 -0.3283  0.3673  0.4285
16680W        W32864  11.312   6.866   2.527  0.0631 -0.1647  0.3046
16681W        W32865   6.783   3.315  13.234 -0.2287 -0.0129  0.2339
16682W        W32866   0.966   1.465  13.536 -0.2090 -0.2828 -0.2871
16683W        W32867  16.820   3.022  12.967  0.1613  0.2157 -0.4787
16684W        W32868   6.859  11.682   9.716 -0.0317 -0.1203 -0.0628
16685W        W32869   9.418  11.344  11.577 -0.1664  0.2110  0.0426
16686W        W32870   8.198   4.524   0.927  0.0314 -0.2302  0.0752
16687W        W32871   5.823   4.401  15.169 -0.2965  0.1101 -0.1059
16688W        W32872  17.386   8.503   0.519 -0.1936 -0.3556  0.1759
16689W        W32873  10.478  16.810   4.260 -0.3655 -0.0059 -0.2631
16690W        W32874  12.330   0.122  14.430 -0.2941  0.1084 -0.0728
16691W        W32875  11.261   9.652   3.060  0.2820  0.0342 -0.0904
16692W        W32876   3.453  13.990   4.468  0.0051 -0.0468  0.2988
16693W        W32877  18.021   0.262  14.900  0.2195  0.1403 -0.1013
16694W        W32878   5.694   0.421   2.216 -0.0303  0.2126  0.3210
16695W        W32879   4.814  16.039   2.642  0.2100 -0.0067 -0.2769
16696W        W32880  12.789  14.269   4.189 -0.1589 -0.1375  0.2200
16697W        W32881  14.710  16.776   0.694 -0.0296  0.0835  0.1289
16698W        W32882   4.192  13.547   3.960  0.2998 -0.0832 -0.1655
16699W        W32883   3.267  15.391   4.847  0.1524 -0.1836  0.1424
16700W        W32884  11.175   8.934  15.496  0.0163 -0.0417 -0.1155
16701W        W32885   9.750   7.495  14.468 -0.1184  0.3384  0.1724
16702W        W32886   8.933  13.213  12.640 -0.0064 -0.1836  0.2314
16703W        W32887   5.637   9.877   4.434 -0.1085  0.0358  0.0250
16704W        W32888  13.458   6.086   3.361  0.1347 -0.0960  0.0965
16705W        W32889  11.110  14.956  14.778 -0.1513  0.2108  0.1622
16706W        W32890   2.386  18.051   0.588 -0.2382 -0.1704  0.0323
16707W        W32891   8.390   1.862   3.189 -0.5694  0.2098 -0.0954
16708W        W32892   2.972  11.151   3.238  0.0072 -0.2603  0.3160
16709W        W32893  15.305   3.583  14.073 -0.0633 -0.4593 -0.0243
16710W        W32894   6.977   8.381   2.963  0.1629  0.0672 -0.3911
16711W        W32895  14.690  15.929  14.700  0.1749 -0.0328 -0.1058
16712W        W32896   5.827  18.315  15.002  0.0277  0.0609  0.1238
16713W        W32897  12.917   8.045   3.439 -0.0001  0.1940 -0.1167
16714W        W32898  18.599   3.463   1.019  0.0671  0.0152 -0.2982
16715W        W32899   6.127  12.932   4.725  0.5304 -0.1094  0.1728
16716W        W32900   8.782   9.284   1.878  0.2139  0.0076  0.2922
16717W        W32901   2.107   9.034  11.105  0.0033 -0.2541 -0.1821
16718W        W32902  11.139   6.727   2.961 -0.0914 -0.2416 -0.2551
16719W        W32903  11.150  11.895   3.456 -0.1480  0.0828  0.1269
16720W        W32904   8.679   5.764  12.380 -0.0507  0.0651 -0.1125
16721W        W32905  10.740  18.641  14.186  0.0813  0.0364 -0.1224
16722W        W32906   5.553   0.624   4.751  0.3116  0.0801  0.0127
16723W        W32907   8.577   6.664   4.611  0.0859  0.1254 -0.1420
16724W        W32908  13.500   7.438   2.621 -0.2188 -0.0736 -0.1563
16725W        W32909   1.832  10.096   4.691 -0.2584 -0.3735  0.3318
16726W        W32910   5.589  12.429  12.981  0.3006 -0.2209 -0.1124
16727W        W32911   9.303  14.431   2.139  0.0172  0.1404  0.0340
16728W        W32912   5.692   0.989  15.221 -0.0412  0.0257  0.0249
16729W        W32913  16.546   4.288   0.187 -0.0537  0.2489 -0.1088
16730W        W32914   3.202   9.718   4.389  0.0590  0.1256 -0.2461
16731W        W32915  14.165  15.516  12.624 -0.1286 -0.1415 -0.0614
16732W        W32916  17.007   6.150   1.106 -0.0448 -0.1222  0.1142
16733W        W32917  13.599   2.280   4.327 -0.0633 -0.0789 -0.2837
16734W        W32918  13.739  12.638   0.104 -0.0982 -0.1389  0.0727
16735W        W32919   8.041  17.807   4.901  0.1226 -0.0534 -0.0199
16736W        W32920  11.894  15.946   3.735  0.4490  0.0844  0.1442
16737W        W32921   9.982   4.023   3.217  0.1392 -0.2235 -0.2982
16738W        W32922   1.661   1.394   9.899 -0.2191  0.2697  0.3365
16739W        W32923   8.162  15.905  12.386 -0.1415 -0.2902  0.0827
16740W        W32924   6.141  11.081  12.640  0.3902 -0.3620 -0.1881
16741W        W32925   1.432  15.487   4.016  0.0692  0.0497  0.0349
16742W        W32926   2.628   9.591  13.304  0.3162  0.2379  0.0478
16743W        W32927   7.490  14.272  11.364  0.2647 -0.2806 -0.2161
16744W        W32928  17.174   0.055   3.811  0.0825 -0.1708 -0.1239
16745W        W32929   1.760   9.783  14.818  0.0928  0.2208 -0.0257
16746W        W32930  10.064   5.216  14.580 -0.2893 -0.1392  0.1781
16747W        W32931  14.287   7.791  12.824  0.4035 -0.0291  0.0436
16748W        W32932   9.772   3.759   4.611 -0.0953 -0.2424  0.1433
16749W        W32933  14.149  18.311  13.121  0.1461  0.0152  0.0127
16750W        W32934  10.634  10.875  14.233  0.0239  0.2991  0.2424
16751W        W32935   9.741   6.905   3.458 -0.1910  0.2863  0.0962
16752W        W32936   7.280  14.298  15.173 -0.2447 -0.0643  0.1502
16753W        W32937   3.466  16.447   2.348  0.0132 -0.1762 -0.0809
16754W        W32938  10.590   5.483   2.531 -0.0913  0.1269 -0.0541
16755W        W32939  11.201   4.184   0.605  0.0779  0.0940 -0.0921
16756W        W32940   8.694   7.676  14.182 -0.0122 -0.2337  0.2340
16757W        W32941  17.416  11.527   5.170  0.0125  0.0400  0.1560
16758W        W32942  18.056  10.786   3.402 -0.0213 -0.2051  0.1242
16759W        W32943   0.170   4.123   1.127 -0.1163  0.0424  0.3134
16760W        W32944  12.401   2.681   2.619 -0.2733  0.1263  0.1241
16761W        W32945  18.683  13.511  13.816 -0.0798  0.2252 -0.0251
16762W        W32946   6.374  11.295  15.007  0.3720 -0.3022  0.1298
16763W        W32947   5.410  11.524   2.925  0.2863 -0.0598 -0.2225
16764W        W32948  14.425  12.000  14.995  0.0688  0.0646  0.1368
16765W        W32949   1.613  10.350  15.381 -0.0800  0.1147  0.2540
16766W        W32950   5.794   5.808  13.292 -0.2539  0.2394 -0.1720
16767W        W32951   8.053   1.548   3.947  0.1937  0.1424  0.1824
16768W        W32952  16.043  14.355   0.704 -0.3340 -0.1863  0.0422
16769W        W32953  12.187  12.122  13.152  0.0242  0.3300  0.0586
16770W        W32954  15.183   5.328   4.892 -0.0057  0.1821 -0.1478
16771W        W32955  14.076   1.130  13.183  0.2284  0.1222 -0.3167
16772W        W32956  11.098  15.318   3.019 -0.2550 -0.0563  0.0582
16773W        W32957  13.695  11.265   3.414  0.2916  0.0330 -0.1581
16774W        W32958   3.281  14.587   5.068  0.2078  0.1416  0.0552
16775W        W32959   8.032   0.767  14.425 -0.6026 -0.0571 -0.0512
16776W        W32960  12.240   8.538   2.815 -0.0769 -0.1370 -0.0009
16777W        W32961   9.087   1.159  13.861  0.0230 -0.0221 -0.0262
16778W        W32962   3.205   1.786  14.745  0.2729  0.0367 -0.1891
16779W        W32963  11.786  11.659  15.471 -0.2888 -0.2207 -0.1093
16780W        W32964  13.267   8.460   3.562 -0.0651 -0.0907 -0.2805
16781W        W32965  12.041  18.174  14.694  0.1952  0.1216  0.0790
16782W        W32966  14.108   6.214   1.861 -0.1003 -0.1377 -0.0352
16783W        W32967  14.855  12.706   4.472  0.0453  0.2584 -0.0384
16784W        W32968  13.647  18.199   3.184 -0.2036  0.2079 -0.0615
16785W        W32969   8.718   9.687   4.336  0.2325  0.1018  0.0449
16786W        W32970   9.629  10.391  10.529  0.1133 -0.3003 -0.0113
16787W        W32971   6.153  18.433   0.909 -0.1718 -0.1798 -0.2695
16788W        W32972   7.708   8.902  12.798 -0.3573  0.0460  0.1229
16789W        W32973  15.746  10.245   2.400  0.3357 -0.3605  0.0605
16790W        W32974  17.363  15.296  13.724  0.1338  0.2282  0.2024
16791W        W32975  10.060  10.361  12.064 -0.2061  0.1754 -0.0614
16792W        W32976  15.288  14.261  11.699 -0.1495  0.0808  0.2196
16793W        W32977   0.292  16.667  13.985 -0.1303 -0.1023  0.2528
16794W        W32978   0.705  16.707   3.415 -0.1599 -0.4550  0.1447
16795W        W32979   7.648  14.616  12.633  0.1172  0.1981 -0.0993
16796W        W32980  15.362   5.428  11.671  0.2708  0.0111  0.1709
16797W        W32981   3.307   7.992   2.091 -0.1569 -0.0463 -0.3391
16798W        W32982   8.519   7.465  13.671  0.3052 -0.0313 -0.0071
16799W        W32983   4.153   3.658  10.889  0.4187 -0.3040 -0.2757
16800W        W32984   7.226  16.110   3.143 -0.2231 -0.1745  0.0678
16801W        W32985  15.370  17.158   2.887 -0.0144 -0.1700  0.2053
16802W        W32986  11.027  10.461   4.906  0.1324 -0.0069  0.0359
16803W        W32987   9.046   2.875   2.139  0.0821  0.1711  0.1115
16804W        W32988   8.415  12.085  14.979  0.0813 -0.1070 -0.6206
16805W        W32989  12.976  15.542   1.114 -0.1085  0.0179 -0.0271
16806W        W32990   0.034  18.076   4.088 -0.1684  0.4205  0.0259
16807W        W32991   3.848  17.421   1.090  0.0923  0.1052  0.1475
16808W        W32992   6.172  13.725   0.968 -0.0716 -0.0201  0.0927
16809W        W32993  13.851  18.850   0.125 -0.1831 -0.2877  0.2434
16810W        W32994  10.528   6.097   1.760  0.2803 -0.0381 -0.2738
16811W        W32995  18.660   6.310  11.865  0.0815  0.0112  0.2495
16812W        W32996  10.501   7.340   2.081  0.1623 -0.1343  0.1503
16813W        W32997  12.959  18.222  14.741 -0.3760  0.1498  0.0717
16814W        W32998   1.082   9.097   5.318 -0.1561 -0.0270  0.0016
16815W        W32999  11.040  10.947   0.369 -0.0793 -0.0087  0.0951
16816W        W33000  12.577   2.608  13.205  0.1758  0.1763  0.1330
16817W        W33001   8.803   3.031   0.507  0.1993  0.0182 -0.4535
16818W        W33002   8.999   4.184   1.297 -0.0230 -0.2475  0.4142
16819W        W33003  10.249   2.365   3.894  0.2408 -0.2210  0.0039
16820W        W33004  16.466   3.385  15.315  0.0544 -0.0899  0.2635
16821W        W33005  12.308   2.960   3.040  0.1361  0.2890  0.3102
16822W        W33006   2.040  13.345   1.492  0.0775 -0.1066  0.0029
16823W        W33007   1.995   8.700  13.382 -0.1435 -0.1596  0.0304
16824W        W33008   1.460   0.381  10.715 -0.4221  0.0606  0.0597
16825W        W33009   6.921  16.682  15.194 -0.1171 -0.2308  0.0230
16826W        W33010   9.621  11.688  11.894 -0.3394  0.0836 -0.1981
16827W        W33011  16.238  13.734  10.356  0.0487  0.1593  0.0574
16828W        W33012   2.223   5.558   4.239 -0.0650  0.1609 -0.1344
16829W        W33013  13.900   6.488  15.007  0.0247 -0.0922  0.3730
16830W        W33014   8.237  12.612  11.577 -0.2051  0.0937  0.0372
16831W        W33015   9.706  10.608  14.177  0.2707  0.1688  0.0547
16832W        W33016  10.735   2.683   2.044 -0.2653 -0.1757 -0.0288
16833W        W33017  17.178  17.627   1.720 -0.2497 -0.0001 -0.1099
16834W        W33018   7.293   5.306  11.332  0.0680  0.1044 -0.3223
16835W        W33019  16.277  15.990  14.459  0.1082  0.1673 -0.0675
16836W        W33020   4.543   7.498   0.266 -0.1413  0.0885  0.2375
16837W        W33021  12.731   2.747  14.072  0.1489 -0.1958 -0.0562
16838W        W33022  17.455   7.746   4.215  0.0691 -0.0770  0.0429
16839W        W33023   4.748  16.750   2.010 -0.0617  0.0910  0.1354
16840W        W33024  16.085  10.024  14.564  0.2100  0.1496  0.3314
16841W        W33025   1.340  17.805  14.706  0.1426  0.1324  0.1501
16842W        W33026  10.892  15.078   5.522 -0.0658  0.1514 -0.0122
16843W        W33027  13.002   8.777   2.178 -0.1067 -0.4646  0.1398
16844W        W33028   1.329   4.594   3.976 -0.1763  0.1735  0.1158
16845W        W33029   9.791   5.687   3.692  0.1170  0.0841  0.0972
16846W        W33030  12.575  10.290   3.101 -0.0023 -0.1320 -0.1640
16847W        W33031   7.345  13.730   2.328  0.3633  0.0017 -0.5431
16848W        W33032  14.146  11.394   1.982  0.1764 -0.1529 -0.0203
16849W        W33033   6.783  14.219  11.800  0.2353 -0.2585 -0.2137
16850W        W33034  15.078   1.733   2.555 -0.4336 -0.3022  0.0524
16851W        W33035  13.044   1.242   0.865 -0.0886 -0.1071  0.0527
16852W        W33036  15.120   6.388   0.385 -0.1083  0.1445 -0.0915
16853W        W33037   8.978   5.124   3.007 -0.0433  0.0330 -0.0697
16854W        W33038   1.723  17.643  13.807  0.0058 -0.1582 -0.0153
16855W        W33039  11.263   5.170  11.758 -0.1773  0.1677 -0.2316
16856W        W33040   8.931   7.589  10.828 -0.0347  0.2090 -0.1176
16857W        W33041  14.954   3.811   1.514  0.2897  0.2228  0.2329
16858W        W33042   2.006   6.946   3.131  0.0676 -0.1838 -0.1527
16859W        W33043  12.482  18.365   1.952 -0.2293 -0.3082 -0.0224
16860W        W33044   8.162   8.704   4.524  0.0184  0.3442 -0.0753
16861W        W33045   1.764  17.433   0.403  0.0722  0.3735  0.1562
16862W        W33046   1.946   7.354   2.846  0.1542  0.0767  0.0754
16863W        W33047   2.549   4.823   2.323  0.0543  0.2170  0.0056
16864W        W33048  16.845   3.010  12.425  0.2054  0.2540  0.2538
16865W        W33049   9.751   0.520   1.166  0.0620 -0.0951 -0.0913
16866W        W33050   2.737  16.915  10.762  0.2955  0.1801 -0.2760
16867W        W33051  12.685  11.841   0.016 -0.1548 -0.1734  0.0044
16868W        W33052  15.260  14.884   3.401  0.0545 -0.4079  0.4157
16869W        W33053  13.158   7.491  15.259  0.3068  0.1922 -0.1994
16870W        W33054   2.347   1.806   4.074 -0.0285 -0.3158 -0.3850
16871W        W33055   5.800  17.423  13.403 -0.0758  0.0169 -0.0614
16872W        W33056  17.729  16.083   4.150 -0.1836  0.4258  0.2066
16873W        W33057  17.704   1.929  14.140 -0.3192 -0.4663 -0.2143
16874W        W33058  13.746   9.187   5.274  0.0450  0.0402 -0.3125
16875W        W33059  17.504  12.674   1.763  0.2383 -0.2467 -0.0700
16876W        W33060   1.400   4.239   2.660  0.2531  0.4478  0.2466
16877W        W33061  11.274   5.585   0.354  0.1144 -0.1707 -0.1269
16878W        W33062  16.679  11.490  11.658  0.0233 -0.0542  0.0438
16879W        W33063   7.878  14.310   4.715 -0.0091 -0.1315  0.0719
16880W        W33064   5.495  15.834   4.427 -0.0724  0.1264  0.2187
16881W        W33065   0.992  12.013   3.974  0.0877  0.0078 -0.1267
16882W        W33066   3.305   8.258   0.849  0.2388  0.1354 -0.0630
16883W        W33067  11.358  15.147   4.225 -0.1612  0.1423  0.1941
16884W        W33068  10.318   7.598   5.043 -0.1904 -0.0935 -0.0778
16885W        W33069  12.054   4.949  15.369 -0.2181 -0.0622 -0.0731
16886W        W33070   9.256  13.841   2.148 -0.0423 -0.1462  0.1055
16887W        W33071   9.768   9.705   3.859  0.0139 -0.3727  0.2901
16888W        W33072   7.584   4.896   2.386  0.2738  0.0475  0.0511
16889W        W33073  15.366  16.666  15.072  0.3552  0.0774  0.0941
16890W        W33074  10.796  13.785  15.360 -0.2579  0.0587 -0.2900
16891W        W33075   6.863   1.334   0.990  0.2113 -0.0361 -0.1312
16892W        W33076  18.367  15.763   1.268  0.3353 -0.2231 -0.1998
16893W        W33077  15.507   9.013   0.807 -0.1046 -0.0305 -0.0246
16894W        W33078   9.573  14.557   2.596 -0.2317  0.1013  0.1272
16895W        W33079  12.084   7.379   1.923  0.2262 -0.0360  0.1283
16896W        W33080   3.650   6.507  11.037  0.0637 -0.2606  0.1318
16897W        W33081   0.268  15.265  11.018  0.0971  0.0547 -0.1744
16898W        W33082   1.720   3.841   4.467 -0.0429  0.0423  0.1053
16899W        W33083  15.916   1.952   4.832  0.0880  0.4950  0.1137
16900W        W33084  15.393  14.533   1.996  0.0507  0.1581  0.1815
16901W        W33085   9.243   6.338   4.008  0.3338 -0.0264  0.0179
16902W        W33086  15.272  17.733   0.347 -0.3213  0.3116  0.0013
16903W        W33087   5.028  10.709   3.157 -0.1210  0.1091  0.1792
16904W        W33088   4.620  16.281  13.525  0.2979 -0.0035 -0.1811
16905W        W33089   1.392   5.258  11.317 -0.0091  0.0642 -0.0767
16906W        W33090  14.108  10.769   3.805  0.1525 -0.1706 -0.0418
16907W        W33091  14.150   4.175  12.909  0.1174 -0.3127  0.0069
16908W        W33092  16.726  13.159   4.986 -0.3546  0.0162  0.2727
16909W        W33093  17.610   7.282   4.011 -0.0290  0.0020  0.3059
16910W        W33094  18.400   9.473   4.795 -0.0278 -0.2956 -0.1342
16911W        W33095   2.786   5.275   4.815  0.5288  0.1636  0.1762
16912W        W33096   4.337   5.536   4.553  0.0260  0.5561 -0.1758
16913W        W33097   8.296   2.710  14.805  0.3723 -0.0972 -0.1048
16914W        W33098  13.414   2.482  12.928  0.4178  0.2849  0.2149
16915W        W33099  13.310  11.247  13.012 -0.0146 -0.1759  0.4590
16916W        W33100   4.135  14.746   0.486  0.2132  0.0549 -0.2212
16917W        W33101   7.335  14.742   3.060 -0.1372 -0.1152 -0.2887
16918W        W33102   8.975   6.435   2.979  0.0852  0.0761 -0.1346
16919W        W33103  11.711  12.670   3.602  0.3427 -0.0134  0.4576
16920W        W33104  12.019   3.598   0.228 -0.2604  0.2688 -0.1282
16921W        W33105  15.283   0.737   1.400 -0.2283  0.1207  0.0702
16922W        W33106  14.186   0.097   1.027 -0.0592  0.0217  0.1802
16923W        W33107  18.237   8.031   1.158  0.2099 -0.2360  0.1110
16924W        W33108   2.925  17.721   1.278 -0.1616  0.1263  0.0873
16925W        W33109  18.441   3.564  14.518  0.0439 -0.1578  0.0311
16926W        W33110   4.110   5.407  15.454  0.2456  0.1809  0.1309
16927W        W33111  13.059   7.983   4.886  0.0863  0.2702  0.0260
16928W        W33112   4.147   3.940   9.862 -0.3838 -0.2120 -0.0317
16929W        W33113   5.353   2.589   2.352  0.0386  0.0960 -0.0722
16930W        W33114   2.107   6.076   0.741 -0.0735  0.1897  0.2589
16931W        W33115   8.459   3.893   4.002  0.1848  0.1653 -0.0225
16932W        W33116  14.403   6.713   2.557  0.2034  0.1106 -0.1917
16933W        W33117   0.180   8.838   4.256  0.1966  0.0925  0.1642
16934W        W33118  13.399  15.268  15.505  0.1262  0.3784  0.0339
16935W        W33119   5.177  13.180  15.474  0.3040 -0.1995  0.1068
16936W        W33120   0.804  18.370   6.103 -0.1322  0.0539 -0.3039
16937W        W33121  15.690  10.550   3.718  0.2282  0.0746  0.0302
16938W        W33122  12.608   3.665  13.976  0.2206  0.1106  0.1007
16939W        W33123   6.114  10.582   1.068  0.2400  0.0175  0.3386
16940W        W33124  16.142  15.244   5.052 -0.2471 -0.2016  0.4009
16941W        W33125  17.714  18.402  10.058  0.1190  0.0116  0.4283
16942W        W33126  12.452   9.508   4.736  0.1196 -0.0149 -0.4063
16943W        W33127  17.525  12.325   0.103 -0.3038  0.1295  0.0913
16944W        W33128   9.057  16.334  12.725  0.1621 -0.0893  0.1391
16945W        W33129  16.066   9.295  14.226  0.0721  0.1227  0.0351
16946W        W33130  17.028   8.514  12.573  0.5739 -0.2464  0.1994
16947W        W33131  11.519   4.679   3.281 -0.4041 -0.2396 -0.0298
16948W        W33132   8.653   0.512  11.796 -0.0042 -0.2257  0.2436
16949W        W33133  13.701  12.147  10.883 -0.3294  0.0891  0.0048
16950W        W33134  16.049   8.760   1.684 -0.2781  0.1231 -0.0486
16951W        W33135  11.290  16.017   0.460 -0.1830  0.1695 -0.0809
16952W        W33136   8.119   0.610   3.681  0.0407 -0.1052  0.0745
16953W        W33137   0.047  18.625   0.761 -0.1266  0.0440 -0.2621
16954W        W33138  10.994   8.887   4.054  0.2053 -0.1386  0.0295
16955W        W33139  10.095   0.705   0.792 -0.1601  0.0493 -0.0539
16956W        W33140   2.649  11.031   3.768  0.3645  0.0213 -0.1400
16957W        W33141   9.839  18.182  11.898  0.2391  0.1553  0.0822
16958W        W33142   0.317   5.190   2.613  0.1149 -0.0479  0.0730
16959W        W33143   3.695   5.935  12.773  0.1259  0.0361 -0.1571
16960W        W33144   2.386  11.069   0.468  0.1352  0.1032  0.0124
16961W        W33145  10.788  16.158   0.612  0.0061 -0.3778 -0.1156
16962W        W33146   8.773  16.869  15.400 -0.1226  0.0161  0.3951
16963W        W33147   4.199  14.537  14.925 -0.1366  0.3666  0.1503
16964W        W33148   5.157  10.402   0.945 -0.0916  0.1543 -0.0314
16965W        W33149   3.008  16.613   0.173 -0.3689 -0.2494 -0.2712
16966W        W33150   2.707   0.218  14.137  0.1683  0.0282 -0.0857
16967W        W33151  16.878   2.463   2.987 -0.0738  0.0369  0.0738
16968W        W33152   7.466  18.369  15.033  0.1819 -0.1374  0.2341
16969W        W33153   1.302  14.341   5.963  0.2152 -0.0240  0.0842
16970W        W33154   3.636   2.958  10.687 -0.1069  0.2614 -0.0961
16971W        W33155   0.816   8.047   3.820  0.2880  0.1028  0.2113
16972W        W33156  10.215  13.145   3.607  0.1190  0.0739 -0.1527
16973W        W33157   1.862  16.192  12.717  0.1579 -0.1147  0.0040
16974W        W33158  10.965   1.881  12.845 -0.2145 -0.2259  0.1598
16975W        W33159   2.928   9.237   4.528 -0.0551  0.1925  0.1117
16976W        W33160   9.141  12.333   5.997 -0.2030 -0.0771  0.1811
16977W        W33161   9.869   1.188   2.995 -0.0485  0.0620 -0.0749
16978W        W33162  18.758  10.472   1.196  0.1522 -0.2310 -0.0968
16979W        W33163  13.979   6.558  13.972  0.1481  0.0893  0.1976
16980W        W33164   2.989  12.175   1.465 -0.3322  0.4731  0.0636
16981W        W33165   7.074   1.833   0.908  0.0597  0.1216  0.3795
16982W        W33166  17.658  14.971  13.435  0.1739  0.4781 -0.1633
16983W        W33167   3.860   9.049   1.940 -0.1528 -0.0116 -0.0693
16984W        W33168   1.565   6.610   4.497  0.2565 -0.0869 -0.1614
16985W        W33169  16.627  15.103  11.201  0.2509 -0.4367  0.4127
16986W        W33170  10.143  10.379  13.014  0.0811 -0.0374 -0.0616
16987W        W33171  11.628   6.745   2.112  0.2863  0.2132  0.1863
16988W        W33172   9.584   6.707   2.265  0.0073 -0.0271 -0.1659
16989W        W33173   7.954  12.685   1.306  0.1759 -0.2051  0.2204
16990W        W33174   5.409  10.509   2.822  0.0915 -0.1153 -0.2584
16991W        W33175  12.555  13.088  14.592  0.1527 -0.2480 -0.0083
16992W        W33176  14.654  15.106  14.890 -0.2628  0.1027  0.1049
16993W        W33177   8.706  15.349   4.732  0.1089 -0.0842  0.1171
16994W        W33178  17.326   7.258   1.222  0.0539  0.0698  0.3242
16995W        W33179   7.605  16.375  15.491  0.4540  0.0763 -0.3152
16996W        W33180  14.693   0.298   2.874 -0.1566  0.3230 -0.0439
16997W        W33181   5.553   5.767  15.460 -0.2732 -0.1299 -0.5669
16998W        W33182   4.760   1.369  12.678 -0.3447 -0.2861  0.1818
16999W        W33183   4.951  14.669   2.904 -0.2087 -0.1005  0.1015
17000W        W33184  17.328  11.668  15.329  0.0365  0.0050 -0.2042
17001W        W33185   0.827   9.170  13.078  0.2191 -0.0231 -0.0136
17002W        W33186   7.458   4.190   3.188  0.1729 -0.0108 -0.0039
17003W        W33187   9.371  15.096   0.987  0.0403  0.1995  0.0543
17004W        W33188   1.253   3.997  14.858 -0.1183 -0.1169  0.2626
17005W        W33189  16.659   6.131   1.873 -0.0690  0.1995  0.0573
17006W        W33190  12.989   0.054   0.762 -0.0820 -0.0451  0.2016
17007W        W33191   2.697   3.093  12.361 -0.0425  0.0371  0.0737
17008W        W33192   7.420  18.769  13.922  0.2021  0.0324  0.0228
17009W        W33193   3.529   6.375   2.500  0.1615  0.2042  0.1704
17010W        W33194   3.753  10.733   1.096  0.0996  0.0928  0.2152
17011W        W33195   2.762  17.586  15.333  0.0762  0.1321 -0.0130
17012W        W33196  15.202   7.040   2.146  0.0691 -0.1628 -0.0170
17013W        W33197  12.075  16.982   2.006 -0.4908 -0.0372  0.0252
17014W        W33198   3.197   2.981   3.942  0.0846  0.0025 -0.0960
17015W        W33199   6.214  15.805   1.139 -0.1329  0.1705 -0.2693
17016W        W33200   8.711  14.911   5.175 -0.3397  0.1545  0.0223
17017W        W33201  17.034   7.207  14.623  0.1337  0.1173  0.0534
17018W        W33202  17.816  13.684  12.366 -0.3804 -0.1446 -0.0613
17019W        W33203  10.019   1.778  12.448 -0.1224 -0.0961  0.0414
17020W        W33204   3.396  13.966   0.527  0.1747 -0.1508  0.1079
17021W        W33205   9.319  16.765   3.531 -0.0116  0.2698  0.0389
17022W        W33206   3.066   1.488   5.622 -0.0549  0.1934 -0.1423
17023W        W33207   9.198  14.533   2.948 -0.1943  0.1115 -0.0811
17024W        W33208   4.454   3.155  14.546  0.1655  0.1244  0.3228
17025W        W33209   2.119  16.854  14.302 -0.0715 -0.1220 -0.0068
17026W        W33210   0.385   2.788   4.093  0.0744  0.1781  0.0928
17027W        W33211  13.173  16.390   0.687  0.2217 -0.1113 -0.0016
17028W        W33212   0.708  16.538   1.149 -0.1002 -0.2700  0.0698
17029W        W33213  11.901  14.226  10.952  0.0925 -0.0949  0.1162
17030W        W33214   4.796   5.372   4.310 -0.1745  0.1905 -0.0294
17031W        W33215  11.339   2.027  13.219  0.0873  0.0152 -0.2639
17032W        W33216   4.977  12.112  10.679 -0.1212 -0.1440  0.1720
17033W        W33217   0.126   4.535  14.971  0.0527 -0.0967 -0.2846
17034W        W33218  15.478  11.680   5.129  0.0566 -0.2636 -0.3319
17035W        W33219  10.475  10.261  14.729  0.1092  0.0084 -0.3137
17036W        W33220  10.173   0.628   4.984  0.0433  0.3461  0.3754
17037W        W33221   8.140   5.282  12.986 -0.0693 -0.1635  0.2111
17038W        W33222   4.795   8.171   2.053  0.2029  0.0686 -0.0156
17039W        W33223   8.947   9.556   1.336  0.0873 -0.0339  0.3843
17040W        W33224   8.342  10.687   9.863 -0.2565 -0.0449  0.0641
17041W        W33225  18.564  13.334  14.429 -0.1310  0.0160  0.1392
17042W        W33226   2.375  18.146   3.695 -0.0463 -0.0761  0.2351
17043W        W33227  17.795  13.954  11.498  0.0458  0.2294  0.1769
17044W        W33228  11.822  14.983  10.371  0.1794 -0.1173  0.0197
17045W        W33229   3.403   5.960   2.669  0.2312  0.0495 -0.0057
17046W        W33230  14.495   0.945   5.107 -0.0268 -0.3067 -0.0887
17047W        W33231  12.579   8.416   2.347  0.2508  0.1047 -0.2640
17048W        W33232  16.793   3.184   4.081  0.4763  0.2200 -0.1003
17049W        W33233  11.226  11.942   4.286  0.0072  0.3631  0.1369
17050W        W33234  12.244   3.870  15.298  0.1679  0.1632 -0.1189
17051W        W33235   1.269  16.001   3.986  0.1703  0.1221 -0.0406
17052W        W33236   1.975  16.784   9.497 -0.1072 -0.0448  0.0843
17053W        W33237   7.303  11.255   5.147  0.3999 -0.1877 -0.2472
17054W        W33238  13.388   2.009   2.767 -0.1889  0.1391  0.1208
17055W        W33239   4.232   5.751   0.630 -0.1456 -0.0078  0.3991
17056W        W33240   0.435  15.313  15.388 -0.0845  0.1735  0.0788
17057W        W33241   8.247   0.536   2.457  0.0900 -0.0786  0.0032
17058W        W33242  15.346   1.810   0.481  0.0385  0.1162  0.1906
17059W        W33243  16.384   9.333   3.411  0.2717 -0.0969 -0.0242
17060W        W33244   7.993  12.273  12.511  0.1600  0.1052  0.0291
17061W        W33245  10.167   9.789  14.889  0.0849  0.0924 -0.2277
17062W        W33246   9.123  16.910   1.674  0.0088 -0.0314 -0.2138
17063W        W33247  16.872   1.312   1.637  0.1061 -0.4300 -0.2635
17064W        W33248   2.417  14.571   2.644  0.1408  0.0497 -0.1616
17065W        W33249  10.381   4.636  11.304 -0.0197  0.2848 -0.0554
17066W        W33250  10.157   6.815  15.407  0.1632 -0.1900 -0.1583
17067W        W33251   4.955   2.310   3.139  0.0084 -0.1668 -0.3200
17068W        W33252   5.363  12.527   2.873 -0.1913  0.2059  0.0152
17069W        W33253   1.945  15.724  12.463  0.1638  0.0229 -0.0157
17070W        W33254  10.674   1.670  13.247  0.0158 -0.1221  0.1457
17071W        W33255  14.778   9.143  12.538  0.0782  0.3624 -0.1587
17072W        W33256   5.538   3.916   4.194 -0.0811  0.1296 -0.1650
17073W        W33257  14.246   8.411  11.560  0.2174  0.0931  0.1083
17074W        W33258  18.433   9.689  10.572 -0.1760 -0.1190  0.0763
17075W        W33259  11.511   0.594  11.882 -0.0594 -0.0866 -0.1374
17076W        W33260  10.945   0.441   5.275 -0.0446 -0.0376  0.4318
17077W        W33261   6.983   9.947  15.143 -0.2259 -0.1366  0.0050
17078W        W33262  13.210   9.981  11.412 -0.1160  0.1676  0.2076
17079W        W33263  17.575   3.627  10.938  0.1221 -0.2136 -0.3170
17080W        W33264  13.384  12.083   2.308  0.0458 -0.0893 -0.2036
17081W        W33265   5.422  18.013   5.507 -0.4411  0.1072  0.1724
17082W        W33266  14.747  18.498   1.458 -0.1471  0.0732 -0.0327
17083W        W33267   5.270   3.846  10.555  0.0191  0.0888  0.2705
17084W        W33268  16.514   7.810  14.982 -0.2498 -0.5529  0.1668
17085W        W33269  17.350   4.548  13.297 -0.2277  0.0086 -0.2961
17086W        W33270  12.020   5.541  14.716  0.1146 -0.1884  0.2165
17087W        W33271  14.475  18.749  11.812 -0.0210  0.0985  0.1067
17088W        W33272  11.133   0.188   2.618 -0.0512 -0.0900  0.1622
17089W        W33273  11.059  18.555   2.856 -0.1142 -0.0373  0.0837
17090W        W33274  17.049   5.347  13.252 -0.2720 -0.2059  0.0976
17091W        W33275  12.253  15.247   3.872  0.0801 -0.3260 -0.1330
17092W        W33276  16.793  17.214   1.217 -0.3121 -0.2532  0.0248
17093W        W33277   3.114  11.147  15.103  0.0792  0.3698  0.3878
17094W        W33278  11.883   9.431   3.992  0.2804 -0.2762  0.2885
17095W        W33279   5.232  18.256   1.179 -0.0059 -0.3394  0.0794
17096W        W33280   8.707   0.535   3.109 -0.4243  0.0925  0.1132
17097W        W33281   6.553  16.211  13.292  0.1685 -0.1081  0.0919
17098W        W33282   1.425   4.429  11.294 -0.0784  0.2796 -0.1149
17099W        W33283   3.018   8.263  12.366  0.1908  0.1101 -0.1400
17100W        W33284  18.416  12.417   2.366 -0.4024 -0.0040  0.0799
17101W        W33285  17.096   1.926   0.157 -0.0897  0.1038  0.1024
17102W        W33286  17.126   2.446  14.783 -0.0215  0.0148 -0.0643
17103W        W33287  10.012  11.854   4.809  0.3342 -0.0803 -0.0344
17104W        W33288  10.149   1.200  12.447  0.1099  0.1478 -0.1741
17105W        W33289   4.438  16.437  12.156 -0.3471  0.3844  0.1288
17106W        W33290  17.120  15.131   2.530 -0.1063  0.0446 -0.0626
17107W        W33291  15.253  11.173   3.335  0.0934 -0.1098 -0.0825
17108W        W33292  16.319  11.710   1.399  0.0272  0.2327 -0.0939
17109W        W33293  16.710   5.631  10.688  0.1097  0.2211  0.3066
17110W        W33294   5.365  11.807  10.902 -0.0803 -0.0898  0.1502
17111W        W33295   0.703  13.459   5.770 -0.1925  0.0138 -0.0761
17112W        W33296   2.923  13.179   1.528  0.1670 -0.1350 -0.0681
17113W        W33297  14.557  18.801   5.319  0.1864 -0.0542 -0.5413
17114W        W33298  11.682  18.367   1.281 -0.1428 -0.1461 -0.0801
17115W        W33299   0.759  16.991   3.017  0.0302 -0.1018  0.1166
17116W        W33300   9.773  13.731   2.401 -0.0504  0.0156  0.1329
17117W        W33301   9.044   0.038   5.641 -0.1739 -0.2881 -0.2081
17118W        W33302   0.716   9.009   1.063 -0.0640  0.1514 -0.1663
17119W        W33303   8.633  11.011   0.356 -0.2660 -0.0211 -0.1399
17120W        W33304  11.306   9.735   2.564  0.0949  0.1828 -0.1547
17121W        W33305  12.508   7.525  11.751 -0.2820  0.0839 -0.0981
17122W        W33306  13.863   7.420   4.317  0.0895 -0.0417 -0.0083
17123W        W33307   4.820   8.833   3.459  0.0476  0.0054 -0.0116
17124W        W33308   9.888   4.442  11.375 -0.0973  0.0512  0.2283
17125W        W33309  11.884   9.082   5.830 -0.1396 -0.1756  0.1289
17126W        W33310   6.819   0.153  10.470 -0.0045 -0.0783  0.0999
17127W        W33311   1.902  11.433   4.199 -0.1368 -0.3966 -0.1888
17128W        W33312   7.703   8.669  12.352  0.0230 -0.0116  0.1368
17129W        W33313  18.394   7.789   0.574 -0.2926 -0.0126  0.2352
17130W        W33314   7.743   8.225   3.770 -0.0954  0.1932  0.0177
17131W        W33315  18.479   7.488   4.079 -0.1280 -0.0129  0.0468
17132W        W33316  10.667   4.229   4.796  0.1966 -0.0318  0.3130
17133W        W33317  10.902   4.329  15.095  0.1643 -0.0456 -0.1421
17134W        W33318   9.444   8.791   5.799 -0.5802  0.1032  0.2437
17135W        W33319  11.960   4.894  13.870 -0.1688 -0.1659 -0.1013
17136W        W33320   9.247   0.319  13.944  0.0110  0.3585  0.2904
17137W        W33321   1.534  16.392  11.901 -0.1172  0.1567  0.0273
17138W        W33322  15.977  18.083   0.933 -0.1840 -0.0063  0.0734
17139W        W33323  16.643   4.230  15.229  0.1823 -0.0817 -0.1212
17140W        W33324  16.509   5.988  13.161  0.0066  0.0129  0.0414
17141W        W33325  16.436  10.328   3.315  0.1491  0.1981  0.0199
17142W        W33326  16.206  17.375   2.890  0.1323  0.1256  0.4224
17143W        W33327   4.631  13.364   4.169  0.0285  0.0000 -0.0545
17144W        W33328   6.475  17.801   3.997 -0.2807  0.5939  0.0203
17145W        W33329   7.430   8.276   2.079  0.1767  0.0752  0.1131
17146W        W33330  10.753  10.870  11.006  0.4769  0.2917  0.0463
17147W        W33331   9.152   2.558   5.016  0.0992 -0.2545 -0.1215
17148W        W33332   2.677   9.526  11.797  0.3125  0.0667 -0.1989
17149W        W33333  14.109  17.112  13.706  0.1770 -0.0865 -0.0651
17150W        W33334   4.021  13.117  10.628  0.0485 -0.1174 -0.0640
17151W        W33335  12.683  11.237   0.828 -0.0338 -0.1909 -0.2952
17152W        W33336   6.770   2.707  14.111 -0.2532 -0.1489  0.3889
17153W        W33337   8.159   8.857  12.943  0.0452 -0.1670  0.4191
17154W        W33338   5.758  16.204   2.449 -0.2092  0.1846  0.1381
17155W        W33339  16.150   8.784  11.871 -0.1737 -0.1159 -0.1204
17156W        W33340  10.603   9.152  11.868 -0.4859  0.1445 -0.0820
17157W        W33341   5.649  18.028  14.637 -0.1749  0.4348 -0.3751
17158W        W33342   1.141  13.383   0.960  0.0284  0.2685 -0.0162
17159W        W33343  10.470  14.237  14.511  0.0872 -0.1167 -0.0343
17160W        W33344  14.991   3.686   5.706  0.3636 -0.1248 -0.3596
17161W        W33345   0.778  12.940   1.080 -0.1339 -0.1447 -0.2229
17162W        W33346   8.983   6.064  13.861  0.0906 -0.2119  0.4734
17163W        W33347   3.466   2.359  15.062 -0.0028  0.0568  0.3055
17164W        W33348   4.516   2.526   2.362  0.0929 -0.1281 -0.0949
17165W        W33349  16.294   3.837  14.564 -0.1792  0.0439  0.4173
17166W        W33350  15.193   1.393   4.826 -0.0912 -0.2133 -0.0306
17167W        W33351   9.782  16.310  13.752 -0.1848 -0.0057 -0.3112
17168W        W33352   8.209  12.334  14.591  0.0856 -0.2598 -0.3654
17169W        W33353   7.542   7.281  15.114  0.2116 -0.1654 -0.0938
17170W        W33354   7.601  10.526   1.695 -0.1114 -0.2851  0.1825
17171W        W33355  14.649  14.546  14.828 -0.4966  0.0860  0.1641
17172W        W33356  11.109  10.549   0.738 -0.0411  0.3677 -0.0419
17173W        W33357  16.995   4.903  13.491 -0.0647 -0.4832 -0.2205
17174W        W33358   4.003  12.667  12.677  0.3551 -0.1500  0.1701
17175W        W33359   9.994  17.871  11.515 -0.2701 -0.0572 -0.2600
17176W        W33360   0.320   8.502   0.289  0.2674 -0.0164  0.0141
17177W        W33361   1.576   8.227   0.583  0.0878  0.0575  0.2423
17178W        W33362   1.540  10.496  11.685 -0.1840  0.0832 -0.0370
17179W        W33363   8.533  15.614   4.334 -0.1062 -0.3577  0.0535
17180W        W33364  17.725   3.035  13.369  0.2797  0.1880 -0.1840
17181W        W33365   0.580  11.876  14.461 -0.1278  0.0393  0.0121
17182W        W33366  18.840  14.143   3.519  0.1117  0.2400 -0.1609
17183W        W33367   9.587   1.996  12.581 -0.0539  0.2169 -0.1693
17184W        W33368   7.451   3.937  13.624  0.1893 -0.2360 -0.2382
17185W        W33369   4.692  13.166  14.536  0.1328  0.4232 -0.0422
17186W        W33370   5.163   2.735   1.868 -0.0023 -0.0491  0.0258
17187W        W33371  15.705  17.043   4.250 -0.2196 -0.2375 -0.0542
17188W        W33372  16.168  18.066  11.361 -0.0159  0.0227 -0.1551
17189W        W33373   9.520   8.175   3.627  0.1418  0.0816 -0.0352
17190W        W33374   7.226  14.380  12.057 -0.2145  0.1394 -0.2836
17191W        W33375   3.045   4.622   1.547 -0.0565 -0.1465 -0.1232
17192W        W33376  13.113  15.732  13.163  0.3291 -0.0217 -0.1801
17193W        W33377   9.866   5.165   1.403 -0.3027  0.0987  0.1831
17194W        W33378   7.005  13.662   1.268 -0.3655  0.1415  0.1377
17195W        W33379  13.838   2.232  10.817  0.1756  0.0782  0.1527
17196W        W33380  16.534   3.365  12.588 -0.3669  0.0488  0.3104
17197W        W33381   1.215   3.829   4.303  0.1313 -0.0515  0.2489
17198W        W33382   1.735   0.370  15.358  0.0441 -0.0684  0.2320
17199W        W33383  15.008   0.095   5.322  0.1209  0.2143  0.0234
17200W        W33384   8.080  12.964  11.119 -0.1249  0.2201  0.1014
17201W        W33385   0.329   8.397   2.097 -0.3228 -0.2186  0.4356
17202W        W33386  13.162  17.715  14.767 -0.0318  0.2582 -0.0640
17203W        W33387   6.009   0.021   1.077  0.2093 -0.1024 -0.0376
17204W        W33388   5.513   5.639   4.916 -0.0256  0.0665 -0.0188
17205W        W33389   1.122  17.521   0.312  0.1617 -0.0485 -0.0442
17206W        W33390  14.048   0.909  13.765 -0.3886  0.2818 -0.3468
17207W        W33391   4.180  17.026   1.184  0.1474  0.0957 -0.0540
17208W        W33392  11.958  14.198  13.784  0.0216  0.1398  0.2357
17209W        W33393   2.646   6.411   3.511 -0.1862  0.1930  0.0020
17210W        W33394   8.838   2.464   1.491 -0.0667 -0.0642 -0.0652
17211W        W33395   3.504  15.304   3.889 -0.0698  0.0731 -0.3512
17212W        W33396   1.044   4.326   5.258  0.1464  0.0808 -0.1146
17213W        W33397   1.608   7.997   2.383  0.0244  0.1360 -0.2777
17214W        W33398   8.742   4.400   3.806 -0.1018  0.0313 -0.0923
17215W        W33399  12.104   7.489   2.857  0.0336 -0.1763 -0.1673
17216W        W33400   0.764   4.113   0.110 -0.3301 -0.1172 -0.0073
17217W        W33401   5.892   3.495  12.721 -0.0489  0.4243 -0.4970
17218W        W33402   2.645   4.789   1.310  0.0675 -0.0954 -0.1729
17219W        W33403   2.092  16.027   4.618 -0.1299 -0.1669 -0.2484
17220W        W33404  15.567   6.445   1.261 -0.2809  0.0609  0.2619
17221W        W33405  15.873   3.826   1.311 -0.0658 -0.0058 -0.1326
17222W        W33406   4.840   0.677   0.840 -0.0742 -0.0037  0.0494
17223W        W33407  14.758  18.581   4.859 -0.0957  0.1759 -0.1000
17224W        W33408   8.971   7.290  14.325 -0.1448 -0.3579 -0.3357
17225W        W33409  17.856   8.285   1.397  0.2169 -0.1940  0.2373
17226W        W33410   5.179  12.380   0.596 -0.2066 -0.3264 -0.0260
17227W        W33411   8.778   8.971  13.600  0.2254  0.2077 -0.1899
17228W        W33412  15.685   4.989   5.608 -0.1438  0.2070 -0.2405
17229W        W33413   6.564   2.144   1.364  0.1921 -0.0771 -0.0381
17230W        W33414   6.635   6.707  13.791 -0.1268  0.1687  0.1252
17231W        W33415  16.904  12.833   3.563 -0.1016 -0.0244  0.0499
17232W        W33416  12.524   4.309   0.011 -0.0010 -0.0719 -0.0431
17233W        W33417  17.175   0.366   0.937  0.2564 -0.1546 -0.0262
17234W        W33418  17.819   9.112   4.393  0.0297 -0.3136  0.0137
17235W        W33419   6.507  11.089   2.135  0.0571  0.3183 -0.3677
17236W        W33420  17.664  12.072  13.705  0.2053 -0.0365 -0.0734
17237W        W33421   4.936  17.220  11.876  0.1109 -0.0580 -0.0584
17238W        W33422   3.522  18.330  13.497  0.2073 -0.2554 -0.0962
17239W        W33423  17.093  18.304   0.360 -0.1486 -0.1497  0.0580
17240W        W33424  11.642   2.885   5.788  0.0676 -0.1341  0.1769
17241W        W33425  12.385  11.362  12.638  0.0011  0.0421 -0.1065
17242W        W33426  11.552   5.774   4.434  0.1372  0.1306  0.2782
17243W        W33427   9.403  11.194   5.204  0.0169  0.1111  0.1525
17244W        W33428  11.785   8.928   4.328  0.2537  0.1111  0.0740
17245W        W33429   9.296  14.568   4.450  0.3473  0.1876 -0.1618
17246W        W33430   8.918  16.035   1.099 -0.3659 -0.0468  0.0870
17247W        W33431   2.414  18.215  10.536 -0.0675 -0.0146 -0.1732
17248W        W33432  13.835  11.026  12.988  0.0355  0.3286 -0.0351
17249W        W33433  10.684  12.754  14.541 -0.2568  0.0972  0.2067
17250W        W33434  17.699  10.220  11.449 -0.0538  0.0964 -0.2018
17251W        W33435  10.073   9.260   5.395 -0.1985 -0.0398 -0.0361
17252W        W33436  11.150  13.341   2.294 -0.1052 -0.4252 -0.1302
17253W        W33437  11.134   0.202  15.041  0.3287  0.0481  0.1140
17254W        W33438  10.085   7.706   3.008  0.0278 -0.0951 -0.0307
17255W        W33439   7.788   9.232  11.451 -0.0623  0.3455 -0.0756
17256W        W33440   5.320   7.618  12.075  0.0063  0.0624 -0.0658
17257W        W33441  11.538   1.411   3.577 -0.0764  0.2136 -0.3171
17258W        W33442  11.374   9.267  15.180  0.0106 -0.2867  0.1879
17259W        W33443  15.740   2.857  13.818 -0.0947 -0.1809  0.0957
17260W        W33444  13.447  12.410  13.571 -0.0561 -0.0403  0.1446
17261W        W33445  15.880   4.388   1.849  0.1158 -0.3098 -0.0336
17262W        W33446   8.230   1.238  14.202 -0.0673  0.3044  0.2804
17263W        W33447   3.026  12.023   0.029 -0.0943 -0.2097  0.4466
17264W        W33448   6.063   5.201   4.992  0.1605 -0.2435 -0.0092
17265W        W33449   0.482   0.265  14.713 -0.1010  0.0346 -0.4140
17266W        W33450  12.062  13.626  11.718  0.1603  0.1680  0.2862
17267W        W33451   4.618  15.068   5.006 -0.2132 -0.1239 -0.0495
17268W        W33452  11.462  14.856   2.138  0.2585 -0.0885  0.0610
17269W        W33453   5.825  13.262  12.755 -0.0079  0.0405 -0.0770
17270W        W33454  11.917  16.201   1.590  0.0960 -0.1649 -0.0572
17271W        W33455  15.176   4.938  15.097  0.3271 -0.1985  0.4536
17272W        W33456  12.072  13.267  11.089 -0.0145  0.0436  0.0379
17273W        W33457  13.417  14.227  13.906 -0.2391  0.2669 -0.0252
17274W        W33458  14.216  18.807  12.310  0.2332 -0.0346  0.2062
17275W        W33459   5.602   8.725   1.814 -0.4120 -0.1150  0.4911
17276W        W33460  11.401  14.245   2.211  0.0813 -0.2323 -0.1800
17277W        W33461   1.629   3.999   0.185 -0.1513  0.1508  0.1826
17278W        W33462   2.082   8.610   3.560  0.0980  0.0189 -0.0631
17279W        W33463  10.510  11.899  13.455 -0.2547 -0.0041  0.1546
17280W        W33464  13.515   0.919   5.431 -0.0362  0.1972  0.3627
17281W        W33465  10.506   0.701   1.356  0.1431  0.3355  0.3159
17282W        W33466   7.781   6.101   3.634  0.1314  0.1133 -0.1232
17283W        W33467  14.516   8.551   0.034 -0.5358 -0.0627  0.3076
17284W        W33468   0.895   8.530   2.417  0.0058 -0.2719 -0.2188
17285W        W33469  11.402   6.003   0.050  0.0313 -0.2734  0.1182
17286W        W33470   2.621   1.496  14.382  0.1472  0.4217 -0.0890
17287W        W33471   2.279  10.218   3.279  0.5195 -0.1639  0.3361
17288W        W33472   2.578   3.521  14.917 -0.3477  0.1380  0.1090
17289W        W33473  14.654  14.194   3.123  0.2071  0.1649  0.1394
17290W        W33474   1.245  17.422   2.303  0.0996 -0.0981 -0.0539
17291W        W33475   8.228   7.233  14.019  0.0323  0.0335  0.0692
17292W        W33476  10.950  16.622   1.298  0.0138 -0.0576 -0.0633
17293W        W33477   1.762  13.879  12.355  0.2519 -0.1604  0.3593
17294W        W33478   8.175  15.459   1.992 -0.0956 -0.0307 -0.1134
17295W        W33479   6.475   2.020   4.241 -0.3985 -0.2539 -0.0513
17296W        W33480  15.191   4.095   3.868 -0.1758 -0.3968  0.1544
17297W        W33481   3.248  11.834   3.891 -0.1503 -0.2581 -0.0785
17298W        W33482   5.358  17.821  11.008  0.2096  0.0581  0.3965
17299W        W33483   5.341   2.965   2.675  0.0759  0.1246  0.0461
17300W        W33484   0.453   2.374   2.022  0.2649  0.0198 -0.0527
17301W        W33485   7.876   2.486  13.250  0.1019  0.0101 -0.0392
17302W        W33486  10.122  10.235   1.874 -0.0521 -0.1062  0.3369
17303W        W33487   3.251  17.306   2.407 -0.1818 -0.0113 -0.3556
17304W        W33488   0.493  14.176   3.351  0.0616 -0.3689  0.2346
17305W        W33489   9.648   1.480  12.734 -0.1878  0.0220 -0.2453
17306W        W33490  11.051   1.182   3.670  0.1748  0.2615  0.0710
17307W        W33491   5.548  13.947  10.768 -0.0236 -0.2387 -0.4741
17308W        W33492  17.816   5.464  10.708 -0.3192  0.0014  0.0799
17309W        W33493  18.734   2.264  14.973  0.1868  0.0702 -0.4934
17310W        W33494   8.118  13.219  12.095  0.3128  0.0491 -0.2240
17311W        W33495   4.011  11.556   0.025  0.2345 -0.1434  0.1408
17312W        W33496   6.688  18.729   2.685 -0.3215 -0.2580 -0.2850
17313W        W33497   1.736   3.625  14.895  0.1146  0.0777  0.1101
17314W        W33498   6.412  10.705  10.635  0.0058  0.0591 -0.4360
17315W        W33499   2.832   6.083  14.524  0.2258  0.0760 -0.1224
17316W        W33500   0.417   7.449   3.011  0.1852 -0.2216  0.3262
17317W        W33501   2.546  14.851  13.713 -0.4699  0.1576 -0.1215
17318W        W33502  10.612   3.498  12.036 -0.1213  0.1191  0.0914
17319W        W33503  12.327   5.480   0.843 -0.2646 -0.0045 -0.0548
17320W        W33504  12.915  14.876   1.818 -0.0585 -0.0300 -0.1244
17321W        W33505   6.620  13.572   2.826  0.3482 -0.0570  0.3269
17322W        W33506   0.131  14.965   3.880 -0.1587 -0.0752  0.0630
17323W        W33507  12.018  12.855  14.964 -0.0756  0.0089  0.0768
17324W        W33508   6.067  18.446  13.677 -0.0136  0.0420 -0.0221
17325W        W33509   2.357  11.363  13.131 -0.1411  0.0473 -0.0575
17326W        W33510  11.054   8.225   3.283 -0.0902 -0.0206  0.3365
17327W        W33511  16.137  12.168   4.001 -0.2528  0.0072 -0.0724
17328W        W33512  17.558   5.223  15.055 -0.1994 -0.0671  0.0040
17329W        W33513   0.869  17.298   3.390  0.1980 -0.1080 -0.1097
17330W        W33514   5.571  17.856   4.990  0.2678  0.0163 -0.1166
17331W        W33515  14.409  17.660  10.801 -0.1151  0.1719  0.0231
17332W        W33516  11.856   5.967   5.943 -0.0888  0.0361  0.1370
17333W        W33517  15.967  14.172   5.769 -0.0610  0.2130 -0.3601
17334W        W33518  15.438   0.451   2.235 -0.1284  0.1339 -0.3428
17335W        W33519  17.678   5.432   5.383 -0.3016  0.2315  0.1867
17336W        W33520  15.923  16.197   2.966 -0.0837 -0.0353  0.0257
17337W        W33521   4.344  11.585  10.992  0.0015  0.1057 -0.0268
17338W        W33522  12.702  12.515  13.859 -0.1213 -0.1015  0.1392
17339W        W33523   7.312   2.480  11.634 -0.0485 -0.1227 -0.1854
17340W        W33524   7.468  11.755  13.508 -0.0004  0.0361  0.1818
17341W        W33525   9.173   2.425  11.590 -0.1054 -0.0618  0.0452
17342W        W33526   8.927   3.543   2.693  0.0321 -0.0029 -0.1314
17343W        W33527  13.895  16.135   5.410  0.0086 -0.1474  0.2259
17344W        W33528   6.776  11.679   5.063  0.0376 -0.0014  0.1024
17345W        W33529   2.522   1.720  15.166  0.4279  0.1729  0.0854
17346W        W33530   4.962   7.953   0.203  0.1739  0.0616  0.1919
17347W        W33531   2.369  17.013   0.287  0.1496 -0.0934 -0.1684
17348W        W33532  17.635   1.095   0.004 -0.2856 -0.1288 -0.2308
17349W        W33533  10.563   0.114  13.814  0.2955  0.0362 -0.1078
17350W        W33534   0.378   5.590  14.294 -0.1670  0.0802 -0.0740
17351W        W33535   4.808   5.501   3.391 -0.1185 -0.2357 -0.2289
17352W        W33536   1.286  17.350   9.972 -0.0314 -0.0845 -0.1727
17353W        W33537   6.383   8.509   5.446  0.0969  0.0159 -0.0998
17354W        W33538   5.142  15.701   5.231  0.1647 -0.2146 -0.2980
17355W        W33539   4.429   1.047   1.541 -0.1981  0.0667  0.4035
17356W        W33540  18.713  13.235  13.264 -0.2847 -0.0632  0.0587
17357W        W33541   5.262  17.437   2.348 -0.4512  0.2408  0.3089
17358W        W33542   4.968   4.568  15.197 -0.1762  0.0274 -0.0213
17359W        W33543  12.938  18.369   1.009  0.0632 -0.0245 -0.2827
17360W        W33544  11.046   3.195  12.837  0.2052 -0.3501  0.0700
17361W        W33545  15.067   8.672  14.904  0.0910 -0.1783 -0.3142
17362W        W33546  11.580   1.730  11.629 -0.3940 -0.0648  0.2894
17363W        W33547  13.087  17.162   5.516 -0.0446 -0.1752  0.1859
17364W        W33548  13.888   3.372   3.459 -0.0857  0.2625 -0.2716
17365W        W33549  15.734   8.963  12.101 -0.4047 -0.0494 -0.1532
17366W        W33550  12.487   3.751   3.983 -0.0855  0.2659 -0.0848
17367W        W33551   3.500  12.300  10.370  0.0985  0.0467  0.1049
17368W        W33552  13.621   6.305  11.785 -0.0256  0.0905 -0.1347
17369W        W33553   4.325   2.117   0.085  0.1173 -0.4202 -0.4714
17370W        W33554   2.287   8.275  13.865 -0.1295 -0.3471  0.3946
17371W        W33555   4.269   6.792  12.284  0.1414 -0.1155  0.0974
17372W        W33556  17.978   0.243  12.071  0.1341 -0.0451  0.2787
17373W        W33557  16.481  16.908   1.500 -0.0709 -0.1423 -0.1800
17374W        W33558   2.528   5.666   2.800  0.0903  0.3440 -0.1940
17375W        W33559   0.884  10.603   3.890 -0.3810 -0.1463 -0.2289
17376W        W33560   2.725  11.075   1.820 -0.2656  0.0079  0.2360
17377W        W33561   9.475  11.759  10.733 -0.1301  0.2008 -0.1808
17378W        W33562   2.498   7.685   4.110 -0.1549  0.1131 -0.1130
17379W        W33563  12.304  12.811   4.387 -0.1405 -0.0790  0.1369
17380W        W33564   0.249  13.538  13.025  0.2071 -0.2904  0.0777
17381W        W33565  11.965   4.627  12.419  0.3415  0.3758 -0.2392
17382W        W33566   4.401  12.325  11.987 -0.1256  0.0646 -0.1141
17383W        W33567   7.291  10.675   1.325  0.0482  0.0596 -0.2775
17384W        W33568   1.575   7.080  13.915 -0.1769  0.1015 -0.2268
17385W        W33569  15.376  16.268   4.115 -0.2389  0.2301  0.0088
17386W        W33570   3.960   9.811  12.887 -0.1473  0.3736  0.0211
17387W        W33571   8.614   7.943   4.721  0.0696 -0.0702  0.1626
17388W        W33572   7.454  18.263  13.948  0.1001 -0.1242 -0.1654
17389W        W33573  14.332  12.896  14.046 -0.0029 -0.0466  0.2799
17390W        W33574  13.238  14.171  13.387 -0.4859  0.1312  0.1175
17391W        W33575   4.842  10.262  12.018 -0.1123  0.3198 -0.0168
17392W        W33576  15.960  16.411  14.454  0.4059 -0.1532  0.0898
17393W        W33577   5.975  18.124   0.333 -0.2123 -0.4046  0.1061
17394W        W33578  17.555  13.228   1.632  0.2724  0.2358  0.3797
17395W        W33579   7.216   9.655   4.567 -0.0114  0.1040  0.3032
17396W        W33580   0.410  15.657  11.832  0.0661 -0.3631  0.1874
17397W        W33581   7.107   1.598  12.183  0.2583  0.2120  0.0327
17398W        W33582   5.549  17.543   0.008 -0.0912 -0.5379 -0.3080
17399W        W33583   4.669  15.695   5.630  0.1015  0.0499  0.1200
17400W        W33584  13.268   0.564  15.101  0.0080  0.0276 -0.0344
17401W        W33585   5.852   7.521   4.969  0.1084  0.1974  0.1610
17402W        W33586  11.662   5.873  13.031 -0.1355  0.1019 -0.1553
17403W        W33587   3.496  16.081   0.694  0.0250 -0.1031 -0.1191
17404W        W33588   6.794   8.177   1.140  0.0836  0.2763 -0.1482
17405W        W33589  13.982   5.372   0.990 -0.0983  0.2034  0.1245
17406W        W33590   1.355  18.293   0.226  0.0244  0.0790  0.2649
17407W        W33591  14.547  17.079  14.211 -0.0325 -0.2506 -0.1749
17408W        W33592  16.984  13.001  15.239 -0.1703 -0.2289  0.0514
17409W        W33593  13.139  11.196  13.462 -0.2372 -0.2523  0.0587
17410W        W33594   1.616   7.511   4.461 -0.5242 -0.1302 -0.3421
17411W        W33595  14.266   9.974  11.306 -0.2466 -0.1733  0.2545
17412W        W33596   6.858   1.531   2.549  0.0222  0.2567 -0.1275
17413W        W33597  17.395   0.617   0.569 -0.0188 -0.0646 -0.2069
17414W        W33598  14.749   2.039   2.697  0.0430 -0.1939 -0.2056
17415W        W33599   5.899  14.221   1.946  0.1905  0.2911  0.0082
17416W        W33600   7.934  10.038  10.960 -0.1210  0.4230 -0.3327
17417W        W33601  16.381  13.040  14.839  0.1587  0.2243  0.0650
17418W        W33602  12.713  13.983  11.016 -0.0458  0.1223  0.0189
17419W        W33603  18.259   4.539   0.610 -0.1590  0.0917  0.2358
17420W        W33604   9.186   5.836  12.503  0.0049  0.1585  0.2034
17421W        W33605   6.642  18.539  11.647 -0.1549  0.0756 -0.0118
17422W        W33606   2.647   4.024  11.572 -0.4432 -0.0018 -0.2352
17423W        W33607  13.190   0.514  14.533  0.0333 -0.0779  0.0780
17424W        W33608  14.000   1.481   5.510 -0.0693 -0.0948  0.0193
17425W        W33609   5.680  18.009   0.753  0.3153  0.1494 -0.0750
17426W        W33610  12.536   9.355  13.201 -0.1632  0.1090 -0.3455
17427W        W33611   7.411   8.226  11.461  0.3243 -0.0363  0.1659
17428W        W33612  15.187  14.762   1.525 -0.1752  0.0662 -0.1002
17429W        W33613  18.111  16.764  14.961  0.3329  0.2714 -0.0014
17430W        W33614  16.890  14.487  11.342  0.2418 -0.0880 -0.1495
17431W        W33615   1.474  11.307   3.875 -0.1491  0.0440  0.1861
17432W        W33616   3.271   9.339  10.095  0.3008 -0.2159  0.1190
17433W        W33617   1.718   2.840  12.597  0.0820  0.0313  0.2327
17434W        W33618   2.303   0.530  14.488 -0.1023  0.1012  0.0241
17435W        W33619  18.470   1.986   2.030  0.1082 -0.0712  0.3382
17436W        W33620   5.890  14.540  13.046  0.2192 -0.1124 -0.4091
17437W        W33621  13.811  10.792   3.307  0.0909 -0.2249  0.0626
17438W        W33622   6.540  14.110   2.174 -0.0168 -0.0356  0.2045
17439W        W33623   5.480   2.927   4.931  0.1826  0.0386 -0.2190
17440W        W33624   6.331  15.263   4.783  0.0740 -0.0224 -0.0671
17441W        W33625  10.659  10.394  10.841 -0.0135 -0.3250  0.2397
17442W        W33626  14.790   8.057   1.605 -0.1982  0.1274 -0.0303
17443W        W33627  10.391  11.106   4.859  0.2004  0.1913  0.1663
17444W        W33628   2.470  17.664   4.766  0.0879  0.1400  0.1730
17445W        W33629   2.655  10.011  14.394  0.0644 -0.0309  0.1697
17446W        W33630   4.248  13.558  10.730  0.4195 -0.0761  0.1853
17447W        W33631  17.456  12.144   3.657 -0.1883 -0.0288 -0.1135
17448W        W33632  18.505   0.894  10.756 -0.3322  0.0918  0.0449
17449W        W33633  12.183  16.555  11.174 -0.3593  0.0285 -0.0723
17450W        W33634   8.003   7.995  12.852  0.1745 -0.0116 -0.2900
17451W        W33635   7.352  15.739  11.666  0.3424 -0.0440 -0.1654
17452W        W33636   8.273   5.491  12.536  0.0087  0.1012 -0.0765
17453W        W33637   9.492  13.572   1.615 -0.2833 -0.4859 -0.0783
17454W        W33638  11.810  17.833  11.872 -0.3674  0.2006 -0.0504
17455W        W33639  10.200   1.487  15.227  0.2325 -0.0778 -0.0071
17456W        W33640   6.423  15.085   3.852 -0.1131 -0.1926  0.0600
17457W        W33641   0.877  13.562  13.514  0.1083 -0.1412 -0.0340
17458W        W33642  16.861   1.538  12.999  0.0173 -0.1309 -0.2169
17459W        W33643  17.380  17.319  11.238  0.1071 -0.0447 -0.2628
17460W        W33644  10.574  15.337  14.519 -0.2239 -0.3108  0.1172
17461W        W33645   5.077  15.745   2.300 -0.1532 -0.2373  0.1531
17462W        W33646  13.028   4.231   1.519 -0.1605  0.0773  0.0556
17463W        W33647   0.887  13.990  12.525  0.2244  0.0051 -0.1247
17464W        W33648   0.079   9.267   0.556 -0.0786  0.2547  0.1420
17465W        W33649   5.855  10.311   3.293  0.3933 -0.0952  0.0847
17466W        W33650  17.444  13.907  11.063  0.2084  0.0841  0.0342
17467W        W33651   5.199   5.140   4.843 -0.2540 -0.1275 -0.4051
17468W        W33652  13.991   9.674  13.030 -0.2437 -0.1089 -0.0566
17469W        W33653   7.167  15.952   2.234 -0.1091  0.0489  0.0512
17470W        W33654   8.681  15.556   2.285  0.0288  0.3186 -0.0336
17471W        W33655   6.573  11.731  14.206  0.2094  0.0735 -0.2913
17472W        W33656   1.542  12.304   1.859 -0.1775 -0.0667  0.2240
17473W        W33657  10.385  17.184   3.456  0.0695 -0.0328 -0.2468
17474W        W33658   3.105  15.173   3.545  0.1983  0.0884  0.1867
17475W        W33659  17.478  12.890  12.096 -0.0225  0.0679  0.1287
17476W        W33660   4.470   0.219   3.836 -0.0760  0.2709  0.1829
17477W        W33661   9.610  14.161  15.057 -0.1369  0.2870 -0.1385
17478W        W33662  10.357  17.311   4.206  0.0003 -0.0765 -0.4064
17479W        W33663  15.623  17.858   4.817  0.0302  0.0724 -0.0602
17480W        W33664   4.401  14.855  13.530 -0.2043  0.0517 -0.3463
17481W        W33665   6.582   0.197   4.291 -0.1569 -0.2502  0.1089
17482W        W33666   2.800   3.267  10.946  0.3222 -0.0650  0.0045
17483W        W33667   1.284   8.828  10.695  0.3753  0.2047 -0.0609
17484W        W33668  12.782   1.733   4.950 -0.0188 -0.0883 -0.3333
17485W        W33669  16.443   7.409  14.755 -0.0067  0.0074 -0.1401
17486W        W33670   7.992  10.866  13.582 -0.1674  0.0519 -0.2502
17487W        W33671   8.145   1.240  14.724 -0.1394 -0.2496 -0.1185
17488W        W33672  16.448  17.779  12.317 -0.2395  0.0083  0.2234
17489W        W33673  16.958   2.894   5.258 -0.1144  0.0121 -0.3188
17490W        W33674   2.828   6.044  15.077  0.1534  0.0539 -0.0135
17491W        W33675   6.896  12.563  14.866 -0.0517  0.0345 -0.0861
17492W        W33676   2.080   0.199   4.468  0.3481 -0.1734 -0.3992
17493W        W33677   9.578  11.117   2.785  0.1007 -0.0279  0.1322
17494W        W33678  16.399  13.564  15.080  0.1178  0.1157  0.0048
17495W        W33679  13.341   2.887  11.144  0.1735 -0.0049 -0.0863
17496W        W33680  11.956  17.080  14.395 -0.1357  0.0931  0.2465
17497W        W33681   2.805  11.725   5.707  0.2893 -0.3550 -0.0384
17498W        W33682   9.009  15.051   1.568 -0.0707  0.0829 -0.2758
17499W        W33683  18.794   6.010  14.528  0.1073 -0.1729  0.0961
17500W        W33684  10.623   1.434   3.786  0.2255  0.3083 -0.1912
17501W        W33685   5.497   4.520  11.754  0.2587  0.0111 -0.1477
17502W        W33686   0.501   3.168   0.724  0.0763  0.0981  0.1601
17503W        W33687   9.063  11.361  12.531 -0.0668  0.0036 -0.3054
17504W        W33688   4.986   4.555   1.654  0.3783 -0.2569  0.2160
17505W        W33689   6.448   7.593  14.566 -0.0318  0.0253 -0.4763
17506W        W33690   3.466  17.081  11.442 -0.0837  0.2063 -0.5208
17507W        W33691  13.244   2.601   3.998 -0.0194  0.1012  0.1325
17508W        W33692  11.306   1.021  11.829  0.1876 -0.0675  0.2544
17509W        W33693   1.923   3.397   5.385 -0.1080 -0.0391 -0.2434
17510W        W33694  12.218   4.359  14.118 -0.1350  0.2296  0.6995
17511W        W33695  16.792   6.916   9.701  0.0144  0.0704  0.4119
17512W        W33696  13.135   6.302  11.493 -0.0635  0.1734 -0.3681
17513W        W33697  15.924  12.292  14.922  0.0115  0.2025 -0.0621
17514W        W33698   3.916  11.142   3.830 -0.1583  0.2822  0.3564
17515W        W33699  11.097   0.791   4.011 -0.0302 -0.1488  0.0074
17516W        W33700   7.222  10.893   1.901  0.0322 -0.0676  0.1406
17517W        W33701   2.057   6.467  11.810  0.0946 -0.3183 -0.0413
17518W        W33702   2.010   4.580  14.230 -0.1175 -0.0444  0.0080
17519W        W33703   8.622   1.772  12.056 -0.1181 -0.2315  0.0205
17520W        W33704   4.737   4.158   3.232 -0.1555 -0.2125  0.2559
17521W        W33705  13.163   5.932  14.910  0.2624 -0.2030 -0.0892
17522W        W33706  10.699  11.146  12.864  0.0767 -0.2277 -0.0112
17523W        W33707  11.311   6.867   1.622  0.1047 -0.3572  0.0182
17524W        W33708  10.503  18.636   2.699  0.0466 -0.1706 -0.0060
17525W        W33709   5.454  10.608   0.589  0.0366  0.1257  0.1447
17526W        W33710   3.895  15.670  12.646 -0.0218 -0.0785 -0.0714
17527W        W33711   9.982  13.502  12.320 -0.2271  0.0376  0.1229
17528W        W33712  15.306   5.123   3.589  0.0599  0.1814  0.0973
17529W        W33713   1.939  13.712  15.277 -0.0303 -0.4599 -0.1421
17530W        W33714   9.725  17.902   0.232 -0.0057 -0.1818  0.1172
17531W        W33715   9.677  11.917   3.379 -0.3118 -0.0584 -0.2326
17532W        W33716   2.551   9.626   4.183 -0.0836  0.0534  0.2852
17533W        W33717   7.176  10.422  15.092  0.3234 -0.0866 -0.0339
17534W        W33718   9.102  15.559  11.132  0.0434  0.2432  0.0161
17535W        W33719   4.648   3.106  11.442  0.1966  0.1932  0.1188
17536W        W33720  16.027   7.830  12.300 -0.2819  0.3687 -0.1090
17537W        W33721  17.464   7.199  14.858 -0.0710  0.0053 -0.0225
17538W        W33722   3.552   5.464  15.235  0.0517  0.1955 -0.1634
17539W        W33723   6.890  18.040  11.870 -0.1129  0.1367  0.2800
17540W        W33724  18.713   8.866   4.702  0.0417  0.2433 -0.2687
17541W        W33725  16.200   9.929   3.922 -0.0394 -0.2349  0.0213
17542W        W33726  15.781  14.094   3.304 -0.0974 -0.0960  0.1195
17543W        W33727   3.291   6.544  11.725 -0.2824  0.2057  0.3955
17544W        W33728   0.631   5.143   3.576  0.0618  0.0993 -0.1324
17545W        W33729   0.538   7.283  11.401  0.0972  0.0076 -0.1134
17546W        W33730  18.468   1.721   5.300  0.1158  0.0337  0.0035
17547W        W33731  14.106   7.403  14.104  0.0772 -0.1928 -0.1486
17548W        W33732  12.921   4.224   4.843 -0.0888 -0.1671  0.1325
17549W        W33733  13.638  18.509  14.795  0.0470  0.0266 -0.0532
17550W        W33734   8.587  17.174   2.981 -0.0264  0.0143  0.4196
17551W        W33735   1.447  11.858   2.882 -0.0778 -0.0245  0.4461
17552W        W33736  14.258   5.377  11.005  0.1308  0.2354  0.1443
17553W        W33737   1.414   5.080   2.277 -0.1045  0.0608 -0.2203
17554W        W33738  16.803  13.093   1.029  0.0157 -0.1139  0.4268
17555W        W33739   8.566  10.937  13.182  0.1444  0.0720 -0.3295
17556W        W33740  16.144  18.252  14.768 -0.1765 -0.0233 -0.5422
17557W        W33741  16.137   8.894  12.427 -0.2578 -0.0721  0.0435
17558W        W33742   8.808   1.774   4.649  0.1347  0.0485 -0.0184
17559W        W33743  10.875   9.901  12.582  0.2828  0.1918  0.1151
17560W        W33744   0.481   7.275   1.713 -0.3811 -0.1161  0.0058
17561W        W33745   2.169   7.530   0.933 -0.0842  0.1253 -0.0080
17562W        W33746  11.708   6.959   5.208  0.2491  0.1248 -0.0505
17563W        W33747   2.150  14.480  11.266  0.3009 -0.3855  0.0017
17564W        W33748  11.142  13.471   0.084  0.3001  0.1840  0.0354
17565W        W33749   4.390   7.175  14.990 -0.0388  0.1788 -0.1062
17566W        W33750   0.013   7.753  15.078 -0.1698 -0.1078 -0.1344
17567W        W33751   3.516   1.775  13.436 -0.2160 -0.1150  0.0794
17568W        W33752   9.316  10.971   4.258  0.2745 -0.0752 -0.1130
17569W        W33753   5.205  17.987  15.525 -0.2881 -0.1512  0.0053
17570W        W33754   4.278   5.482  14.028 -0.2191  0.0263  0.1251
17571W        W33755  15.263   3.103   0.105  0.0101 -0.0804  0.1345
17572W        W33756   3.635  15.490  11.742  0.0268 -0.1428 -0.0539
17573W        W33757   3.598   9.538  12.588 -0.1251  0.1459 -0.3121
17574W        W33758  10.956  18.390   3.331 -0.2445  0.0687  0.2648
17575W        W33759  18.367   3.723  15.071  0.1257  0.1113  0.1456
17576W        W33760   5.118   0.428   5.035  0.0717 -0.2829 -0.2097
17577W        W33761   6.138  10.872  11.504 -0.0112  0.0666 -0.2017
17578W        W33762  13.522   7.739   4.575  0.0227  0.1184 -0.0207
17579W        W33763  15.789   0.558  13.903  0.0987  0.0593  0.0790
17580W        W33764   9.859   9.942  10.481 -0.0894 -0.3617 -0.0669
17581W        W33765   9.694   1.090   1.542  0.0072 -0.1315 -0.0773
17582W        W33766  11.935   4.816  12.893 -0.1896 -0.0407  0.0823
17583W        W33767  12.197   0.210  10.277 -0.1560 -0.0767  0.0450
17584W        W33768   5.318   8.111   4.457  0.0633 -0.1652 -0.0974
17585W        W33769   0.160  17.087  12.838 -0.2900  0.0599 -0.0400
17586W        W33770  15.615   3.302  14.969  0.0422 -0.2990  0.0720
17587W        W33771   6.508   5.373  11.277 -0.1756  0.2153 -0.1451
17588W        W33772   5.308  16.605   0.448  0.1723 -0.2128 -0.2893
17589W        W33773  12.777  18.038   2.134 -0.0928  0.0750 -0.0936
17590W        W33774   1.400   1.982   1.110 -0.2042  0.0825  0.0670
17591W        W33775   5.673   7.864   3.847  0.0019  0.2045 -0.1318
17592W        W33776   4.894   7.400   1.984  0.1679  0.0560  0.3488
17593W        W33777  15.483   5.812  15.243  0.2487  0.1397 -0.0553
17594W        W33778  14.210   1.873   0.986 -0.1435 -0.0211  0.2087
17595W        W33779   2.139  18.482  14.689  0.0521  0.5458  0.1133
17596W        W33780  17.044  14.952   3.498  0.1006  0.0617  0.1830
17597W        W33781   5.662  11.067   4.169 -0.0941  0.1443 -0.0402
17598W        W33782   6.418   2.107  14.958 -0.1064 -0.0871  0.0120
17599W        W33783   0.680   6.334  14.681  0.1920  0.0561 -0.3591
17600W        W33784   5.987   0.435  14.417 -0.2349  0.2090 -0.0212
17601W        W33785   3.576   4.226  11.000 -0.1082 -0.0848  0.0535
17602W        W33786   8.463   7.531  11.922  0.3405 -0.0236 -0.0353
17603W        W33787   4.027  10.784  10.922 -0.0685  0.1616  0.1970
17604W        W33788  16.396   1.404  12.823 -0.0260  0.1213  0.0726
17605W        W33789   3.025   3.992  15.361 -0.1140  0.2548  0.4150
17606W        W33790   8.977  17.938   2.890 -0.1074  0.2363  0.0728
17607W        W33791  15.305  11.312   0.085 -0.0384  0.3144  0.3309
17608W        W33792   6.356  15.907   1.873 -0.2353 -0.0253  0.2825
17609W        W33793  11.271   8.452   1.898 -0.1935 -0.1221 -0.0229
17610W        W33794  15.719  15.555   4.516  0.3166 -0.1270  0.2887
17611W        W33795   8.709   9.517  14.003  0.0812  0.0294  0.1490
17612W        W33796   3.332   2.456  11.871 -0.1656  0.3264 -0.3311
17613W        W33797   6.160   0.663  13.013  0.0954  0.1038 -0.1370
17614W        W33798   8.731   7.980   4.138  0.1621 -0.1306 -0.1127
17615W        W33799  18.742   9.150   2.862 -0.0391 -0.2372  0.2266
17616W        W33800  18.802  13.106   5.774 -0.1913 -0.0202 -0.0846
17617W        W33801   5.260   3.349  10.857  0.1551 -0.2140 -0.3453
17618W        W33802  16.622   2.405  14.810  0.1361  0.1392  0.0095
17619W        W33803   3.557  14.386   0.988 -0.0992 -0.0683  0.0010
17620W        W33804   3.987  16.772  14.683  0.1172 -0.2206 -0.1818
17621W        W33805  15.910  15.800   0.489  0.0033 -0.2551 -0.1710
17622W        W33806  16.605   8.103   0.597 -0.1443  0.0679 -0.4758
17623W        W33807   2.072  16.742   1.213  0.3964 -0.1397 -0.2024
17624W        W33808   4.032  15.298  14.219  0.1984 -0.0359 -0.1487
17625W        W33809   1.441   1.292   1.758  0.2460 -0.1671 -0.3037
17626W        W33810   2.186   1.842   2.968 -0.0236 -0.1045 -0.3383
17627W        W33811  15.948  11.859  14.545 -0.1582  0.3842  0.0505
17628W        W33812   1.009  16.199  15.159  0.1209  0.1627  0.3037
17629W        W33813  15.812   3.727  14.854  0.1887 -0.1897 -0.2918
17630W        W33814  10.073   7.241   3.004 -0.0107  0.3613  0.1313
17631W        W33815  15.169   8.887   1.381  0.1869  0.2120 -0.0082
17632W        W33816   4.832   0.039   4.711  0.0249  0.0181 -0.0603
17633W        W33817  17.799   5.001   5.894 -0.2247  0.0925  0.2123
17634W        W33818   5.227  18.559   2.605 -0.2614 -0.1057 -0.0733
17635W        W33819   9.212  16.164   4.781 -0.1946 -0.2575 -0.4947
17636W        W33820   2.421  16.482  10.738  0.1114 -0.2162  0.0936
17637W        W33821   4.081   5.475  14.871 -0.1737  0.3618 -0.2252
17638W        W33822   1.801  11.818  10.282  0.1193  0.4208  0.2480
17639W        W33823   1.718  18.817   4.722 -0.3493 -0.0039 -0.1708
17640W        W33824   5.535   9.622  15.456 -0.2419 -0.1296 -0.1602
17641W        W33825   3.439  12.864   0.836  0.1008  0.2097  0.1816
17642W        W33826   2.904  15.418   1.436  0.0514  0.3086  0.1464
17643W        W33827  14.891  14.424   3.595  0.3143 -0.1718  0.0736
17644W        W33828  16.472  10.752  13.357  0.1369  0.0628  0.2389
17645W        W33829   9.157   8.586   0.243 -0.1557 -0.2548  0.1541
17646W        W33830  11.646  11.441   4.098  0.2120  0.2053 -0.2038
17647W        W33831  12.812   1.797   2.648  0.2272 -0.0634 -0.1050
17648W        W33832   8.431   2.105   2.312  0.2358 -0.0970 -0.2020
17649W        W33833   1.495  16.083   1.694 -0.0364 -0.0778  0.3784
17650W        W33834  14.328  15.994  12.784  0.0900 -0.3143 -0.2403
17651W        W33835  15.402   5.934   0.378 -0.4705 -0.1420 -0.0376
17652W        W33836   0.483  13.091   4.416  0.2457  0.4375 -0.0443
17653W        W33837  14.665   1.316  14.321  0.0600 -0.1948 -0.4258
17654W        W33838  17.526  18.789   2.349 -0.1190 -0.0539 -0.3114
17655W        W33839  13.922   8.309  10.893  0.0254 -0.1505 -0.1337
17656W        W33840   7.430   9.867  10.836  0.4242 -0.0539  0.0047
17657W        W33841  15.624  12.428  13.950  0.2833 -0.1322 -0.0099
17658W        W33842  15.644  14.805   3.144 -0.0681  0.0243 -0.1632
17659W        W33843   8.263   7.544   1.636  0.1285  0.0817  0.0801
17660W        W33844   5.138  12.053  13.239 -0.1022 -0.1655 -0.0782
17661W        W33845   8.858   8.194   1.476  0.0992 -0.0167  0.0140
17662W        W33846  12.507  17.291  12.739  0.0164  0.0194 -0.0580
17663W        W33847  15.016  12.168   4.413 -0.1871 -0.0631 -0.1035
17664W        W33848   8.978  13.133   0.359  0.1238  0.1744  0.1398
17665W        W33849  12.117  13.398  12.733  0.2934 -0.3790 -0.1607
17666W        W33850  10.219   5.794   2.588  0.0018  0.1918 -0.1381
17667W        W33851   4.780   0.700   1.736  0.2173 -0.0092  0.3516
17668W        W33852  18.095   3.597  12.670  0.1434  0.2011  0.0595
17669W        W33853   7.331   7.416   2.938  0.1626 -0.1138 -0.2321
17670W        W33854  12.453   4.955  11.603 -0.1782 -0.3207 -0.0156
17671W        W33855  15.074  10.297  15.110 -0.2789  0.1651  0.0686
17672W        W33856   6.468  14.612  11.725 -0.1818 -0.0688  0.0763
17673W        W33857   2.692  10.350   4.591 -0.2444  0.0012 -0.0948
17674W        W33858  16.412   5.634  14.988  0.0759 -0.0247 -0.0316
17675W        W33859  15.322   1.045   3.940  0.0791 -0.2019  0.2109
17676W        W33860  16.605   6.444   0.000 -0.1727 -0.1365  0.0830
17677W        W33861  17.155  18.090  11.885  0.2563  0.1488  0.1397
17678W        W33862   9.978   1.994   5.036  0.1050 -0.0972 -0.1105
17679W        W33863  12.354  16.624   2.361  0.0755  0.0267 -0.2617
17680W        W33864   3.474   8.960  14.575  0.2132  0.1164  0.0816
17681W        W33865   6.705   7.427  13.327 -0.0092  0.0511  0.0642
17682W        W33866   6.682  10.827  14.260 -0.1717 -0.2457 -0.1241
17683W        W33867  11.117   4.196   2.116 -0.3560 -0.0033  0.2216
17684W        W33868  10.240   0.171   1.550  0.1106  0.2050  0.0354
17685W        W33869   0.265   2.608   3.501 -0.1507  0.1234  0.0160
17686W        W33870   9.814   2.800  10.398  0.2849 -0.1784 -0.0645
17687W        W33871  12.245   7.061   5.008  0.1230 -0.2748  0.1737
17688W        W33872  11.181   1.795  12.338  0.3105 -0.1836 -0.0287
17689W        W33873  16.102   4.272  12.774  0.0643  0.0859  0.2572
17690W        W33874  10.947  17.064   1.559  0.0338 -0.1136  0.1945
17691W        W33875  13.270  17.983   1.129 -0.2054 -0.0273  0.0498
17692W        W33876   5.335  14.559   0.071 -0.1639  0.3359  0.0079
17693W        W33877   8.613  11.880  10.411  0.0761 -0.0729 -0.3020
17694W        W33878  18.404  10.071  10.260  0.1602  0.0248  0.2528
17695W        W33879   5.641  17.225   2.900 -0.0307 -0.0934  0.0584
17696W        W33880   0.334   5.943  11.404 -0.1700 -0.0464 -0.1500
17697W        W33881  10.762   4.339  13.295  0.1551  0.2281 -0.0184
17698W        W33882   0.341   1.280   4.899 -0.1719 -0.2303  0.0457
17699W        W33883   5.573  10.041  13.437 -0.3585 -0.0255  0.0599
17700W        W33884   5.319  17.041   5.471 -0.0350  0.2294 -0.0129
17701W        W33885  17.487   6.060  10.368 -0.0310  0.1620 -0.1836
17702W        W33886   7.630   3.852   1.199 -0.0595 -0.1477 -0.1230
17703W        W33887   5.666  12.419  11.820 -0.1169  0.1131  0.0984
17704W        W33888   8.471  13.021   4.767 -0.0630  0.2557  0.2213
17705W        W33889  18.045  14.134   0.584  0.0920  0.2007  0.1947
17706W        W33890   4.261   4.218  13.053 -0.2320 -0.4434  0.1869
17707W        W33891   6.089  14.875   1.414  0.0062  0.0278  0.0953
17708W        W33892   7.028   5.257   4.155  0.1308  0.1939 -0.1930
17709W        W33893  15.848  10.501   4.190 -0.0128 -0.1558  0.2404
17710W        W33894   4.903  13.967   3.367  0.1611 -0.1920  0.1646
17711W        W33895  15.659  12.885  15.350 -0.0122  0.0362 -0.2689
17712W        W33896  13.461   8.845  12.838 -0.0337 -0.0531  0.1578
17713W        W33897   7.838  13.411   9.817 -0.5522 -0.1145 -0.0199
17714W        W33898  18.751  11.971   2.610 -0.0538  0.5452 -0.0345
17715W        W33899  15.192   7.315  13.913  0.0211  0.3260 -0.0571
17716W        W33900  18.293   8.801  13.757  0.0602  0.1854 -0.0925
17717W        W33901  17.717  13.415  14.232 -0.1501 -0.1491 -0.1714
17718W        W33902  12.533   6.593   3.974  0.0963  0.2985  0.0392
17719W        W33903  15.578   4.551   0.034 -0.0488  0.0734  0.2209
17720W        W33904   5.493   3.664  13.614  0.0813  0.2224  0.0244
17721W        W33905  11.886   4.994   0.314 -0.2399 -0.0138  0.2540
17722W        W33906   8.771   9.633   4.813  0.0389 -0.0555 -0.1765
17723W        W33907   3.510   8.831  10.093 -0.0395 -0.0222  0.3073
17724W        W33908   0.760   5.006   2.740 -0.3230 -0.0768 -0.0460
17725W        W33909  17.596   0.367  12.381 -0.2226  0.1766 -0.3093
17726W        W33910   7.604  17.862   5.155  0.1730 -0.0551 -0.0364
17727W        W33911   3.975  10.367   0.461 -0.0647 -0.0196  0.0024
17728W        W33912  13.617   0.368   0.413  0.1293  0.1084 -0.3251
17729W        W33913   5.973   1.686   3.888  0.2047  0.0676  0.0079
17730W        W33914   4.245   4.998   3.583  0.2802 -0.1594  0.0022
17731W        W33915   0.623  16.021   2.282  0.1492 -0.0580  0.2749
17732W        W33916   6.032   1.758   5.395  0.0406  0.1867  0.0465
17733W        W33917  13.568   8.733  10.077  0.1352 -0.1223  0.0788
17734W        W33918   9.711   8.189   4.105 -0.2697  0.0768  0.2764
17735W        W33919  14.255   8.570   3.587  0.0102  0.2085 -0.1349
17736W        W33920   1.475  15.272  15.024 -0.0506 -0.1467 -0.1031
17737W        W33921  10.253   6.707   5.112  0.0800  0.1949 -0.2507
17738W        W33922   5.156   9.866  11.070  0.1082  0.1135 -0.1078
17739W        W33923  13.872   1.056   3.522  0.2469  0.2838  0.0071
17740W        W33924   7.411  10.294   4.729 -0.0678  0.0765 -0.1143
17741W        W33925   7.929  15.191   3.042 -0.0707  0.1221  0.1137
17742W        W33926  18.240   7.228  10.627  0.1315 -0.2546  0.0468
17743W        W33927   9.468  15.156   1.476 -0.0939  0.1289  0.1070
17744W        W33928  12.334   1.867  13.537  0.0037  0.0818  0.0496
17745W        W33929   6.281  16.143   3.412 -0.0626  0.2809 -0.0832
17746W        W33930  17.572   3.223  15.371  0.1470 -0.0564 -0.1395
17747W        W33931   1.080  14.346  12.787  0.4345 -0.0877  0.1104
17748W        W33932   7.606  15.431  15.093  0.1073 -0.0455  0.1169
17749W        W33933   8.214   9.303   1.946 -0.0955  0.1412  0.0278
17750W        W33934   5.578   7.797   0.020 -0.1140  0.2594 -0.1727
17751W        W33935   6.934   5.035  11.082  0.1927 -0.1243 -0.1934
17752W        W33936   8.448   6.166  13.752  0.0050 -0.0080  0.2980
17753W        W33937   2.618   4.022  10.532 -0.1253  0.2535  0.2298
17754W        W33938   7.677  14.222  13.095  0.0044 -0.2656 -0.0107
17755W        W33939   0.338  18.445   3.919 -0.3188  0.0294 -0.1149
17756W        W33940  14.581   3.300   1.086 -0.1092  0.3056  0.0226
17757W        W33941  16.381  17.287  11.771  0.1329 -0.0192 -0.0396
17758W        W33942   2.292  17.057   3.507  0.2505  0.2066 -0.0995
17759W        W33943   2.240   5.154   0.887 -0.0709  0.1092  0.4221
17760W        W33944   7.603  13.718  11.443  0.2699  0.2529 -0.0950
17761W        W33945  12.052  18.525   3.510  0.2523  0.1452  0.0514
17762W        W33946   4.235   2.344   5.337  0.2560 -0.5179  0.2214
17763W        W33947   9.493  18.741   2.979 -0.0674  0.2778 -0.0863
17764W        W33948   1.498   6.025   2.498 -0.0799  0.0940  0.4593
17765W        W33949   7.101  11.393  13.630 -0.0185 -0.1176  0.4612
17766W        W33950   1.131   7.055  10.886 -0.0139 -0.2275  0.3534
17767W        W33951  13.142   0.706   1.674  0.2672 -0.2168  0.5432
17768W        W33952   5.398   5.588  15.039 -0.1260 -0.0529 -0.2114
17769W        W33953   7.771   7.422  14.673 -0.1805  0.1444 -0.0600
17770W        W33954  14.913   2.912   5.401  0.1210 -0.1135 -0.1543
17771W        W33955  18.004  18.141  13.434 -0.1144  0.2601 -0.1059
17772W        W33956  16.449  17.149  12.278 -0.0015  0.0391 -0.0105
17773W        W33957  13.972   1.065  11.663 -0.0078  0.1631  0.0912
17774W        W33958   2.200   3.613   1.578  0.0005  0.2498 -0.0683
17775W        W33959  15.913  10.368   0.102 -0.2727 -0.0069  0.1869
17776W        W33960   8.312   7.515   4.682  0.0116 -0.0098 -0.1372
17777W        W33961   6.575  13.303   1.842 -0.1452  0.0152 -0.1768
17778W        W33962   5.520  16.246   0.664 -0.0424 -0.0646 -0.0591
17779W        W33963  13.222  10.740  12.003 -0.1214  0.0460  0.1308
17780W        W33964  16.610   2.730   2.355 -0.2138  0.3108  0.1483
17781W        W33965  18.344  12.673   3.261  0.1287 -0.0595  0.0052
17782W        W33966   3.313   3.682   2.914 -0.0581 -0.1858 -0.2012
17783W        W33967  17.153   6.134  14.738 -0.3674  0.1739 -0.2299
17784W        W33968   2.089   3.141   2.954 -0.5178 -0.0192  0.3361
17785W        W33969   7.391  13.967   1.095  0.4383  0.5566  0.2346
17786W        W33970   9.519   8.849   0.680  0.4140 -0.3090  0.0822
17787W        W33971   6.236   8.805   3.768 -0.1773  0.1314  0.0773
17788W        W33972   3.493   1.897  10.725  0.0070 -0.1504  0.0487
17789W        W33973   5.984   7.918  11.430 -0.0570 -0.1330  0.0399
17790W        W33974  11.094  17.596   3.678  0.1283 -0.2692  0.0575
17791W        W33975  10.727   1.561  12.022  0.2010 -0.2403 -0.1058
17792W        W33976   1.230  13.798   2.643  0.1912  0.1895  0.4331
17793W        W33977  12.637   4.280   3.931  0.0559 -0.1752  0.1566
17794W        W33978   4.699   1.826   1.471 -0.5004  0.0780 -0.0794
17795W        W33979   2.428   8.549   3.983 -0.0952 -0.2199 -0.3085
17796W        W33980   5.558  17.395   1.956  0.1293  0.0881 -0.2297
17797W        W33981  10.793  17.996   4.787  0.0350 -0.0605 -0.3401
17798W        W33982   2.513   1.850  11.891  0.2054  0.2047 -0.0709
17799W        W33983  18.030   4.276   4.662 -0.5636 -0.3894  0.0337
17800W        W33984  15.565  15.764   2.890 -0.0351 -0.1115 -0.2093
17801W        W33985  17.883  13.295   2.874 -0.0881 -0.1548 -0.0137
17802W        W33986  15.106   4.389  15.220 -0.2160 -0.0237 -0.3194
17803W        W33987  17.958   8.037   4.568 -0.3499 -0.3451 -0.3166
17804W        W33988  13.678   5.205  12.194  0.0881 -0.2158  0.0626
17805W        W33989  10.075   5.113   1.867  0.0311  0.0710 -0.1362
17806W        W33990   9.063  13.213   5.536 -0.0368 -0.0888 -0.0289
17807W        W33991   7.029   1.472   4.749  0.0421 -0.1736  0.2263
17808W        W33992   6.642  13.000  13.608  0.2191  0.1126  0.2576
17809W        W33993  15.473   7.949   1.091  0.1155  0.1460 -0.1431
17810W        W33994   4.222   5.136  11.636 -0.0070 -0.0519 -0.2498
17811W        W33995  11.854  15.955   4.380 -0.0882 -0.4750 -0.0920
17812W        W33996  18.164   1.096   1.520  0.0178 -0.1772  0.1098
17813W        W33997  10.568  16.905   1.254  0.2300 -0.0472  0.3415
17814W        W33998   0.435   9.726   4.055  0.3060  0.5227 -0.1057
17815W        W33999   5.321  10.116  12.011  0.3721  0.0829  0.2614
17816W        W34000  17.913   1.975  12.142 -0.4938  0.1907 -0.3648
17817W        W34001   7.830   0.956  15.051 -0.1843 -0.0317 -0.0023
17818W        W34002   1.792  10.108   3.364  0.0299  0.1301 -0.0823
17819W        W34003   4.535   4.940   1.908  0.0358  0.1150 -0.0547
17820W        W34004  10.744  17.199   5.546  0.1434  0.0939  0.2442
17821W        W34005  17.220  15.237   0.630  0.3473 -0.2231  0.3097
17822W        W34006  12.172  15.727  14.500  0.0486 -0.2334 -0.0368
17823W        W34007   7.588   9.091   3.803 -0.1397  0.0158  0.1926
17824W        W34008   1.626  18.617   2.169 -0.0742  0.2206  0.2219
17825W        W34009  17.889   9.487   3.963  0.0582  0.0421  0.0821
17826W        W34010  11.346  16.402  10.995  0.0622 -0.1775  0.2532
17827W        W34011   3.516  13.936  13.434  0.1829  0.0435  0.3199
17828W        W34012   4.840   9.709   3.121 -0.0181 -0.2123 -0.3500
17829W        W34013  18.772   8.009  11.335  0.3877 -0.1950 -0.3102
17830W        W34014  11.896   4.528   1.717 -0.0490  0.2101  0.3759
17831W        W34015   4.787  17.754  11.962  0.0103  0.0898  0.2096
17832W        W34016   0.093   2.629   2.308 -0.0472 -0.2819 -0.0015
17833W        W34017   0.766   3.491  14.191  0.0069 -0.2936 -0.0707
17834W        W34018   4.778  16.228   1.381 -0.0107  0.2779  0.2001
17835W        W34019   6.182  11.443   3.544  0.1131  0.3060  0.2512
17836W        W34020   0.766  17.647   2.347  0.1568  0.2905  0.1765
17837W        W34021   7.081   7.648  13.610  0.0421 -0.1625 -0.0174
17838W        W34022  18.209   7.183  12.054  0.1148  0.0734 -0.1568
17839W        W34023  18.218  11.162  11.079  0.2005 -0.2827 -0.1365
17840W        W34024  12.794   6.653  15.432 -0.1101 -0.1536 -0.1207
17841W        W34025  14.049  11.391  10.967  0.4300 -0.1290  0.0962
17842W        W34026  17.553   5.282   1.711  0.0225  0.4310 -0.2402
17843W        W34027  12.636   7.661   3.108 -0.2440  0.0141 -0.1176
17844W        W34028  13.433   4.682   0.167 -0.4193  0.0700 -0.0435
17845W        W34029  13.193   2.081  13.166  0.2529 -0.3654  0.2766
17846W        W34030  10.171   1.180   1.661  0.2487  0.2354 -0.0223
17847W        W34031  13.417   1.488   2.748  0.0688 -0.1718 -0.0979
17848W        W34032  15.010  11.492  10.877  0.1584  0.4997  0.1475
17849W        W34033  13.822  18.014  10.909  0.2920 -0.0069 -0.1819
17850W        W34034   9.721   9.889   2.033  0.2653  0.2182 -0.1497
17851W        W34035   8.617   7.841   1.785  0.0060 -0.1813 -0.1742
17852W        W34036   5.716  17.050   2.294  0.0285  0.1201  0.1042
17853W        W34037  15.399   1.473  13.529 -0.0743  0.0082 -0.1594
17854W        W34038  13.861  16.603   3.387  0.0027  0.1258 -0.0756
17855W        W34039  15.590  18.387   4.641  0.1908  0.2807 -0.0295
17856W        W34040  13.477  13.526  15.455 -0.3223 -0.1555  0.3410
17857W        W34041  10.060   5.563  12.906  0.2385  0.1915 -0.0414
17858W        W34042   7.762   0.712   2.446 -0.1594 -0.3146  0.3282
17859W        W34043   4.716  12.190   5.541  0.0553 -0.3042  0.1331
17860W        W34044   4.742   3.579   1.508  0.3749 -0.1021 -0.0213
17861W        W34045  17.011  18.156  15.427 -0.0001 -0.0662  0.0750
17862W        W34046  18.842   9.712   1.996 -0.2856 -0.5078  0.1391
17863W        W34047   9.304   3.336   0.659 -0.1309 -0.2123 -0.2648
17864W        W34048  18.755   0.754  12.589  0.0220 -0.0449 -0.1701
17865W        W34049  17.486  16.019  15.135 -0.0886  0.2754 -0.1249
17866W        W34050   8.250  17.321   4.089 -0.1530  0.1524  0.0679
17867W        W34051  14.854   2.955   1.957  0.2884  0.2647  0.1579
17868W        W34052   0.672   8.931  14.965  0.1739 -0.3475  0.1009
17869W        W34053  11.005   0.243   3.899 -0.2178  0.0350  0.0212
17870W        W34054   5.107  15.603   3.401 -0.3375  0.1037 -0.0125
17871W        W34055  12.188   8.835   4.020 -0.2512 -0.1409  0.2972
17872W        W34056   2.289  16.139   3.002 -0.0778  0.1497  0.3439
17873W        W34057  17.577   2.718  10.840  0.1025 -0.3009 -0.1014
17874W        W34058  14.731   1.796   2.085  0.2979 -0.0872  0.0197
17875W        W34059  11.589   4.119   1.626  0.1069 -0.3561  0.2769
17876W        W34060   4.609  12.645   2.006 -0.0093 -0.2670 -0.2523
17877W        W34061   8.562  11.461  10.141 -0.0828 -0.0333 -0.1141
17878W        W34062  13.806  12.527  13.911 -0.0484 -0.0513 -0.0443
17879W        W34063  18.189  15.996  12.973  0.1167  0.2172 -0.2991
17880W        W34064   9.798   2.187   4.153  0.1307 -0.0032  0.2843
17881W        W34065  11.984  11.974   1.815  0.0892 -0.0804  0.0380
17882W        W34066   9.260   4.978  12.093  0.0407  0.3815 -0.3348
17883W        W34067   1.936   8.558  11.082 -0.4880  0.1593 -0.1106
17884W        W34068  15.660  18.205  12.624  0.1253 -0.0823 -0.0672
17885W        W34069   5.377  13.937  13.581 -0.1388 -0.0373  0.2265
17886W        W34070   7.990  17.579   1.906 -0.2709 -0.3969 -0.4542
17887W        W34071  16.251  10.238   1.004 -0.0274 -0.1377 -0.3496
17888W        W34072   5.350  13.309   4.199  0.0928 -0.1901  0.1021
17889W        W34073  12.557  15.252  12.270 -0.0402 -0.0098  0.1456
17890W        W34074  17.806  12.333  13.323  0.0528 -0.1373  0.0284
17891W        W34075  17.546  12.978   4.401  0.2484 -0.1592 -0.2268
17892W        W34076  15.206  16.662   2.055 -0.0367  0.2016  0.0661
17893W        W34077  17.919   1.528   0.317  0.0969 -0.0046  0.0893
17894W        W34078  12.114  11.014   2.592  0.1352 -0.1217 -0.1601
17895W        W34079   9.844   0.283  14.763 -0.1488  0.3411  0.0206
17896W        W34080  16.564  11.161  13.793  0.0770  0.0711  0.1138
17897W        W34081  12.174  13.234  15.511  0.1179 -0.2258  0.3214
17898W        W34082   7.162  10.091  14.158  0.1152 -0.0037  0.1517
17899W        W34083   0.653  17.127  10.580  0.4787 -0.1417  0.3105
17900W        W34084   2.333   6.831   3.739  0.1911  0.0399 -0.1465
17901W        W34085   1.782  10.577  14.225  0.0759  0.3554  0.0789
17902W        W34086  11.703  14.993  12.207 -0.3289  0.0921  0.1098
17903W        W34087   9.567  17.025   4.600 -0.2999  0.2075  0.1573
17904W        W34088   0.097   0.144  12.745 -0.2149 -0.2302 -0.0094
17905W        W34089  12.478  18.769  12.446 -0.7992  0.0234 -0.2569
17906W        W34090   8.185   7.113  14.840  0.2643 -0.1298  0.3287
17907W        W34091  18.311   9.045   5.123 -0.0594 -0.0990  0.2899
17908W        W34092  18.099  15.354   3.461  0.1388  0.0043 -0.1208
17909W        W34093  11.893   9.257  14.384  0.1718  0.0485 -0.0273
17910W        W34094   8.561   7.776  11.519  0.0988  0.2845  0.1329
17911W        W34095  11.140  16.209   0.953  0.4459 -0.1570 -0.3222
17912W        W34096  14.952   1.405   5.308 -0.2105  0.2077  0.2419
17913W        W34097  17.129  13.360  12.611 -0.0369  0.1737 -0.1828
17914W        W34098  16.681  15.867   1.903  0.1444  0.0648 -0.3467
17915W        W34099  16.302   0.246  14.985  0.1888 -0.2473  0.2714
17916W        W34100  16.566   5.288   1.294 -0.1298 -0.2766  0.1436
17917W        W34101   1.418   6.389  12.715  0.0642 -0.1235  0.1885
17918W        W34102  16.415  12.005  14.696  0.0436 -0.1493  0.0027
17919W        W34103  13.038   8.962   0.737  0.1822 -0.0412  0.1392
17920W        W34104  17.214  16.848   5.112 -0.2127  0.0161  0.1150
17921W        W34105  12.676  14.520   2.786  0.0771  0.2536  0.0923
17922W        W34106  12.351   1.890  14.525 -0.1310 -0.3310 -0.1101
17923W        W34107  12.772  17.480   3.166  0.1514  0.0706 -0.1208
17924W        W34108   5.472  17.194  13.078  0.0908  0.2180 -0.3319
17925W        W34109   0.972  16.755  13.407 -0.0758  0.0326  0.1269
17926W        W34110   0.578   9.304  11.406  0.2598  0.1279  0.1370
17927W        W34111  15.964  10.625   2.756  0.1784  0.2272  0.3592
17928W        W34112  18.409   8.862   3.029  0.1502 -0.0005  0.1195
17929W        W34113  11.941  15.196  15.150 -0.0912 -0.0538  0.2004
17930W        W34114  10.917  15.737   4.780 -0.0760 -0.1251 -0.0538
17931W        W34115   1.844  15.641   4.256  0.0470 -0.3760 -0.4539
17932W        W34116  18.732  18.435  15.049 -0.3355 -0.0638 -0.0743
17933W        W34117   9.386  12.193   9.841  0.1523  0.2019 -0.1733
17934W        W34118   7.045  15.231  13.553  0.2329 -0.1242 -0.0671
17935W        W34119   7.732  17.461   1.492 -0.2455 -0.0071 -0.2567
17936W        W34120   2.441  13.678   1.080 -0.1050 -0.3381  0.1223
17937W        W34121  14.630  17.030  12.108 -0.4729 -0.0092  0.2287
17938W        W34122  17.637   3.628  14.317  0.3162 -0.1022  0.1107
17939W        W34123  14.414   6.606  12.455 -0.0361 -0.1960 -0.0913
17940W        W34124   0.298   9.912  13.398  0.1062  0.0665  0.0535
17941W        W34125   8.949   4.439  14.731 -0.1329  0.0302 -0.1637
17942W        W34126   8.186   4.817   3.237  0.0527 -0.0673 -0.0683
17943W        W34127  12.278   6.146   2.523 -0.0887 -0.0694  0.0912
17944W        W34128  11.998  12.010  13.626 -0.0128 -0.1708  0.1467
17945W        W34129   5.651  14.460  11.711  0.3109 -0.0944 -0.5274
17946W        W34130   9.363   6.002   4.373 -0.4837 -0.3360 -0.1167
17947W        W34131   2.125   7.252  11.518 -0.0798 -0.1425 -0.1463
17948W        W34132   8.061   5.805  12.980 -0.0809 -0.1281  0.2537
17949W        W34133   4.314  18.001   4.660  0.0137 -0.0768  0.3584
17950W        W34134  13.896   7.373  13.383  0.2370  0.0962  0.1587
17951W        W34135  14.665   8.048  11.694 -0.0814  0.2761 -0.1992
17952W        W34136   5.902  15.855  14.768 -0.3391 -0.2488  0.1025
17953W        W34137  17.837  18.345   2.495  0.1946 -0.1583 -0.0651
17954W        W34138   9.106   8.481  13.676 -0.0054  0.2860 -0.4169
17955W        W34139  17.035   4.510   0.144 -0.2045  0.4444 -0.0331
17956W        W34140   5.706  13.063   5.049 -0.2379  0.0326  0.0009
17957W        W34141   7.260   8.781  13.057  0.0341 -0.0973 -0.0300
17958W        W34142   5.203  12.839  13.048  0.1547  0.2968  0.0244
17959W        W34143  10.680  10.115  11.571  0.0755  0.0856  0.0276
17960W        W34144  16.020  17.304  13.543 -0.1817 -0.0280  0.0618
17961W        W34145   4.827   5.106   0.426 -0.0136 -0.0899 -0.1648
17962W        W34146  18.317  10.528  10.317 -0.3425  0.0736  0.1285
17963W        W34147   1.377   0.949   3.936  0.2482 -0.2012 -0.1005
17964W        W34148   4.025   4.159  10.755  0.2013 -0.0313  0.1102
17965W        W34149   1.156  12.336  12.261 -0.1373 -0.1259 -0.0618
17966W        W34150   4.659   3.977  13.254  0.1933 -0.1063 -0.0440
17967W        W34151  16.088   8.987  12.955  0.3200 -0.3502 -0.0981
17968W        W34152   5.267   3.296  13.376  0.0158  0.1828 -0.1302
17969W        W34153   5.239   6.670  11.918 -0.0719  0.3526  0.1401
17970W        W34154   6.028   7.862  14.678  0.1408  0.3069  0.0230
17971W        W34155   3.148   2.137  11.541 -0.2742  0.0965  0.0102
17972W        W34156  15.712   7.062   3.184 -0.0054 -0.2592  0.1082
17973W        W34157  16.709   9.096   2.384  0.0758 -0.2867  0.0772
17974W        W34158   8.933   0.614   2.025  0.2691  0.0788  0.0548
17975W        W34159   0.144   1.116  11.742 -0.1317  0.0550  0.2774
17976W        W34160  11.253  14.023  12.541  0.1218 -0.2535 -0.0265
17977W        W34161  11.973  15.286  13.492 -0.1702  0.1691 -0.2480
17978W        W34162  11.799  13.948  13.322  0.2866  0.1873  0.1360
17979W        W34163  17.295   4.785   1.754 -0.4680 -0.1707 -0.3071
17980W        W34164  13.178   6.638  10.370 -0.2982  0.0539 -0.1003
17981W        W34165  15.527  17.723  14.362 -0.0482  0.1901 -0.0960
17982W        W34166   7.678   4.977  11.051  0.1099  0.0744 -0.1084
17983W        W34167  10.462   5.625   0.901 -0.0037  0.1010  0.5320
17984W        W34168   7.045  12.052  14.277 -0.2100  0.1621  0.0810
17985W        W34169   2.144   6.896  13.789  0.4178  0.2729  0.1452
17986W        W34170  17.536   5.032   1.273 -0.0974 -0.0669  0.0116
17987W        W34171  16.351  11.385   0.126 -0.0114  0.0351  0.1476
17988W        W34172   1.809  11.406  14.457  0.1699 -0.2852  0.0710
17989W        W34173   2.880  16.910  12.102  0.1110  0.2017 -0.1536
17990W        W34174   9.240  15.730   1.566 -0.0826  0.0367 -0.2831
17991W        W34175   7.367   0.692  14.279  0.0368 -0.2638 -0.1300
17992W        W34176  11.030  13.467   2.801  0.1769 -0.1660  0.1802
17993W        W34177  17.262  15.647  12.960 -0.2774 -0.3547  0.1026
17994W        W34178   8.892  13.479   2.265  0.2408  0.0491 -0.0230
17995W        W34179   3.765  10.998   1.946  0.3314  0.4004 -0.0638
17996W        W34180  17.090   2.037  10.378 -0.0622  0.0151 -0.0960
17997W        W34181  15.816  13.509  13.762 -0.1846  0.2102 -0.3578
17998W        W34182   2.937   8.638   1.355 -0.0231  0.0291  0.2279
17999W        W34183  16.425  11.407  11.228 -0.0229  0.1902 -0.2053
18000W        W34184   0.171  11.537   3.576 -0.6303 -0.2242 -0.1064
18001W        W34185   7.812  17.826   2.878  0.1639 -0.0450  0.1400
18002W        W34186   8.643   5.838  10.192 -0.3007  0.1213  0.2096
18003W        W34187   7.001   7.456  10.835 -0.1888  0.2416  0.0778
18004W        W34188  17.854   8.357  11.256 -0.2638 -0.2880 -0.2171
18005W        W34189  16.334   5.479  12.984 -0.2623 -0.2419 -0.0307
18006W        W34190   0.445  10.630  12.027 -0.1326 -0.0745  0.2404
18007W        W34191   9.279   4.877  13.825  0.3827 -0.0229  0.2187
18008W        W34192   3.285   3.017   0.657  0.0708  0.0035 -0.1907
18009W        W34193   7.707  15.164   1.835  0.2562  0.3456  0.1593
18010W        W34194   2.688   3.507   4.802  0.0304  0.0467 -0.0910
18011W        W34195   1.960   0.973   2.891 -0.0394  0.4173 -0.1274
18012W        W34196  10.147   5.902  10.917  0.0188  0.1378  0.1876
18013W        W34197  12.291   1.700  15.074  0.0598  0.3557 -0.1518
18014W        W34198  16.479  14.421   0.330  0.0528  0.0634 -0.0516
18015W        W34199  13.706   4.199  10.970 -0.0658  0.4970  0.2018
18016W        W34200   9.047  12.569  15.430 -0.1175 -0.0487 -0.0182
18017W        W34201  13.767   4.491   5.370  0.1904  0.0144  0.2477
18018W        W34202   7.249   2.517   3.461  0.0434  0.1285 -0.1150
18019W        W34203  16.754   4.696  13.857 -0.2027 -0.0394 -0.1465
18020W        W34204  14.786   4.990   4.703 -0.2310  0.3076  0.4651
18021W        W34205  12.361   8.874  12.941  0.0521 -0.0151 -0.0252
18022W        W34206  16.688   7.672  11.605  0.2850 -0.1689 -0.3611
18023W        W34207  13.556  18.413   2.638 -0.1276  0.2459  0.2398
18024W        W34208   9.888  15.600  13.660  0.1340  0.1215 -0.1155
18025W        W34209  11.083   4.776  13.429 -0.4180 -0.2024  0.1084
18026W        W34210  13.985  15.700   3.874  0.1122  0.1865  0.0642
18027W        W34211   6.536  17.395  12.186  0.1646  0.0910  0.2772
18028W        W34212   1.049  11.324   5.015 -0.1075  0.2556  0.0149
18029W        W34213   9.472  16.702  14.596 -0.0909  0.1992  0.1855
18030W        W34214  10.431   9.947  12.288  0.0248 -0.0965  0.2082
18031W        W34215  17.056  16.534   4.696 -0.0737  0.1080  0.0684
18032W        W34216  12.050   8.495   3.632 -0.3227  0.0310  0.1919
18033W        W34217   7.405  12.712  12.424 -0.0740  0.1741 -0.0574
18034W        W34218  10.461   5.174  13.715  0.0243 -0.0507  0.1018
18035W        W34219  14.295   0.565   5.862 -0.1247  0.3252  0.0222
18036W        W34220  18.478   5.941   1.353 -0.3364  0.2069 -0.0461
18037W        W34221  18.328   0.013   2.523  0.1135  0.3302 -0.1753
18038W        W34222   6.077   7.885  11.893 -0.1138  0.1681  0.1456
18039W        W34223   6.871  11.022   1.296 -0.0498 -0.2178  0.0314
18040W        W34224   9.390   7.266   0.351 -0.0098 -0.0017  0.1839
18041W        W34225  13.745   3.778  15.023 -0.1034  0.1796  0.0654
18042W        W34226  12.768   5.220   0.424 -0.0146  0.0247 -0.1736
18043W        W34227  13.772  13.283  11.702 -0.0242  0.3396  0.2576
18044W        W34228  11.149  13.536  13.171  0.2445 -0.0608 -0.0184
18045W        W34229   4.849   2.958   2.788  0.0263 -0.0617 -0.3306
18046W        W34230  17.782  15.029   3.002  0.2588 -0.1866 -0.0823
18047W        W34231  18.267   6.750  14.687  0.0537 -0.0819  0.0847
18048W        W34232  11.758  10.047  15.378 -0.0616  0.3705 -0.1525
18049W        W34233  17.799   7.544  14.786 -0.1077 -0.1049  0.2357
18050W        W34234   4.150  13.257   4.388 -0.3571 -0.3953 -0.0413
18051W        W34235  12.160   8.844   0.285 -0.0359 -0.0529  0.0013
18052W        W34236  17.385   5.454  14.146  0.1528 -0.1215 -0.2715
18053W        W34237   2.842  11.366  13.318 -0.2329 -0.1570  0.0204
18054W        W34238  14.334   9.620   4.634 -0.0524 -0.0787 -0.0900
18055W        W34239   8.469   9.194  13.238  0.0840 -0.1831 -0.0515
18056W        W34240  10.884   8.776  12.022  0.2341  0.0928  0.2833
18057W        W34241   8.584   6.548   9.736 -0.0754 -0.0684 -0.1312
18058W        W34242   2.101   4.538   3.375 -0.0741 -0.3876 -0.1025
18059W        W34243   9.719   7.985  11.176  0.3408 -0.0033 -0.1854
18060W        W34244  12.006   3.023   4.444 -0.0083 -0.1231 -0.2093
18061W        W34245  15.342  14.147   1.242 -0.5015  0.1745 -0.2760
18062W        W34246  15.917  15.574   5.539  0.0176 -0.1309 -0.1270
18063W        W34247   9.181  14.892   5.150  0.0381  0.0220 -0.2946
18064W        W34248   9.772   5.912   0.377  0.3059  0.1258 -0.0113
18065W        W34249   1.892   1.696   3.332 -0.0519 -0.1650  0.2512
18066W        W34250   8.258  14.354   1.777 -0.0153 -0.2630 -0.0464
18067W        W34251  17.665   2.911  10.356 -0.0489 -0.0858 -0.0579
18068W        W34252  14.713   7.638   1.403 -0.0889  0.1021  0.6105
18069W        W34253   6.926  15.629  14.381 -0.1796  0.1361 -0.2561
18070W        W34254   3.246  13.493  10.716  0.0828  0.1614 -0.1371
18071W        W34255  18.370  13.546  13.019  0.2234 -0.1785 -0.4034
18072W        W34256   9.412   7.069   5.837  0.0635 -0.0676 -0.1478
18073W        W34257   3.661  10.438   3.126  0.0936 -0.1348 -0.2340
18074W        W34258  12.087   5.267   2.769  0.0876 -0.3060 -0.0727
18075W        W34259   3.942   2.497   0.260 -0.3228 -0.0561  0.0145
18076W        W34260   0.376   6.823   0.879  0.2820  0.2401 -0.1581
18077W        W34261  16.741   1.571   0.150  0.0004 -0.0983  0.3681
18078W        W34262   1.034   8.512   5.211 -0.2672 -0.1650  0.1798
18079W        W34263  17.239   6.358  14.183  0.0849  0.0700  0.0779
18080W        W34264   0.218   5.858   2.167  0.1486  0.1630  0.4104
18081W        W34265  11.690  13.502  15.379 -0.0074  0.0149  0.1634
18082W        W34266  13.993  16.477   1.284  0.2146 -0.3438 -0.2077
18083W        W34267  10.926   6.487  11.837 -0.1101  0.2416  0.2190
18084W        W34268  16.551   5.052   2.251  0.3623  0.0324 -0.3941
18085W        W34269  17.434   0.518   3.992 -0.2432 -0.1793  0.3579
18086W        W34270  14.705  11.600  13.200  0.2341  0.0776 -0.3753
18087W        W34271   1.527   9.663  11.611  0.0994  0.2910 -0.2068
18088W        W34272   0.341  16.738   5.575 -0.0708  0.3594 -0.2614
18089W        W34273   0.055   7.206  11.461  0.0329  0.0803  0.1933
18090W        W34274  11.759   8.887   4.873  0.0875  0.1082 -0.0559
18091W        W34275   7.458  13.407   1.200 -0.2924  0.1797  0.2338
18092W        W34276   0.382  16.641   3.817 -0.5014 -0.0767 -0.1549
18093W        W34277  18.474   4.234   4.413  0.0345  0.1011 -0.1551
18094W        W34278   8.881   5.779   9.390  0.2062 -0.2485 -0.0867
18095W        W34279  13.307   5.999  13.368  0.4668 -0.0775 -0.2403
18096W        W34280  16.398   1.179   4.555 -0.2565 -0.1226  0.0155
18097W        W34281   3.576  10.970   4.903 -0.1973 -0.4831  0.1493
18098W        W34282   4.292   1.316  15.193  0.4459  0.0383  0.0649
18099W        W34283   7.091   8.937   0.690  0.0950 -0.0209 -0.0160
18100W        W34284  11.373  12.498  13.790 -0.0355 -0.1594 -0.1117
18101W        W34285   4.235   7.769   5.103 -0.3990  0.1020  0.1640
18102W        W34286   7.581  16.424   1.572  0.2220 -0.1823 -0.4015
18103W        W34287  15.552  17.131   3.771  0.0506 -0.0207 -0.1185
18104W        W34288  16.938  12.268  11.154  0.0329 -0.0312 -0.2329
18105W        W34289  16.629   7.247   0.489  0.1358 -0.2070 -0.0093
18106W        W34290   6.231   4.480  14.822  0.1711 -0.5994 -0.1147
18107W        W34291  11.738  14.779   5.187 -0.1497  0.2285 -0.0894
18108W        W34292   7.671  13.319  11.147 -0.2112  0.0094  0.4650
18109W        W34293  18.543   8.657  14.644 -0.1049  0.1153  0.0498
18110W        W34294  16.605  18.700   1.142  0.2260  0.2218 -0.3308
18111W        W34295   7.876  11.319   1.110  0.2207 -0.2105 -0.3787
18112W        W34296  13.955   0.596  11.360  0.0832  0.0876 -0.1369
18113W        W34297   4.126   8.281   0.090 -0.0767  0.1619  0.2324
18114W        W34298  14.602   7.546  13.155  0.0762 -0.0686 -0.1068
18115W        W34299   7.492  14.883  13.955 -0.0556 -0.0850  0.0263
18116W        W34300   0.037  17.332   0.124 -0.0319 -0.0420 -0.3453
18117W        W34301   1.767   6.911  15.289 -0.2947  0.1173 -0.0063
18118W        W34302  15.193   3.855  13.064 -0.2144  0.3256 -0.1828
18119W        W34303  13.224   9.282  13.138  0.1144 -0.3603  0.0258
18120W        W34304   9.918  10.189  15.143  0.0225  0.0837  0.0292
18121W        W34305   3.491  12.687   2.734  0.3898  0.0746  0.0217
18122W        W34306  10.541  14.420  12.854 -0.2167  0.0557  0.1826
18123W        W34307  12.741   4.388  14.167 -0.0402 -0.0409  0.3360
18124W        W34308   2.613  14.565   1.279 -0.1769  0.0451 -0.1136
18125W        W34309  13.901   7.962   4.912 -0.2356  0.1093  0.0787
18126W        W34310  18.589  18.243  13.716  0.0349  0.0667  0.0335
18127W        W34311  13.049  15.034  12.222 -0.0215 -0.0156  0.1571
18128W        W34312  14.951   4.660  13.346 -0.1735 -0.0428  0.0913
18129W        W34313   0.762   0.577  11.687 -0.0465  0.1823 -0.1863
18130W        W34314   4.257   0.074   0.134  0.1906 -0.1686  0.0752
18131W        W34315   8.842   2.217  11.217 -0.2328 -0.2090  0.4228
18132W        W34316   3.487   4.812   4.876 -0.0076 -0.3526 -0.0843
18133W        W34317   9.202   8.913  12.788 -0.2563 -0.1415 -0.0018
18134W        W34318   2.792   9.773  13.957 -0.0480 -0.2164 -0.0260
18135W        W34319  15.471  11.491   4.280  0.2209 -0.2728 -0.1914
18136W        W34320   1.283  13.440   3.057  0.0781  0.0297  0.2442
18137W        W34321   3.914   9.426  11.957 -0.0173  0.2288  0.0814
18138W        W34322  15.960  15.320   0.443  0.3421  0.0433 -0.0427
18139W        W34323   7.038   3.088   4.782  0.3185 -0.1112  0.0255
18140W        W34324  16.101  17.258  12.623 -0.0312  0.0620 -0.0731
18141W        W34325   9.686   7.715   0.132 -0.1525 -0.0391 -0.1875
18142W        W34326   5.386   9.628   2.274 -0.0849 -0.1762  0.1894
18143W        W34327   3.722  10.528  14.725  0.0168  0.0890 -0.1137
18144W        W34328   7.700  15.512  11.229  0.2837 -0.3604  0.2716
18145W        W34329  10.044   4.195  14.772 -0.0249 -0.2810 -0.1115
18146W        W34330   2.853  15.716   4.634  0.0199 -0.1226 -0.0536
18147W        W34331  15.187  12.870   3.212  0.0074 -0.0095  0.3384
18148W        W34332   4.551  13.802   4.975 -0.2127  0.2149 -0.4039
18149W        W34333  16.651  10.692  14.916 -0.0696  0.2899  0.1166
18150W        W34334   6.783  11.721   4.532  0.0740  0.0391  0.0110
18151W        W34335  11.208  14.396  12.124 -0.2550 -0.0538  0.3793
18152W        W34336   0.165   0.095  14.313  0.0315 -0.0403  0.1055
18153W        W34337   2.399   4.871  11.466 -0.0117  0.0299  0.0344
18154W        W34338  12.067  17.964   1.055  0.0702  0.0635  0.0101
18155W        W34339  17.612   2.646   2.330  0.2398  0.2357 -0.0438
18156W        W34340  17.381  13.464   2.995 -0.0670  0.2089 -0.0812
18157W        W34341  11.722  12.517   2.051 -0.1437 -0.3573 -0.0461
18158W        W34342   3.825  12.437  15.468 -0.0716  0.1122  0.2819
18159W        W34343   5.811   2.139   5.067 -0.0305  0.0740 -0.0324
18160W        W34344  15.752  14.112  14.487 -0.0393  0.2625 -0.0285
18161W        W34345   7.845  16.659  13.825 -0.1995  0.1288  0.2671
18162W        W34346  16.011   8.203  14.902 -0.0827  0.2170  0.0512
18163W        W34347  11.984   4.738  14.356  0.1440 -0.2698  0.0730
18164W        W34348   1.974  10.711  11.774 -0.0461  0.3168 -0.1579
18165W        W34349   7.228   2.933  14.799 -0.1754 -0.0690  0.2578
18166W        W34350   3.692  11.806   3.261 -0.0609 -0.0436 -0.2132
18167W        W34351  13.365  12.334   0.244 -0.1649  0.1619  0.2718
18168W        W34352   7.373  18.143  12.444 -0.1735 -0.1386 -0.1012
18169W        W34353   5.454   7.236   3.989  0.2833 -0.2472 -0.0377
18170W        W34354   0.704  15.882   4.459 -0.3688  0.1816  0.2094
18171W        W34355   7.837   4.857  12.043  0.1050 -0.2756  0.0054
18172W        W34356  10.673  15.654   3.826 -0.0439 -0.1754  0.2931
18173W        W34357  14.360   0.683  13.445 -0.1207  0.0819  0.1436
18174W        W34358   1.348   9.116  13.012  0.2185  0.3715  0.2672
18175W        W34359  14.944   4.985   4.246 -0.2130  0.1754 -0.0732
18176W        W34360  10.238  18.765  14.152  0.0755  0.2687 -0.0206
18177W        W34361  14.109  10.470   2.391 -0.2191  0.1845 -0.0733
18178W        W34362  10.966   1.295   2.716  0.1228  0.1688  0.0339
18179W        W34363  18.839  12.051  12.128  0.2729  0.2648 -0.0953
18180W        W34364  15.719   1.953  11.829  0.0609  0.1673  0.0222
18181W        W34365  10.888  11.737  10.899 -0.1207 -0.0551 -0.2274
18182W        W34366   2.858  15.886   1.342  0.1379 -0.1929 -0.1356
18183W        W34367   9.421  11.156   5.702  0.1733 -0.2328  0.0455
18184W        W34368   7.093   2.586   4.636  0.3396  0.0675 -0.1243
18185W        W34369   4.272   5.552  11.371 -0.1045  0.3594  0.1223
18186W        W34370  15.561  10.199   1.441 -0.0838 -0.1743  0.2579
18187W        W34371  13.543   8.746  10.921 -0.1253 -0.1947 -0.1617
18188W        W34372  12.108   6.940  12.401  0.0841 -0.2879 -0.5511
18189W        W34373  15.963   6.637   0.881 -0.0144 -0.0146  0.0242
18190W        W34374  14.223   2.963  10.985 -0.1369 -0.0688  0.1925
18191W        W34375  12.289   2.629   4.432 -0.3771  0.0176  0.1044
18192W        W34376   5.112   5.915   1.896  0.2614 -0.0872  0.1574
18193W        W34377  17.206   3.859  12.565 -0.0652  0.0123  0.1759
18194W        W34378   9.574  17.053   1.498 -0.2905 -0.1088 -0.2236
18195W        W34379   4.620  13.728  14.691 -0.1327  0.6629 -0.3861
18196W        W34380  13.020   7.236   0.789 -0.0642 -0.0536 -0.2556
18197W        W34381  18.743   2.103  10.513 -0.0008  0.1840 -0.3931
18198W        W34382   0.480  18.152   3.519  0.2366 -0.3623  0.1787
18199W        W34383   4.068   8.518  11.135 -0.0007  0.0228 -0.4094
18200W        W34384  14.997   9.899   3.296  0.0102  0.0915  0.2390
18201W        W34385   5.219  18.814   0.301 -0.0170 -0.1254 -0.0964
18202W        W34386   7.477   7.110   0.533  0.1064 -0.2179  0.0053
18203W        W34387   2.197  12.397   5.383 -0.3462  0.0827 -0.0264
18204W        W34388  17.046   2.593   4.779 -0.1757  0.2896  0.1668
18205W        W34389  12.513   2.345  14.784  0.1939  0.3916  0.2252
18206W        W34390  14.463  13.459   0.914  0.1343 -0.0538 -0.1200
18207W        W34391  14.031  11.860  11.661 -0.0420 -0.0914 -0.1073
18208W        W34392  17.145   7.269   0.273  0.0442  0.2070  0.0432
18209W        W34393  16.634  13.314   4.257  0.1992 -0.3528  0.0980
18210W        W34394   8.486   4.423  12.631 -0.0535 -0.0218  0.2942
18211W        W34395   2.759  14.088  14.404 -0.0272 -0.0185  0.1803
18212W        W34396   7.271  12.237   0.509  0.0096 -0.2689 -0.0141
18213W        W34397   2.716  17.224  13.058  0.1008 -0.0525 -0.2049
18214W        W34398  11.770  18.788  11.161 -0.0331  0.0406  0.3444
18215W        W34399  10.890  10.406  15.528  0.0628 -0.0227  0.0194
18216W        W34400   7.408  18.721  10.302  0.0965  0.1263 -0.1389
18217W        W34401  13.088  17.798  12.483  0.4941 -0.5101  0.0450
18218W        W34402   1.174   0.957   2.100 -0.0264  0.1004  0.0600
18219W        W34403   6.129   6.475   0.857  0.3998 -0.0659 -0.1504
18220W        W34404   6.840  14.189  14.913  0.0384  0.0606  0.2309
18221W        W34405  11.662   4.950   5.411  0.1557 -0.0664 -0.2284
18222W        W34406  16.455  12.384  11.499  0.2628 -0.1976  0.3315
18223W        W34407  13.625   2.969   1.869 -0.1438 -0.0394 -0.2471
18224W        W34408   9.142   7.014   3.107 -0.0037  0.0676  0.0272
18225W        W34409  16.093   1.695   2.243  0.2140 -0.3194  0.0804
18226W        W34410  10.124   5.042  14.118 -0.5913  0.1826  0.0366
18227W        W34411   4.196   5.295   0.953 -0.1579  0.1080  0.0988
18228W        W34412  11.027  10.612   1.367 -0.3912 -0.0995 -0.0075
18229W        W34413  10.594   2.560  12.188  0.1724  0.0060  0.0717
18230W        W34414   2.967  13.584   1.839 -0.0169  0.1899 -0.2666
18231W        W34415   8.355   8.695   1.242  0.3437 -0.2093  0.2204
18232W        W34416  17.665   6.401   1.692 -0.1544  0.0777 -0.0619
18233W        W34417   7.013  13.278   2.605 -0.5266  0.1210 -0.2501
18234W        W34418  10.152  11.847   4.328  0.3390 -0.0941  0.0761
18235W        W34419   5.851  17.742   1.651  0.1405 -0.2471  0.1691
18236W        W34420  10.008   2.331   4.606 -0.1245 -0.0463 -0.0072
18237W        W34421   6.156   4.766   2.405  0.0414  0.0378  0.0031
18238W        W34422  10.691   6.480  12.417  0.1684  0.1902  0.2449
18239W        W34423  12.500  12.234   2.055 -0.1731 -0.3609  0.1873
18240W        W34424  16.371   5.602  14.511 -0.3768  0.0750  0.3314
18241W        W34425   1.968  11.233   1.268  0.2636 -0.1471  0.1509
18242W        W34426   1.357   6.539  12.029 -0.1127 -0.2517 -0.2028
18243W        W34427  17.839  10.655  11.137  0.1776 -0.0726  0.0975
18244W        W34428   6.984  17.305  14.033  0.1303 -0.0986 -0.1992
18245W        W34429  16.520  11.078  12.271 -0.4657  0.1106 -0.1129
18246W        W34430   8.266   5.629   0.083 -0.2091 -0.2441  0.0829
18247W        W34431   7.850  13.487  13.782  0.0123  0.1727 -0.0356
18248W        W34432  12.958   6.663   2.509  0.0045 -0.1380 -0.0707
18249W        W34433   2.248  16.423  12.431  0.2298  0.1956  0.3264
18250W        W34434  16.208  11.952  12.058 -0.0585  0.3428  0.1959
18251W        W34435   3.027  11.815  13.355  0.1519  0.0792  0.1914
18252W        W34436  15.430   3.111   5.294 -0.2243  0.0570 -0.0308
18253W        W34437   3.993  13.904   4.255 -0.1581 -0.0340 -0.1092
18254W        W34438   7.795  18.791   3.360 -0.1191 -0.1138 -0.4598
18255W        W34439  11.230   3.616   1.864  0.1365 -0.1020 -0.0593
18256W        W34440   3.447   0.024   1.373  0.1842 -0.1260  0.2583
18257W        W34441   1.811  12.442  14.523 -0.2734  0.3332  0.0846
18258W        W34442   9.459  11.059  14.386  0.0011  0.0614  0.0005
18259W        W34443   4.898   4.014   3.773 -0.5533 -0.3945  0.0141
18260W        W34444   6.825  17.590   1.204 -0.0036 -0.2747  0.1616
18261W        W34445  13.880   0.267  14.109 -0.0699 -0.2082  0.0958
18262W        W34446  18.469   3.071  12.457 -0.0243  0.4806  0.0685
18263W        W34447  16.039  18.575   6.172 -0.0746  0.2648  0.1683
18264W        W34448   7.959   5.366   4.618  0.2275 -0.0153 -0.2059
18265W        W34449  14.356  18.559   3.671 -0.1249  0.2820 -0.4604
18266W        W34450   6.888  15.678  15.421 -0.0826  0.2818 -0.1099
18267W        W34451  13.062  17.688  11.993 -0.0372 -0.0847  0.1645
18268W        W34452  17.179  10.105   0.401  0.1712  0.0323 -0.0662
18269W        W34453   6.990  15.601   4.985 -0.0274 -0.0542 -0.0729
18270W        W34454   3.638   3.779   3.947 -0.1122  0.1458 -0.5597
18271W        W34455   9.927  18.651  14.625 -0.1886  0.1659 -0.0278
18272W        W34456  15.512  16.294   0.491  0.3274  0.1424 -0.1934
18273W        W34457  15.690   2.693   1.951 -0.1408  0.0564  0.1427
18274W        W34458  16.978  12.193  13.019  0.0622 -0.0424 -0.1170
18275W        W34459  16.313   1.019  12.360 -0.2959  0.1156  0.0009
18276W        W34460  18.499  11.919   4.483 -0.0202 -0.1726  0.0832
18277W        W34461  12.540  16.805  15.195 -0.0601 -0.0068 -0.2199
18278W        W34462   0.485   7.003   3.650 -0.1110 -0.2186  0.1446
18279W        W34463  10.358  14.608   2.047 -0.0027 -0.2821  0.0190
18280W        W34464  15.706  14.085  12.554  0.0960 -0.0881 -0.1125
18281W        W34465  17.306  11.801  10.991 -0.1063  0.1773  0.0724
18282W        W34466  18.787  17.524  13.281  0.3951  0.0188  0.0766
18283W        W34467  18.145   5.921  13.298 -0.0011  0.0041  0.1021
18284W        W34468   5.908  10.081  12.955 -0.0898  0.2865  0.0074
18285W        W34469  18.059   1.727  14.488 -0.1027  0.2502 -0.1292
18286W        W34470  11.898   0.218  15.148 -0.0098 -0.0735 -0.0038
18287W        W34471   0.778  12.202   4.874  0.2732 -0.1713  0.2561
18288W        W34472  11.743   0.365   0.225 -0.1882  0.0685 -0.0696
18289W        W34473   4.058   2.936   0.023 -0.2173 -0.0957 -0.1314
18290W        W34474  15.924   0.512  13.381 -0.1019 -0.1267  0.1106
18291W        W34475  10.481  16.240  14.071 -0.0093 -0.1689 -0.1838
18292W        W34476  10.390   8.322  12.677 -0.0437  0.2696  0.2509
18293W        W34477   1.155   9.291   1.473 -0.1488  0.0448  0.0281
18294W        W34478   4.494  11.552  11.938  0.0247  0.0401 -0.0508
18295W        W34479   1.533  13.195   1.305 -0.1889 -0.1749 -0.0159
18296W        W34480  11.243   4.811   4.832 -0.3805  0.3456  0.2479
18297W        W34481  11.048  15.269  11.825  0.1520  0.1134  0.0392
18298W        W34482   0.695  11.067  13.441 -0.2536 -0.2695  0.2494
18299W        W34483  14.031   4.422  14.512 -0.1998  0.0253  0.2931
18300W        W34484  13.852   2.445  14.872  0.1077  0.3106 -0.1686
18301W        W34485   6.496   4.451  13.614 -0.1188 -0.3318  0.2878
18302W        W34486   3.518   1.846   2.159  0.1153 -0.3565 -0.0939
18303W        W34487  13.488   9.498  11.687 -0.0680  0.0380  0.0456
18304W        W34488   9.852   4.143  10.847  0.1176  0.0035 -0.2305
18305W        W34489   1.371  12.352   1.314 -0.0262 -0.0944  0.0315
18306W        W34490  17.018   4.201   4.791 -0.0962  0.0431  0.2064
18307W        W34491  11.950  16.944   3.503 -0.0039 -0.0919  0.2175
18308W        W34492  13.136   6.987  10.936 -0.0942  0.0989  0.2317
18309W        W34493   8.217  10.458  10.971  0.2717 -0.3611 -0.1067
18310W        W34494   7.986   3.696  11.708 -0.4078  0.3103 -0.0476
18311W        W34495  16.861  11.494   1.327 -0.2154 -0.0191 -0.0191
18312W        W34496  17.590   8.486  13.168 -0.2413 -0.1442  0.0959
18313W        W34497  18.215   3.003   1.693  0.0300  0.1727  0.0609
18314W        W34498  10.429   1.299   5.602  0.0528  0.4026 -0.0573
18315W        W34499   0.748  18.028  13.486  0.2600 -0.0321 -0.3536
18316W        W34500  11.303   2.825  11.631 -0.0004 -0.1214  0.2175
18317W        W34501   6.987  18.032   5.210  0.0345 -0.2816  0.0874
18318W        W34502   4.943   2.398  14.695 -0.2660 -0.0043 -0.1465
18319W        W34503  13.722   6.071  12.197 -0.3117  0.2763  0.1653
18320W        W34504   2.170  16.936   4.441 -0.0386 -0.0102 -0.1996
18321W        W34505  13.926  18.743  14.503  0.0118 -0.1415 -0.0412
18322W        W34506   1.684   3.357   0.318  0.1273  0.1020 -0.1274
18323W        W34507  10.886   6.375  14.451  0.0980 -0.1309  0.2483
18324W        W34508  12.914  16.761   4.548  0.1685 -0.1368  0.1148
18325W        W34509   6.928  18.094  13.700 -0.1176  0.1233 -0.1315
18326W        W34510  17.871  15.416   1.221  0.0020  0.0227 -0.2477
18327W        W34511   0.262   5.677   1.705  0.0595  0.0607 -0.0211
18328W        W34512   9.776   8.014  14.309 -0.1281 -0.1546  0.0758
18329W        W34513   1.650  11.451   3.081  0.4699 -0.2987 -0.0636
18330W        W34514   1.090  12.939  11.672  0.0422 -0.0081 -0.1159
18331W        W34515  16.736   0.122  12.679  0.0976 -0.1860 -0.0443
18332W        W34516  11.518  14.143   5.343  0.3234 -0.0878  0.0045
18333W        W34517  14.197  12.700   2.096 -0.1594 -0.1401 -0.0439
18334W        W34518   6.299   4.770   0.312 -0.1971  0.1785 -0.0309
18335W        W34519  15.012  15.415  12.045 -0.2230 -0.1375  0.2226
18336W        W34520  17.881   5.392  13.483  0.1080  0.0558  0.2556
18337W        W34521   6.119  18.786  13.269  0.3276 -0.2202 -0.2523
18338W        W34522  12.805  15.880   4.028 -0.4353  0.1947  0.2931
18339W        W34523   9.262  17.238  13.986  0.1191 -0.1781 -0.0574
18340W        W34524  16.669   0.980   0.365 -0.0812 -0.0660  0.4752
18341W        W34525   7.213  10.481  14.471  0.2186 -0.3783  0.1456
18342W        W34526   9.394   5.109   2.733 -0.1893  0.3916 -0.1276
18343W        W34527  15.468  16.190   3.209 -0.0981  0.1401  0.0956
18344W        W34528  18.583   9.189   4.336  0.0337 -0.0112  0.0426
18345W        W34529   3.970   8.412  13.317  0.3482 -0.3478 -0.0168
18346W        W34530  16.184  12.385   5.370 -0.1468 -0.1059  0.2471
18347W        W34531   4.863   8.488   3.817  0.1679  0.1811  0.2732
18348W        W34532   7.697  14.505  13.616 -0.0144  0.3386 -0.1651
18349W        W34533   1.998   6.168   2.486 -0.3345 -0.3192  0.1677
18350W        W34534   0.854  10.667  14.552  0.2223 -0.0024  0.1021
18351W        W34535   2.253  14.584   3.607  0.3276 -0.1563  0.1512
18352W        W34536   0.471   5.395   5.063  0.0599  0.0430  0.2456
18353W        W34537  14.057  14.564  10.869  0.0324  0.1775  0.1787
18354W        W34538   4.192   0.028   0.774  0.1843  0.0683  0.0787
18355W        W34539  17.933   0.556   3.758 -0.1336 -0.0195  0.0148
18356W        W34540  13.533  17.316   5.183 -0.2340  0.0019  0.0812
18357W        W34541   4.849  12.046  14.573 -0.0153  0.0486  0.0517
18358W        W34542  14.841  18.793   1.927  0.0483 -0.2088 -0.1735
18359W        W34543   4.903   8.924   1.063 -0.1617  0.0058 -0.0640
18360W        W34544  10.790   3.100   5.150 -0.0940 -0.1162  0.1439
18361W        W34545   1.142   8.328  13.649 -0.3619 -0.1362 -0.1098
18362W        W34546   4.069   5.226  12.547  0.1650 -0.0909  0.0507
18363W        W34547  17.234   9.051   1.334 -0.2569  0.1866 -0.0924
18364W        W34548  14.166   6.229   3.340  0.0989  0.0115  0.1206
18365W        W34549  17.631   0.271  15.317  0.0001  0.3411 -0.0329
18366W        W34550  15.142   1.219  13.175 -0.1319 -0.3080 -0.1731
18367W        W34551  16.060  18.642   1.222  0.1064  0.1676 -0.2142
18368W        W34552   4.079  12.231   2.251 -0.3079 -0.0067  0.2060
18369W        W34553  14.900   7.092   4.762  0.3353  0.4497 -0.2265
18370W        W34554   6.651   2.720   0.049  0.1817  0.2801 -0.4525
18371W        W34555  16.959  13.224  13.080  0.0587 -0.1526 -0.2149
18372W        W34556  11.942   5.707   3.591 -0.1632  0.2196 -0.0181
18373W        W34557  13.795   5.805   2.130  0.3209 -0.2038 -0.0527
18374W        W34558   2.319  18.440   5.950 -0.1905 -0.1360 -0.1242
18375W        W34559  11.515  12.690  10.560 -0.1836 -0.1911 -0.4035
18376W        W34560  15.741  11.435   3.122  0.0643 -0.0234  0.1677
18377W        W34561  13.539  11.502   1.509 -0.1649  0.1644  0.2170
18378W        W34562  12.124   7.878   1.961  0.0135 -0.0848  0.1722
18379W        W34563   2.935  17.073   1.103  0.0951 -0.4199 -0.2037
18380W        W34564  10.342   6.962  12.465 -0.0270 -0.0200 -0.0678
18381W        W34565  17.106   1.916  12.324  0.4504 -0.1107  0.0554
18382W        W34566   9.954   2.630  14.966 -0.1196  0.0947 -0.0645
18383W        W34567   5.958   2.962  15.084  0.0389 -0.0221 -0.0902
18384W        W34568   6.278  13.931   3.482  0.1608  0.2268  0.1861
18385W        W34569  15.453   5.796   5.206  0.2844 -0.1262 -0.1531
18386W        W34570   8.936  14.566  14.066  0.0562  0.1321  0.2396
18387W        W34571  12.554  12.483  13.124  0.0656 -0.2091  0.1103
18388W        W34572   9.722   9.192  14.084  0.4138  0.2273 -0.1852
18389W        W34573  15.208   9.183  13.520 -0.4072  0.2318  0.0768
18390W        W34574  13.404   4.732   2.681  0.1494  0.0818  0.0977
18391W        W34575   1.549  12.604  11.488 -0.2111 -0.2396  0.0619
18392W        W34576  17.413  17.266  12.568 -0.1198  0.0292  0.2500
18393W        W34577  11.560   3.459  11.086 -0.0484  0.0673  0.0055
18394W        W34578   7.985   9.672  11.325 -0.0525 -0.1943 -0.1005
18395W        W34579  16.749   7.574   2.742 -0.2872  0.1360  0.1594
18396W        W34580  16.228   1.098   0.721 -0.2538 -0.0515  0.0817
18397W        W34581  17.328  16.857  11.269  0.0444  0.0944  0.0744
18398W        W34582   5.812   7.564   1.027  0.1331  0.4596  0.1114
18399W        W34583  18.378   9.875  12.878 -0.0558 -0.1549  0.1264
18400W        W34584  17.208   7.391  10.714  0.1434 -0.1299  0.0643
18401W        W34585   6.170  11.252   0.674 -0.1703  0.2941 -0.0937
18402W        W34586  13.628   1.967  13.014  0.1801 -0.3053  0.1436
18403W        W34587   5.410  14.127  12.241  0.1734  0.3093 -0.1726
18404W        W34588  15.109   0.923  10.980  0.4536  0.0035  0.1764
18405W        W34589   4.330   4.620   0.288  0.0122  0.4340 -0.2374
18406W        W34590   0.058   6.366   2.371  0.0408  0.1265  0.0784
18407W        W34591  13.984   3.759  13.651 -0.1234  0.1408 -0.1142
18408W        W34592  17.221  11.406  11.325  0.0993 -0.1890  0.1252
18409W        W34593   3.449   8.293   3.031  0.0618 -0.2736  0.1541
18410W        W34594  12.022   6.979  12.913  0.1388  0.0249  0.0966
18411W        W34595  18.274   1.642  12.524  0.1119  0.0882  0.0370
18412W        W34596  11.803  13.593   0.671  0.3476  0.1077  0.0739
18413W        W34597   3.951   8.658  15.378  0.4012 -0.2156 -0.0604
18414W        W34598  13.857  11.765   2.202 -0.3669  0.1155 -0.4632
18415W        W34599   5.202   4.234  13.808 -0.0696  0.1052  0.2365
18416W        W34600   1.144   5.906   0.448  0.1523  0.3369 -0.4241
18417W        W34601   3.588  14.764  12.705 -0.2348 -0.1538 -0.1086
18418W        W34602  11.384  12.764   1.539 -0.0637 -0.0024 -0.1191
18419W        W34603  14.876  18.079  12.195 -0.1048  0.0768  0.0459
18420W        W34604  17.467  15.284  15.210  0.1067  0.1275 -0.1781
18421W        W34605   7.943   5.923  12.406  0.0998  0.7365 -0.0911
18422W        W34606   7.610   1.410  12.292  0.1502  0.2789  0.3310
18423W        W34607   7.154  17.702   3.479  0.0528  0.2070  0.0896
18424W        W34608   2.418   4.359  10.877  0.0971 -0.2244  0.2606
18425W        W34609  16.575  18.366   1.916 -0.0414 -0.1336 -0.1544
18426W        W34610   2.175   1.222   3.260 -0.0743 -0.0835  0.2312
18427W        W34611   3.923   4.633  13.801  0.3387  0.0764  0.1250
18428W        W34612   9.353  10.107  14.128 -0.0917  0.0953  0.2413
18429W        W34613   3.112   6.143  11.468 -0.1587  0.0685 -0.3905
18430W        W34614  13.663  13.838   1.546  0.0130 -0.0168  0.0995
18431W        W34615   6.586  12.306   3.607  0.1380 -0.3003 -0.0251
18432W        W34616  14.156   0.111   3.214  0.0352 -0.0120 -0.2574
18433W        W34617   5.677  15.750   2.742  0.0949 -0.0654 -0.2719
18434W        W34618  15.689  15.819  11.163  0.0099 -0.0772 -0.1726
18435W        W34619   6.371  10.916   1.467 -0.0176 -0.0008  0.0513
18436W        W34620   9.698   2.035   0.501  0.0999 -0.0108 -0.0162
18437W        W34621   8.294   9.938  15.018 -0.1412  0.0446  0.0367
18438W        W34622  14.507   5.480  15.174 -0.0947  0.0891  0.0274
18439W        W34623  11.123  11.501   1.817 -0.3618 -0.1025  0.0595
18440W        W34624  11.998   3.015   2.128 -0.2495  0.1572 -0.2400
18441W        W34625   3.964   5.037  14.194 -0.2033 -0.1574 -0.0490
18442W        W34626   7.315   9.049  12.582  0.1746 -0.1162  0.0176
18443W        W34627   2.458   7.067  13.426 -0.0288 -0.0569 -0.0583
18444W        W34628  15.418   0.928   2.174  0.3139  0.2621 -0.0224
18445W        W34629  13.388   0.804   0.959 -0.0059  0.2006  0.0130
18446W        W34630  12.005  12.916  11.426 -0.0790  0.2181  0.0400
18447W        W34631   3.578  10.073  14.821  0.1035 -0.2189 -0.1400
18448W        W34632  11.727   2.549   2.218  0.1050  0.3273 -0.1257
18449W        W34633  18.103  15.388  11.240 -0.1710  0.3825  0.0181
18450W        W34634  14.158  12.148   3.834 -0.1903  0.2800 -0.0539
18451W        W34635  11.198  16.219  12.699  0.0962 -0.0278 -0.1423
18452W        W34636  12.586  12.387   2.599  0.0673  0.1193 -0.1556
18453W        W34637  18.328   5.084   4.778  0.2642 -0.3236 -0.1663
18454W        W34638  18.843   8.728  15.398  0.0446 -0.0174  0.0991
18455W        W34639  16.393   9.196  15.219  0.1018 -0.0933  0.0627
18456W        W34640   5.014  12.433  14.184  0.0398 -0.1647 -0.0564
18457W        W34641  17.894   0.788  14.826 -0.1431 -0.2036 -0.0169
18458W        W34642   7.670   5.987   9.258 -0.2175 -0.2886  0.2932
18459W        W34643   4.205   4.567   3.872  0.0438  0.0847 -0.0828
18460W        W34644   6.095   4.784   5.657 -0.2627 -0.0794  0.1662
18461W        W34645  10.040   5.517   2.180 -0.0789 -0.2668  0.1817
18462W        W34646   4.673  12.207  12.774 -0.1549  0.2171 -0.0801
18463W        W34647   0.670   1.454   3.611 -0.0402  0.2365 -0.1121
18464W        W34648   7.261  17.781  10.990  0.1438  0.0168 -0.1433
18465W        W34649   0.491  11.663  13.963 -0.1472  0.1731 -0.0338
18466W        W34650   3.785  18.077   3.854  0.1063  0.0871 -0.0566
18467W        W34651  13.257   4.637  12.556  0.3209  0.0137  0.2009
18468W        W34652  13.997  15.259  12.204 -0.0301 -0.2970  0.1847
18469W        W34653   3.789   1.056  10.382  0.1707 -0.1189  0.1295
18470W        W34654   2.698   1.229  13.216  0.1603  0.2575 -0.0009
18471W        W34655   5.552   4.107   0.917  0.2571  0.0132 -0.1577
18472W        W34656   1.225   6.035   3.826  0.1552 -0.1708  0.3169
18473W        W34657   8.219   4.058  11.988  0.1957  0.2194  0.1042
18474W        W34658   6.298  10.064   1.996  0.1293  0.2024  0.1231
18475W        W34659  18.479   2.029   2.643  0.3168  0.0146 -0.1402
18476W        W34660   1.994  10.688  15.200 -0.0518 -0.1527  0.2430
18477W        W34661  10.698   1.980   3.867  0.5203 -0.0664  0.0999
18478W        W34662   6.479  10.115  12.687 -0.2539 -0.3025 -0.3806
18479W        W34663  10.138  13.130   3.111 -0.0604 -0.0060  0.0759
18480W        W34664   8.023  16.860   4.164 -0.3412 -0.0057  0.2719
18481W        W34665  11.148  14.428  10.546 -0.0706  0.1442  0.0604
18482W        W34666  11.230   6.697   4.940 -0.0363  0.2215 -0.3633
18483W        W34667  10.207   9.607  10.976 -0.0784 -0.0215  0.0280
18484W        W34668   5.492  10.513  15.188  0.1348  0.1564  0.1963
18485W        W34669   6.009   1.593   3.378 -0.2776  0.1635 -0.2378
18486W        W34670  11.836  18.688  12.487 -0.1854 -0.4074  0.1758
18487W        W34671   1.650   0.470  13.804  0.2282 -0.3013 -0.0914
18488W        W34672  18.721  18.267   3.033 -0.0221  0.0681 -0.1451
18489W        W34673  18.081   4.303   1.999 -0.2855 -0.0343 -0.1491
18490W        W34674   6.292   1.434  10.360 -0.0851  0.0667  0.0043
18491W        W34675  11.944   7.447  15.447 -0.0643 -0.1029  0.0646
18492W        W34676   2.465   2.196  11.067  0.0003 -0.1761 -0.1752
18493W        W34677   0.619   5.493  11.424 -0.2311  0.0747  0.0143
18494W        W34678  12.377   9.762  14.051  0.0391 -0.1629 -0.1179
18495W        W34679  18.164   3.050  13.639  0.4027  0.0019  0.1118
18496W        W34680  10.745   0.832  11.828  0.0506 -0.1232  0.1968
18497W        W34681  11.916   1.991   1.990  0.0338  0.1428 -0.1497
18498W        W34682  16.927   9.290   0.185 -0.0494 -0.0393 -0.0975
18499W        W34683   8.169   3.762   3.613  0.0126  0.4650 -0.6024
18500W        W34684  15.932  12.769  12.506 -0.2222  0.1699 -0.0624
18501W        W34685   5.030   5.624   4.700 -0.1414  0.0489  0.3053
18502W        W34686   4.797  15.558  11.110 -0.1684 -0.1672 -0.0092
18503W        W34687  16.783  17.326   2.966 -0.0034 -0.0863 -0.2077
18504W        W34688  14.870  10.393   3.988 -0.2881  0.2126  0.3171
18505W        W34689  11.990   3.094  13.850 -0.2011  0.1803  0.1467
18506W        W34690  10.545   6.188  11.968  0.3243 -0.1966 -0.1734
18507W        W34691  17.135  17.861   4.263 -0.2544  0.1382 -0.0412
18508W        W34692  14.316   2.187   2.114 -0.0578 -0.0107  0.1509
18509W        W34693   5.959   7.871  13.708  0.0494  0.0793 -0.1199
18510W        W34694  16.812  13.509  14.224  0.0920 -0.1080  0.0327
18511W        W34695  16.688   4.729  12.645  0.0359 -0.0008  0.1757
18512W        W34696   5.944   8.953   2.982  0.3220  0.0782 -0.0852
18513W        W34697   8.173   1.329  10.803  0.0691  0.2815 -0.2323
18514W        W34698  10.148  10.987   3.013  0.0478 -0.0101  0.2801
18515W        W34699  13.242  12.759   3.170 -0.1765 -0.0711  0.2402
18516W        W34700  16.530   4.637   5.460  0.0056  0.0147 -0.1079
18517W        W34701  10.382  10.109  11.162  0.3896 -0.1271  0.1602
18518W        W34702  17.291   9.514  14.727 -0.0766 -0.2357 -0.1491
18519W        W34703  13.427   3.439   2.027 -0.2326  0.0138  0.3291
18520W        W34704  12.634   9.348   3.228  0.1173 -0.2270 -0.3864
18521W        W34705  12.404   3.930   4.844  0.3276 -0.1124 -0.1121
18522W        W34706  18.322   8.922   2.123  0.3741  0.1494  0.3397
18523W        W34707  14.040  15.687   0.266 -0.0522  0.0123  0.1046
18524W        W34708  16.659   2.747   0.977  0.2350 -0.0928  0.2625
18525W        W34709   4.545   1.205   4.976  0.1684  0.2765  0.1579
18526W        W34710   6.235  11.744   1.730  0.2568 -0.1694  0.2333
18527W        W34711  14.914  14.419   2.245 -0.0588 -0.0011  0.1069
18528W        W34712   9.079   8.023   0.897  0.3311  0.2662  0.1449
18529W        W34713  18.819  13.206   0.531 -0.2163  0.1964 -0.3220
18530W        W34714  16.835  13.436  12.197 -0.2491  0.3515  0.2552
18531W        W34715   1.391   8.713   5.539 -0.3663  0.1349 -0.0739
18532W        W34716  11.768   5.448   0.049  0.2648  0.1070  0.2610
18533W        W34717  13.494  17.866   0.010 -0.0386  0.1347  0.0903
18534W        W34718   0.584  18.646  15.405  0.4731 -0.0607 -0.3981
18535W        W34719  13.357   9.781  14.790 -0.2046  0.0442  0.2258
18536W        W34720   2.405   5.216   3.873 -0.1426  0.0962  0.1439
18537W        W34721  16.382  12.309  13.297  0.2070  0.2326  0.4567
18538W        W34722  16.921   6.216   2.235 -0.2312  0.0256  0.0824
18539W        W34723  17.379  12.588   5.427  0.0402 -0.0347  0.2323
18540W        W34724   8.378  13.910   0.942 -0.2656 -0.0472 -0.4487
18541W        W34725  15.647   1.001   5.147 -0.0626 -0.0540 -0.1357
18542W        W34726  10.069   1.569  11.535 -0.1271 -0.1377 -0.0133
18543W        W34727   3.059   9.580  15.231  0.1628  0.0583  0.0261
18544W        W34728   0.591   8.825  12.801 -0.0406  0.1384  0.2577
18545W        W34729   7.101   3.572  12.260 -0.4297 -0.1362 -0.2770
18546W        W34730   6.007  13.688  15.128 -0.2940  0.0132 -0.1895
18547W        W34731   5.933   1.472   0.497 -0.1033 -0.2247  0.1806
18548W        W34732  15.187  15.344   3.611  0.1011  0.0424 -0.3048
18549W        W34733  17.457  13.968  11.942 -0.0426 -0.0559  0.0563
18550W        W34734   5.504   5.234  10.772 -0.0273  0.3165 -0.0700
18551W        W34735  10.786   1.688  13.980  0.1800  0.0955 -0.0539
18552W        W34736  11.356  15.364  13.179 -0.1632 -0.3190 -0.2187
18553W        W34737   3.331   1.078  15.445  0.0225 -0.1756 -0.1867
18554W        W34738   0.795   6.729   2.114  0.0191 -0.5342 -0.1486
18555W        W34739   5.806   3.846  13.154 -0.0531  0.1936  0.0585
18556W        W34740   9.321   7.742   5.785  0.3152  0.1070 -0.0010
18557W        W34741  13.953  14.160  11.146 -0.1674  0.2704 -0.1801
18558W        W34742   3.818  11.457  15.015  0.0270 -0.0727  0.3567
18559W        W34743   0.427   3.219   4.783  0.2338  0.0220 -0.5440
18560W        W34744   4.659  15.569   5.017 -0.1374 -0.0492  0.3569
18561W        W34745  13.327   5.659   3.064 -0.1240 -0.0337 -0.2166
18562W        W34746   6.173  12.586   9.520 -0.0779  0.1438  0.0192
18563W        W34747   0.450  12.498  13.052 -0.1982  0.0124  0.0394
18564W        W34748   8.816   5.310  15.497 -0.2842  0.1758 -0.1962
18565W        W34749  12.119   4.787  14.896 -0.1539 -0.0242 -0.0220
18566W        W34750   3.239  10.634  15.084 -0.2727 -0.2175 -0.0420
18567W        W34751   5.146  15.350  10.788 -0.0236  0.0220  0.2458
18568W        W34752   0.480   9.433   0.801  0.1356 -0.1191 -0.2832
18569W        W34753  17.310  18.321   2.439 -0.0804 -0.0338  0.2323
18570W        W34754  10.672   3.831   3.369  0.1704 -0.0752 -0.0298
18571W        W34755  11.543  15.022   3.778  0.4375 -0.1261 -0.1386
18572W        W34756  14.593   8.041  13.176 -0.1230 -0.2655 -0.0479
18573W        W34757  16.634  12.145   2.489  0.3236  0.2121 -0.0079
18574W        W34758   9.229   7.935  12.353 -0.2419  0.2427 -0.4095
18575W        W34759   2.598  18.618  11.486  0.3955 -0.1617  0.2067
18576W        W34760   9.062   0.139   2.826  0.1337 -0.0523 -0.0573
18577W        W34761  12.091  15.085  12.475 -0.0441 -0.0096 -0.1089
18578W        W34762  10.134   0.549   3.709  0.2607  0.0066  0.2126
18579W        W34763  13.057  13.650  12.516 -0.0353  0.2802  0.0647
18580W        W34764  15.921  18.483  15.444  0.1873 -0.2385  0.0638
18581W        W34765  13.685   3.856   2.137 -0.1267 -0.1131 -0.2113
18582W        W34766   5.223   2.758   3.136 -0.0048 -0.0866 -0.3158
18583W        W34767   0.371   9.170   3.081 -0.0955  0.0881  0.0833
18584W        W34768   5.615  16.811  15.051  0.2847 -0.2818 -0.3012
18585W        W34769   3.079  16.557  14.429 -0.1110 -0.1490  0.3847
18586W        W34770   7.519   2.103  13.294 -0.1558  0.0459  0.0458
18587W        W34771  16.351   5.661  11.139 -0.2425 -0.1325  0.2012
18588W        W34772  11.347  11.663   3.082 -0.1631  0.3103  0.2165
18589W        W34773  15.433  12.384   0.774  0.4006 -0.1716  0.0268
18590W        W34774   3.585  12.899   1.897  0.1070  0.1992 -0.3354
18591W        W34775   3.930  12.898   1.002  0.2873  0.2842  0.2596
18592W        W34776   0.334   3.806   0.140 -0.0597  0.1521  0.0632
18593W        W34777   5.352   4.248   5.487 -0.0083 -0.0061 -0.3295
18594W        W34778  15.340   8.368   1.411  0.2010 -0.1344  0.2583
18595W        W34779   0.633   1.381   1.522 -0.2544 -0.0903 -0.2221
18596W        W34780  14.282   1.325  14.661 -0.3704 -0.4294 -0.1139
18597W        W34781  18.689   0.529  10.536 -0.0256  0.4999  0.3478
18598W        W34782  18.009  16.838   5.635  0.2850 -0.1780 -0.0059
18599W        W34783   5.600   0.656   0.714 -0.0808 -0.1367 -0.0442
18600W        W34784   9.010  12.508   4.053 -0.0064  0.5594  0.1942
18601W        W34785   3.595   8.092  13.739  0.1810 -0.4037 -0.0706
18602W        W34786   8.462  18.036   4.722  0.1368 -0.0779 -0.3816
18603W        W34787  11.582   3.901   0.410  0.1858  0.0067  0.0692
18604W        W34788  13.764  13.721   5.610 -0.1255 -0.1252  0.0682
18605W        W34789   4.436   4.469  13.426 -0.3045 -0.1029 -0.1503
18606W        W34790   4.774   5.182  10.067 -0.0096  0.1271  0.2750
18607W        W34791  17.760  17.443  12.218  0.2665 -0.0836  0.0119
18608W        W34792  13.724  15.902  11.966 -0.0409  0.0088 -0.0779
18609W        W34793   5.995   8.049  14.216 -0.2366  0.0276 -0.0363
18610W        W34794   3.563  12.768   3.214 -0.1121 -0.0720 -0.3895
18611W        W34795   2.422  13.060  11.256 -0.2070 -0.1181 -0.1079
18612W        W34796   3.081  11.906   0.511 -0.0347 -0.0367  0.0557
18613W        W34797  17.497  13.073   2.598  0.3387 -0.0242 -0.0179
18614W        W34798  16.789  18.477  14.661  0.1009  0.1430  0.1378
18615W        W34799  11.868  10.901  13.765 -0.0855  0.0411  0.1442
18616W        W34800   2.024   8.760  10.056 -0.1368  0.1629  0.0329
18617W        W34801  10.568   7.398  11.250  0.1603  0.2635  0.0634
18618W        W34802   9.211  15.219  11.589  0.2298  0.1584  0.2377
18619W        W34803  10.226  14.000   4.630  0.2808  0.2248  0.1022
18620W        W34804   2.089   6.440   4.583 -0.1404 -0.1106 -0.3014
18621W        W34805   5.547  15.780   2.204  0.1959  0.0857 -0.0198
18622W        W34806   1.496   6.354  11.000 -0.0827 -0.1883  0.3379
18623W        W34807  13.390   9.335   0.161  0.3404  0.1511  0.1067
18624W        W34808  11.459   9.765   5.254  0.1061  0.0183 -0.1329
18625W        W34809  10.937   2.252   4.223  0.1992 -0.0884  0.1272
18626W        W34810   0.184  12.352   4.712  0.2472  0.0651  0.0769
18627W        W34811   0.439   7.470  12.017  0.2400  0.0005  0.0160
18628W        W34812  10.976   5.079  14.557 -0.1319 -0.1338  0.2649
18629W        W34813  10.620  10.092   5.036  0.1430 -0.3645 -0.1037
18630W        W34814   3.164   2.119   0.946 -0.0499  0.3559  0.1972
18631W        W34815   0.914  15.949   9.963  0.0569 -0.1984  0.2799
18632W        W34816   4.498  10.345   0.244 -0.0755 -0.3943  0.2969
18633W        W34817  17.636   6.115   0.485  0.1778  0.2583 -0.3219
18634W        W34818   4.879   2.206   5.099  0.0975  0.1102  0.1052
18635W        W34819  12.799  13.832  11.469 -0.0713  0.3975 -0.0953
18636W        W34820  11.069   4.971   3.251 -0.0859 -0.0556  0.0984
18637W        W34821  12.587  17.198  11.847  0.0106 -0.0858  0.3345
18638W        W34822   0.693   6.608   1.199 -0.0318  0.1064  0.1252
18639W        W34823  15.334  12.303   9.965 -0.1565 -0.3013  0.1222
18640W        W34824   5.816   9.756   2.079  0.1254 -0.0314 -0.3054
18641W        W34825   2.446   8.066  11.832 -0.3715 -0.0990  0.0321
18642W        W34826   6.992   0.988  11.936 -0.1615 -0.1122  0.0975
18643W        W34827   8.482  15.856   4.806 -0.0456 -0.0754  0.0179
18644W        W34828   7.897  15.041  11.304 -0.0466  0.2376 -0.2549
18645W        W34829  14.882  14.920  12.149 -0.0932 -0.0342 -0.0816
18646W        W34830   1.004  14.346   2.512  0.0820  0.1888  0.0637
18647W        W34831   1.640   7.566  11.595  0.1702  0.0379 -0.3193
18648W        W34832   5.774  14.129   3.469 -0.2096  0.1306  0.0240
18649W        W34833   3.757  11.145  13.345  0.0981  0.4166  0.0211
18650W        W34834   5.473   8.072   1.651  0.0706 -0.3335  0.4037
18651W        W34835   0.542   8.033  15.070 -0.0181  0.1545  0.0023
18652W        W34836   8.494  13.081  14.998 -0.0578  0.2548  0.0209
18653W        W34837  10.019  10.499   0.743  0.0483 -0.1072  0.1702
18654W        W34838   6.733   2.176  14.529  0.3581 -0.0890 -0.1235
18655W        W34839  16.649   5.425   4.515 -0.0143  0.1865 -0.0835
18656W        W34840  16.663   8.542  13.859 -0.1744  0.1770  0.1613
18657W        W34841  17.673  13.450  15.504 -0.1003  0.3110 -0.1731
18658W        W34842   6.672  16.408   1.516  0.0512 -0.3522 -0.1336
18659W        W34843  16.959   8.072   5.417  0.0954  0.0523  0.3021
18660W        W34844   3.589   0.373  11.435 -0.0633 -0.0224 -0.1555
18661W        W34845   9.074  17.044   5.279 -0.3244 -0.0983 -0.2264
18662W        W34846   5.412   0.582   4.043  0.5034 -0.1316  0.1943
18663W        W34847  11.949   5.260   1.169  0.1664  0.2178  0.0499
18664W        W34848   2.854  15.871  13.828  0.0013  0.2589  0.1152
18665W        W34849   3.378  11.992   5.012  0.1341  0.3009 -0.0844
18666W        W34850   6.813   4.880   3.926 -0.3300 -0.0234 -0.0639
18667W        W34851   2.206  16.773  11.540  0.0853  0.1790 -0.0241
18668W        W34852  15.105  11.704  12.866 -0.1158 -0.1435 -0.1118
18669W        W34853  10.694   4.070  12.742  0.1413 -0.0626 -0.2521
18670W        W34854   4.274   0.625   3.607  0.0312 -0.1223 -0.2593
18671W        W34855  13.908  14.336  14.042  0.0257 -0.1774  0.2678
18672W        W34856  18.369   0.554  12.353  0.3667  0.3181  0.0046
18673W        W34857  13.728  13.799  11.383 -0.2241 -0.0520  0.0910
18674W        W34858   1.599   2.176  14.574 -0.1341 -0.4277  0.0874
18675W        W34859  17.249   7.053  12.576 -0.0855 -0.1330  0.1658
18676W        W34860  10.460  15.724  12.354  0.0304 -0.1551 -0.0514
18677W        W34861   4.584   8.939   0.671  0.0505  0.1162 -0.1090
18678W        W34862   7.105   6.124  13.246  0.0179 -0.0241 -0.1644
18679W        W34863   9.641  11.943   3.879 -0.3141  0.0258  0.0688
18680W        W34864   7.382  15.411   0.524  0.3109  0.0933 -0.1828
18681W        W34865   3.725   3.159   5.410 -0.1208 -0.1819 -0.3318
18682W        W34866  14.099   0.420   2.126  0.1177 -0.2343  0.2736
18683W        W34867  13.556   1.143  13.380  0.0030 -0.2175 -0.0305
18684W        W34868   2.235   4.043  13.378 -0.0105  0.0303 -0.0495
18685W        W34869  15.920   7.291  13.066 -0.1824 -0.0953 -0.2700
18686W        W34870   7.092   9.452   2.006 -0.3267 -0.1957  0.0150
18687W        W34871   2.325   0.430   3.736  0.2439 -0.3378 -0.3473
18688W        W34872   8.119  12.916  13.032  0.0512 -0.0112 -0.0788
18689W        W34873   3.364   2.059  15.492  0.1917 -0.1052  0.2641
18690W        W34874   7.334   3.608  13.182 -0.2734 -0.3163  0.2217
18691W        W34875  13.045   8.519   4.794  0.3348 -0.1663 -0.0527
18692W        W34876   7.700  13.013   4.398 -0.2076  0.3277 -0.1108
18693W        W34877   9.693   5.273   0.511  0.0897  0.0973 -0.0248
18694W        W34878   9.631   6.549  12.930 -0.0163 -0.0618 -0.3326
18695W        W34879  15.696  12.820   0.888 -0.1967 -0.0935  0.0989
18696W        W34880  10.193   7.122  10.879  0.0914  0.1403  0.2243
18697W        W34881   5.781   5.076  12.783 -0.1556  0.0789  0.3722
18698W        W34882   8.235  10.134   4.882  0.4331 -0.2943 -0.0116
18699W        W34883   2.882  15.199   2.484  0.4928 -0.2820 -0.2741
18700W        W34884  18.816   4.907  11.535  0.0595  0.0231 -0.1074
18701W        W34885   2.630   2.249  12.898 -0.0009  0.2902  0.0405
18702W        W34886   3.687  16.638   4.692 -0.2857 -0.3037 -0.0637
18703W        W34887   0.625   6.109   1.098  0.1364  0.0611 -0.0522
18704W        W34888   0.689   2.318   1.495  0.1858 -0.0433  0.0996
18705W        W34889   7.488  11.833  15.216  0.0742  0.2556 -0.0008
18706W        W34890   3.364   5.114   2.738 -0.2212  0.1362 -0.2788
18707W        W34891  14.437   5.329  11.520  0.0753 -0.1183 -0.4114
18708W        W34892   3.121  14.670  14.273 -0.0654  0.0577  0.1782
18709W        W34893  14.327   5.626  12.457  0.3191  0.0250  0.1786
18710W        W34894  18.252   1.167   3.042 -0.1646 -0.0781 -0.0906
18711W        W34895   2.689   7.124  14.619  0.0598  0.0908  0.2370
18712W        W34896   7.608   1.904  11.446 -0.1746 -0.1676 -0.1584
18713W        W34897  13.668   0.544   2.427 -0.1933 -0.2512  0.1053
18714W        W34898  12.274  15.623  13.273  0.1593 -0.0594  0.1622
18715W        W34899   4.920   5.412  15.003  0.0781  0.2820  0.2493
18716W        W34900   2.637  18.481   2.751  0.0929 -0.2661 -0.0683
18717W        W34901  16.824   0.285   3.476 -0.0383 -0.1311 -0.2551
18718W        W34902  14.479   9.275   3.620  0.0697  0.0324  0.2943
18719W        W34903  13.718   5.367   1.676  0.1724  0.0461 -0.4860
18720W        W34904   7.549   1.678  13.695  0.1043 -0.1224 -0.0560
18721W        W34905  17.173  14.226  15.090  0.2603 -0.0170 -0.1954
18722W        W34906  15.396   0.859   4.705 -0.3725 -0.4130  0.0282
18723W        W34907  16.797  17.455   2.086 -0.1579  0.0202 -0.0387
18724W        W34908   0.874   5.783  14.670  0.0050  0.2086 -0.1135
18725W        W34909   1.068  16.349   1.501 -0.1659 -0.0021  0.0199
18726W        W34910   8.031  18.062  11.544  0.1015 -0.0499  0.2141
18727W        W34911  10.869  12.239   5.307  0.0178  0.0636 -0.1994
18728W        W34912   1.463  11.651   2.446 -0.2982 -0.0348  0.1987
18729W        W34913   5.624  11.748  11.830 -0.3547 -0.1234 -0.1978
18730W        W34914   4.989  16.264   2.157 -0.2612 -0.1615  0.0379
18731W        W34915   4.338   7.901   0.522 -0.0041 -0.0937 -0.0440
18732W        W34916   5.474  18.454   5.216  0.2142 -0.0335 -0.3517
18733W        W34917   4.026   3.807   0.781 -0.0119  0.1281 -0.1409
18734W        W34918   8.135  10.089  13.491  0.0870  0.0614  0.1520
18735W        W34919  14.069   4.050   5.400  0.3274  0.2369  0.1743
18736W        W34920  15.711   3.345  13.948 -0.2997  0.2604 -0.2852
18737W        W34921   0.460   8.910  14.511 -0.3497 -0.1486 -0.2194
18738W        W34922   0.867   5.897   4.466 -0.0522  0.4031 -0.0084
18739W        W34923   7.316  16.796  14.812  0.3244 -0.0454 -0.2859
18740W        W34924   4.491  11.139   0.243  0.0540  0.1530 -0.0514
18741W        W34925   1.303  16.137   3.529 -0.0150  0.2791 -0.2312
18742W        W34926   8.585  18.745  12.414  0.0183  0.0955 -0.4423
18743W        W34927  17.575  17.970   0.089  0.1061 -0.1351  0.0102
18744W        W34928  12.932   0.969   9.959 -0.1731 -0.1981 -0.2377
18745W        W34929  14.557  10.056  12.561  0.0209 -0.1013 -0.0090
18746W        W34930  10.427  15.908   4.804 -0.0108 -0.0243  0.0881
18747W        W34931  16.905  11.271  12.590 -0.1366  0.0526  0.0249
18748W        W34932  13.645  18.116  15.155 -0.1493 -0.0394  0.0477
18749W        W34933  13.320  10.825   1.912 -0.2290  0.1247 -0.0146
18750W        W34934  13.556  16.876   4.467 -0.0451 -0.0107 -0.1246
18751W        W34935   9.177   1.251  12.488 -0.3357  0.4056 -0.0756
18752W        W34936  15.178  17.642   4.663 -0.0971 -0.0138 -0.0961
18753W        W34937   1.253  14.140   2.129 -0.1059  0.2996  0.0861
18754W        W34938  15.203   4.611  14.649 -0.1271 -0.2466  0.0497
18755W        W34939  18.382   3.264   2.567  0.1414 -0.1076 -0.2551
18756W        W34940  11.976   3.738  14.588 -0.1034 -0.3334 -0.3294
18757W        W34941  12.825   4.724   3.176  0.1789  0.1521 -0.0797
18758W        W34942   0.385   3.859  14.401  0.3330  0.0257 -0.1138
18759W        W34943  13.422   1.921  10.746  0.2583 -0.1388  0.3108
18760W        W34944  14.769   3.563   1.895  0.1425 -0.0758 -0.2348
18761W        W34945   9.808  14.776   1.089 -0.3914  0.0711 -0.3763
18762W        W34946   6.230   2.533  15.238  0.1678 -0.3563 -0.1974
18763W        W34947  13.913   4.326  15.057  0.2855 -0.1119  0.1240
18764W        W34948  18.337   9.101  14.731  0.1863  0.1912  0.0104
18765W        W34949   4.426  13.341  12.245 -0.1356  0.3440  0.0629
18766W        W34950   4.307   1.428   4.330 -0.2213 -0.2222 -0.2680
18767W        W34951  15.476   9.175   3.659 -0.2641 -0.1252  0.2090
18768W        W34952   5.958   8.272   1.614 -0.3753  0.0201  0.1151
18769W        W34953   9.293   8.696  11.435  0.0107 -0.0028 -0.0582
18770W        W34954   5.065   6.324  13.839 -0.1641 -0.1825 -0.2197
18771W        W34955   6.812   0.196   0.415  0.1321  0.0245 -0.2123
18772W        W34956  14.923  10.523  11.369  0.3136  0.0959 -0.1113
18773W        W34957   0.748   2.597  14.602 -0.0402 -0.0294 -0.1890
18774W        W34958   4.982  10.188  13.357  0.1021  0.1276 -0.5654
18775W        W34959  17.732   0.022  14.561  0.2396 -0.1849 -0.0991
18776W        W34960  13.086  11.426  14.430  0.1555 -0.0076  0.0431
18777W        W34961  12.407   9.888   2.049 -0.0368 -0.0947 -0.0759
18778W        W34962  12.905  10.751   4.815  0.0327 -0.0059  0.1015
18779W        W34963  15.977   6.983  11.245 -0.2965 -0.0391  0.0966
18780W        W34964   0.939   0.260  12.628  0.2656 -0.0046  0.3109
18781W        W34965  10.143  12.362   0.478  0.1487 -0.2218 -0.0822
18782W        W34966  14.354  15.614   1.967 -0.1270  0.1193  0.4258
18783W        W34967  18.589   0.366  13.682  0.0216 -0.0519  0.1054
18784W        W34968  12.775  10.921  11.807 -0.2266 -0.0892  0.0584
18785W        W34969   3.098   6.754   4.774 -0.1893 -0.2672 -0.0716
18786W        W34970   5.322  15.204  15.365 -0.1829 -0.3308  0.1786
18787W        W34971   0.829  13.840   4.099 -0.0235  0.1495 -0.1432
18788W        W34972   5.483  11.283   2.475  0.2041 -0.0053  0.1196
18789W        W34973  14.702   0.133   1.253 -0.3527  0.2049 -0.1249
18790W        W34974   1.538   9.416  10.735  0.0204  0.0948 -0.3246
18791W        W34975   3.312   1.036   2.431  0.2401 -0.0111 -0.1950
18792W        W34976  12.134   5.194  14.308  0.2035  0.2594 -0.2179
18793W        W34977  16.634   1.962  13.260 -0.3169  0.2205 -0.5331
18794W        W34978   4.294   7.412  11.677  0.2930  0.0405  0.0530
18795W        W34979   5.507   3.223  12.567  0.1911 -0.1949  0.0410
18796W        W34980   9.766   6.270  12.128 -0.1309 -0.1108  0.3411
18797W        W34981  16.683   8.959   0.492 -0.1843  0.1254  0.2985
18798W        W34982  13.033   6.048   5.188 -0.0013 -0.0679  0.0255
18799W        W34983   1.625   3.055   3.442 -0.0265  0.0471  0.1177
18800W        W34984  16.662  11.717   0.312  0.2187  0.0913  0.0829
18801W        W34985  13.145  17.199   2.309  0.2699 -0.1396  0.3759
18802W        W34986   7.025   0.183  11.626  0.0300  0.1536 -0.0320
18803W        W34987   4.120   3.089  10.851 -0.0819  0.1011 -0.1237
18804W        W34988   2.729   0.658  11.793 -0.0212  0.3564 -0.2095
18805W        W34989   1.158  11.837   5.154  0.1107  0.1351 -0.0956
18806W        W34990   9.401  10.674   1.360 -0.2702  0.0076 -0.0356
18807W        W34991  18.698  10.897  11.894 -0.4018 -0.1330  0.1914
18808W        W34992  18.387  12.807  12.927 -0.0928 -0.1796 -0.3010
18809W        W34993  18.646  12.178  14.042 -0.1078  0.3934 -0.4287
18810W        W34994  15.643   1.634   0.116  0.0415 -0.0183 -0.0373
18811W        W34995   1.102  12.443  11.649 -0.2345 -0.0975  0.2297
18812W        W34996  15.065   5.423   2.053  0.0857 -0.0329  0.1637
18813W        W34997   3.291   8.419   4.803  0.0109 -0.1366  0.1054
18814W        W34998  11.941  18.404   5.228  0.0161  0.0852 -0.0813
18815W        W34999  18.450   3.004   1.167 -0.1464  0.3731 -0.2789
18816W        W35000   6.723  10.167   2.801  0.1314  0.1977  0.1205
18817W        W35001  12.181   2.856   0.793 -0.0931 -0.1580  0.2154
18818W        W35002  10.795  12.404  13.621  0.1056 -0.1154  0.1939
18819W        W35003   2.403  18.669   4.519  0.1741  0.3500 -0.2656
18820W        W35004   9.963  14.656   1.665  0.1159  0.2201 -0.0441
18821W        W35005  11.143  15.198   9.879  0.2882  0.1723 -0.1726
18822W        W35006   7.977   2.926   3.816  0.1187  0.1313  0.0885
18823W        W35007   2.227   0.366   0.059 -0.0740 -0.1196  0.1312
18824W        W35008   6.867   1.994   0.015  0.2098  0.1157  0.0352
18825W        W35009   4.144   8.222  15.111 -0.0305 -0.0782 -0.2979
18826W        W35010   3.796   0.657   4.251  0.1856 -0.0887  0.0547
18827W        W35011  12.109  12.378   2.915 -0.1872 -0.0910 -0.0378
18828W        W35012   0.056  14.035  15.495  0.3566 -0.0268 -0.0886
18829W        W35013  15.340  18.059   4.307  0.0276 -0.1138 -0.0504
18830W        W35014  14.589  13.760  10.910 -0.0960 -0.2053 -0.2722
18831W        W35015  12.205   4.860  10.846 -0.1116 -0.1796 -0.3099
18832W        W35016   8.596  11.477   4.790 -0.2775  0.1383  0.0145
18833W        W35017   2.961  14.867  11.405  0.1881  0.1623 -0.0716
18834W        W35018   0.865   9.068  11.953  0.0561  0.2145 -0.2417
18835W        W35019  15.339   4.034  13.574  0.1583  0.3306 -0.1082
18836W        W35020   8.200  10.087   1.798 -0.1365 -0.0818 -0.2088
18837W        W35021  18.029  17.550  14.564  0.1132 -0.0217 -0.0110
18838W        W35022  15.793   8.624  14.812 -0.1307  0.1068 -0.0634
18839W        W35023   3.710   6.882  12.407  0.0100  0.1137 -0.3452
18840W        W35024   8.900  12.251  10.706  0.1311 -0.2987 -0.4756
18841W        W35025  11.096   8.675   1.466 -0.0059  0.0568  0.4715
18842W        W35026  10.553  16.885  15.320  0.1810 -0.0616 -0.1703
18843W        W35027  15.149  14.420  12.225 -0.0356  0.2318  0.0025
18844W        W35028  17.037  16.221   2.811  0.3054  0.0194  0.0038
18845W        W35029  17.614   2.594   1.145 -0.0429  0.1024  0.0325
18846W        W35030  14.266  12.970  10.811 -0.2821 -0.0156  0.0002
18847W        W35031  13.072   4.320   0.962  0.3338  0.0923  0.4259
18848W        W35032   6.825  11.283  14.068 -0.2586  0.2828  0.0723
18849W        W35033   6.175   6.653  14.288  0.4238  0.1704 -0.4107
18850W        W35034  16.076   1.784  10.257  0.0105 -0.2435 -0.0071
18851W        W35035  16.351   7.610  13.041 -0.0694  0.2239 -0.0004
18852W        W35036   1.531  15.230  12.992  0.0386  0.1339  0.0090
18853W        W35037   0.135  16.525   9.873 -0.0682  0.2144 -0.2255
18854W        W35038  15.512  11.204  12.219  0.0591 -0.0982 -0.0882
18855W        W35039   9.504   4.765   3.608  0.0356  0.1502 -0.1085
18856W        W35040   3.403   6.507  12.221 -0.4442 -0.0421 -0.0366
18857W        W35041   3.791   8.911  11.910 -0.1664  0.0297 -0.1065
18858W        W35042   5.574  10.286  10.562 -0.0635 -0.3730 -0.0492
18859W        W35043   3.175  16.495   3.082 -0.2972 -0.2676 -0.1814
18860W        W35044   1.446  16.444   4.646 -0.3392 -0.0000 -0.1630
18861W        W35045  13.990  14.896   3.330  0.0717 -0.0159 -0.1327
18862W        W35046   8.046   1.037   0.108 -0.0632 -0.0274 -0.0689
18863W        W35047   9.528  14.491  12.620  0.1118 -0.1584 -0.4873
18864W        W35048  12.834   0.338  14.886 -0.0438 -0.1512 -0.0605
18865W        W35049  13.622   1.524  15.228  0.2622  0.1227 -0.1298
18866W        W35050   8.825   0.288   5.988  0.1432 -0.0263 -0.0505
18867W        W35051   0.255   0.622  15.510 -0.1439 -0.1066  0.0013
18868W        W35052   1.376  16.129   5.067 -0.2204 -0.0623  0.0198
18869W        W35053   3.303  16.965  14.218 -0.1267  0.1317  0.1798
18870W        W35054   4.820   3.922  10.839  0.2800 -0.0514 -0.2870
18871W        W35055   7.167   6.247  12.002  0.2526  0.1576 -0.1520
18872W        W35056   7.547  17.292   1.956 -0.2242 -0.1954 -0.5291
18873W        W35057  15.776  11.131  12.795 -0.2675  0.3805  0.1613
18874W        W35058   0.149  14.153   4.307  0.2225 -0.1072  0.1586
18875W        W35059  18.302  18.334   2.776  0.1025 -0.0549 -0.0955
18876W        W35060   8.173   0.463   2.918  0.1681  0.3924  0.2668
18877W        W35061   6.824   7.071   4.175 -0.1026 -0.1614 -0.0828
18878W        W35062   1.951  13.396  14.386  0.0627  0.0511 -0.2231
18879W        W35063  15.769   0.697  14.426 -0.1730 -0.0851  0.0213
18880W        W35064   4.007  17.493  10.777  0.3452 -0.3523 -0.1914
18881W        W35065   9.461  17.156   2.518 -0.0252 -0.1130  0.1186
18882W        W35066  14.764   8.916  13.879 -0.1697 -0.1075 -0.0397
18883W        W35067   6.808   8.560   0.849  0.1623 -0.0445 -0.4923
18884W        W35068  15.662   5.879   1.443  0.2744 -0.0791 -0.0107
18885W        W35069   8.465   0.776   0.226 -0.0452  0.3172 -0.0061
18886W        W35070  16.345   7.441   2.308 -0.1993  0.0773 -0.0783
18887W        W35071  16.217  13.968  12.646 -0.0106 -0.0234  0.0707
18888W        W35072  11.421   1.387   4.179 -0.0655 -0.4096 -0.1156
18889W        W35073  11.722   2.048   3.480 -0.0816 -0.2304 -0.1533
18890W        W35074   2.703   1.917   0.456  0.1655  0.2195 -0.0993
18891W        W35075   8.833  17.515  14.251 -0.2115  0.1214 -0.1671
18892W        W35076   8.097  10.106   2.322  0.0604 -0.1896  0.0801
18893W        W35077   3.171   3.271  13.841  0.2926  0.1272 -0.1025
18894W        W35078   2.936   0.205  11.542  0.1939 -0.0428 -0.0815
18895W        W35079   5.559   0.124   0.800 -0.1269 -0.1248  0.0720
18896W        W35080   2.347   1.387  10.738 -0.4016 -0.0572 -0.1159
18897W        W35081   2.993   8.563  13.206  0.0073 -0.3606  0.3818
18898W        W35082   9.976  13.545  14.021  0.1316 -0.2284 -0.0380
18899W        W35083   0.674  15.178   1.675 -0.1565  0.3067 -0.2954
18900W        W35084   3.766   8.149   3.554 -0.3513  0.2729  0.1190
18901W        W35085   8.512  18.468  14.975 -0.0959 -0.1882  0.1013
18902W        W35086  10.043  17.946  11.025  0.2222 -0.1233 -0.2597
18903W        W35087  12.238   1.438   3.170 -0.1290  0.3457 -0.0340
18904W        W35088  17.394   7.184   4.462 -0.0396  0.0528 -0.0323
18905W        W35089   7.524   8.880   3.226  0.0219  0.1058  0.2354
18906W        W35090  14.764   1.841   1.159 -0.1124  0.0159  0.1332
18907W        W35091   8.105   6.489  12.018 -0.0712 -0.1485  0.0536
18908W        W35092  11.803  16.003   0.118  0.0592  0.2759  0.1590
18909W        W35093  13.167  16.852  11.005  0.0820 -0.0395  0.0571
18910W        W35094  12.935  14.251   3.262  0.0222 -0.1505  0.0309
18911W        W35095  16.304  14.363  13.812 -0.3755  0.2751  0.0630
18912W        W35096  16.562  18.527   4.256 -0.0212 -0.0496 -0.0678
18913W        W35097   7.762  14.823  14.752  0.5024  0.0076 -0.0837
18914W        W35098   7.230   7.801   4.465 -0.1570 -0.0265 -0.1147
18915W        W35099   9.284  14.110  13.904  0.0535 -0.0468  0.0811
18916W        W35100  15.232   4.013   0.027  0.1435 -0.3671  0.0379
18917W        W35101   4.114   0.534  11.324 -0.1490  0.0710 -0.0301
18918W        W35102  11.160   0.561   4.781  0.0839  0.3473 -0.3939
18919W        W35103  17.175   8.170  10.344 -0.0662  0.2417 -0.1804
18920W        W35104   8.312   7.053   1.253  0.1161  0.0862  0.1923
18921W        W35105   0.806  13.792   1.134 -0.1600  0.0006 -0.0538
18922W        W35106  17.284   8.377   5.723 -0.2053  0.0379 -0.2801
18923W        W35107  18.741   3.420   4.363 -0.1518  0.0664  0.1035
18924W        W35108   8.945  15.284   5.412 -0.1114  0.3156 -0.0199
18925W        W35109   4.572  17.594  12.536  0.0713 -0.0587  0.3148
18926W        W35110  18.395  17.763   2.910  0.0106 -0.0192  0.0056
18927W        W35111  12.321  18.238   5.667 -0.0635  0.0141 -0.3945
18928W        W35112   2.212  15.260  12.350 -0.2174  0.0847  0.0737
18929W        W35113  18.095  14.339   4.570 -0.0458 -0.3693 -0.0060
18930W        W35114   0.246   8.564   4.905 -0.3556 -0.2669 -0.0893
18931W        W35115   9.566   1.667  11.764  0.0741 -0.3826  0.0656
18932W        W35116  13.569  12.686   4.981  0.1728 -0.1690 -0.0306
18933W        W35117   9.223  16.989  15.070 -0.0141 -0.0584  0.0837
18934W        W35118   0.219  13.155   2.650 -0.2646  0.0364 -0.3971
18935W        W35119  10.631   0.751  11.300 -0.1434  0.1870 -0.0120
18936W        W35120   1.868   1.787  13.344  0.1075 -0.0959  0.1678
18937W        W35121  11.690   1.321  13.964  0.0880  0.0645 -0.1270
18938W        W35122  10.150   3.188  15.480 -0.0051  0.0516  0.1104
18939W        W35123   3.128   5.591  12.602  0.0131 -0.0964  0.2317
18940W        W35124   5.513   2.118  10.433 -0.1012 -0.0858 -0.0641
18941W        W35125  17.595  11.245   1.823 -0.0542  0.2134  0.2439
18942W        W35126  17.523   4.856  13.677  0.0582  0.0961  0.3176
18943W        W35127  15.284  11.463  11.837  0.0369  0.0113 -0.1438
18944W        W35128  13.634   6.317  13.128  0.0112  0.3856 -0.0518
18945W        W35129   9.662   2.559   3.400 -0.3231 -0.1891 -0.4657
18946W        W35130  18.250  14.318  11.269  0.2218 -0.1935  0.1317
18947W        W35131  15.099   9.160  15.394  0.2322  0.0759 -0.0208
18948W        W35132  17.798  18.425  14.229 -0.0522  0.3335 -0.2036
18949W        W35133   6.513   1.567  12.000  0.2690 -0.0687 -0.0445
18950W        W35134   5.482  15.409  13.024 -0.1525 -0.2921 -0.0851
18951W        W35135  12.876   6.588  12.553  0.2353 -0.0160 -0.1267
18952W        W35136  13.122   1.929  10.245 -0.3712 -0.2405  0.2817
18953W        W35137   1.067  18.122  13.051  0.2509  0.0169 -0.1530
18954W        W35138   0.645  15.605  11.230 -0.2631 -0.3016 -0.1783
18955W        W35139  10.323   4.480   1.804  0.1727  0.0665 -0.0463
18956W        W35140  11.543   8.714  15.178  0.2099 -0.1108  0.0615
18957W        W35141   4.746   6.542  11.609 -0.0231  0.1648 -0.0948
18958W        W35142   2.652  11.481   0.426  0.0800 -0.1541 -0.2588
18959W        W35143  15.755   8.606   0.463  0.0994  0.1855 -0.1444
18960W        W35144  10.750   4.635   0.709  0.1213 -0.0212 -0.0968
18961W        W35145   9.868   5.966  10.450  0.0053 -0.1378 -0.2374
18962W        W35146   1.739   1.341  13.191  0.4417  0.2972  0.1773
18963W        W35147   5.677   5.827  12.128 -0.0095  0.0093  0.1708
18964W        W35148   4.362   6.126   4.612  0.1609  0.1658  0.3216
18965W        W35149   4.804  11.737  11.614 -0.1608  0.2469 -0.1702
18966W        W35150   8.356  15.701  13.372  0.1608 -0.1795  0.2380
18967W        W35151  12.544  12.558   4.764  0.0887  0.1917  0.0323
18968W        W35152   9.982  12.180  12.600  0.0943  0.2278 -0.1515
18969W        W35153   4.353  15.788  10.951 -0.2232  0.0526  0.1372
18970W        W35154   5.584  10.985  14.934  0.2302  0.0341 -0.1853
18971W        W35155   1.729   8.115   4.210 -0.0824  0.2224 -0.0003
18972W        W35156   8.053   1.599   4.858 -0.0475 -0.3824 -0.3303
18973W        W35157   0.276   9.684   2.416 -0.3310  0.1815  0.2609
18974W        W35158   0.774  12.393  14.498  0.1123  0.2333  0.3992
18975W        W35159   2.544  10.230  14.836  0.4381 -0.2267 -0.0163
18976W        W35160   7.223  18.114  14.660 -0.0589 -0.1349 -0.1970
18977W        W35161   0.525   6.594   5.644  0.5142 -0.1420 -0.0719
18978W        W35162   7.223   5.972   2.156  0.2357  0.2452  0.0255
18979W        W35163   4.420  13.812  11.485 -0.3858  0.3444  0.2764
18980W        W35164  10.739   5.776   3.911  0.2582  0.1298  0.1477
18981W        W35165  17.825  12.620   3.571  0.0499  0.0432  0.1837
18982W        W35166  10.990   4.419   3.416 -0.0484  0.1179 -0.1286
18983W        W35167   4.218  14.102  13.383 -0.0908  0.0144  0.0860
18984W        W35168   2.010  16.262  14.509  0.0237  0.1298  0.0884
18985W        W35169  12.749   9.452   0.829 -0.1298 -0.1217  0.1393
18986W        W35170   2.207  17.701   9.690  0.1179  0.0432 -0.1182
18987W        W35171   3.746  10.282  12.992  0.1177 -0.2415  0.1926
18988W        W35172   9.699   3.614   1.037 -0.0276 -0.3895  0.4092
18989W        W35173   9.849   5.117  15.432 -0.0857  0.2034 -0.2933
18990W        W35174   0.877   6.240  12.406 -0.2039  0.0785  0.2888
18991W        W35175   9.455   5.361  13.601 -0.0825  0.0524  0.1012
18992W        W35176   5.062  14.302  11.819  0.3545 -0.1217 -0.1333
18993W        W35177   4.404   0.915   4.397  0.0878  0.2083  0.1622
18994W        W35178   2.975  10.873  14.163  0.0785  0.2412  0.4280
18995W        W35179   4.150  18.083  14.118  0.4637 -0.0404  0.0961
18996W        W35180   5.085   5.688  10.397 -0.1678  0.2253 -0.2121
18997W        W35181   5.635   9.114  13.910  0.2495 -0.3840 -0.3721
18998W        W35182  15.431  11.299   2.336  0.4891  0.2224  0.1807
18999W        W35183  17.684   7.110   4.849 -0.2422 -0.2310 -0.0057
19000W        W35184   3.022  13.076  13.484 -0.1590 -0.1699 -0.2343
19001W        W35185   2.025   2.918  13.354  0.1962  0.1941 -0.1335
19002W        W35186  11.855  12.509  13.567 -0.1030 -0.0401  0.2407
19003W        W35187  17.938   9.687  12.868 -0.1592 -0.1876  0.1429
19004W        W35188   3.168  14.576  13.323  0.1168  0.0240  0.2132
19005W        W35189   3.054  14.279   4.705  0.0702 -0.1638 -0.0689
19006W        W35190  14.865   0.372   1.609  0.0692  0.0591 -0.3717
19007W        W35191   2.434   7.195   0.271 -0.1143  0.2272  0.2421
19008W        W35192   7.174   0.183   0.020  0.1937  0.1162 -0.2305
19009W        W35193   5.438  16.810  11.375  0.2956 -0.2183 -0.0955
19010W        W35194  10.300   1.812  11.993 -0.0135  0.0139  0.5870
19011W        W35195   5.852   2.747  13.366 -0.2396 -0.0975  0.0150
19012W        W35196   8.744   5.308   4.936 -0.2647  0.1017 -0.0549
19013W        W35197   4.515  12.217  14.874 -0.0557 -0.4613 -0.1548
19014W        W35198   3.308   2.995  15.317  0.0531 -0.1348 -0.0220
19015W        W35199  16.565  16.696  11.776 -0.2144  0.1337 -0.4771
19016W        W35200  16.632   1.433  11.538  0.0644  0.1957  0.1911
19017W        W35201  18.825   4.269  13.219 -0.1656  0.0353 -0.0206
19018W        W35202  14.380   1.675   0.371 -0.1618 -0.4157  0.2723
19019W        W35203  17.351   3.631   2.430  0.1301 -0.1570 -0.0454
19020W        W35204   9.408  12.753  10.915 -0.0180 -0.0938  0.3742
19021W        W35205   3.255   6.358   0.101 -0.2708 -0.2059  0.5252
19022W        W35206   6.405  15.644  15.360 -0.0525 -0.0226  0.0521
19023W        W35207   4.749   9.855   3.948 -0.2268 -0.2714 -0.0939
19024W        W35208   7.286  10.165   3.814  0.1146 -0.4423  0.0036
19025W        W35209  18.628  13.163   1.840 -0.1006 -0.1578  0.2409
19026W        W35210  14.667   5.511   1.690  0.1179 -0.1170  0.0386
19027W        W35211   5.142   8.206   3.375 -0.0638 -0.1160 -0.0031
19028W        W35212  11.674  11.853  11.266  0.1654 -0.2052  0.2294
19029W        W35213   0.577   8.667   3.129  0.2334 -0.0035  0.1108
19030W        W35214   4.796   5.398   1.993 -0.0672 -0.0287 -0.1959
19031W        W35215   1.463   1.177   4.422  0.1555 -0.0361 -0.0296
19032W        W35216   5.380   9.965   1.952 -0.2908  0.2718  0.1294
19033W        W35217   0.102  13.859  12.261 -0.3300 -0.4594  0.0904
19034W        W35218  14.538   6.188  13.342 -0.0276  0.3130 -0.1439
19035W        W35219  13.536  17.698  12.125  0.2675  0.0326 -0.0057
19036W        W35220  17.822   3.981  10.617 -0.0795  0.4523  0.1139
19037W        W35221   6.482  12.944  15.327  0.1316 -0.0874 -0.1413
19038W        W35222  12.599   8.827  13.899  0.4325  0.2204 -0.0173
19039W        W35223   0.276   6.341  14.929 -0.2683  0.1925 -0.2603
19040W        W35224  10.681  10.200   2.118  0.1797 -0.0865 -0.1390
19041W        W35225  14.003  10.728  12.140  0.2040  0.1054 -0.2077
19042W        W35226  14.207  17.287  14.581 -0.0906 -0.1450  0.0392
19043W        W35227  17.808   8.797  11.864  0.1861  0.3934  0.0617
19044W        W35228  17.035  18.638  11.718 -0.1039 -0.2373  0.0649
19045W        W35229   7.956   5.326   3.237  0.0931  0.0207 -0.2623
19046W        W35230   2.888  18.241   3.644  0.3090 -0.2425 -0.2026
19047W        W35231  16.083  15.239  13.213 -0.0910 -0.1026  0.0700
19048W        W35232  13.280   2.603  15.425  0.2478  0.2471 -0.2129
19049W        W35233   7.841  15.652   0.126 -0.2010 -0.3476  0.3436
19050W        W35234  18.764   6.860   4.460 -0.1777 -0.0017  0.2059
19051W        W35235   4.511   7.365  14.494 -0.3040 -0.5070 -0.2979
19052W        W35236  10.543   8.744  13.938 -0.0061 -0.0803  0.1680
19053W        W35237  16.696   5.545   0.362  0.0964 -0.0484  0.1456
19054W        W35238   9.297  13.920   1.279 -0.1931  0.1985  0.0691
19055W        W35239  13.235   1.093   4.561 -0.3229 -0.1709  0.0625
19056W        W35240   3.120   9.968   0.388  0.1296  0.0084  0.2718
19057W        W35241  13.327   3.999   4.621 -0.0432  0.4353  0.0702
19058W        W35242   0.012  17.515  10.970 -0.3875  0.0508 -0.0211
19059W        W35243   7.397   9.958  10.352 -0.0685 -0.0521 -0.0208
19060W        W35244   1.377   1.009  14.154  0.0825 -0.2249  0.2640
19061W        W35245  10.789  14.632  12.507 -0.1487 -0.1347  0.0230
19062W        W35246   3.412   1.672   3.782  0.0121 -0.0493  0.1191
19063W        W35247  18.620   6.288  14.938 -0.1406 -0.1178 -0.0130
19064W        W35248  10.245  16.042   1.266 -0.0486  0.2797 -0.2184
19065W        W35249   4.336   9.458  13.618  0.0894 -0.0094  0.1090
19066W        W35250   1.418   9.894   4.958  0.1235 -0.3170  0.1222
19067W        W35251  18.794  11.453  11.856  0.0727 -0.1741 -0.1181
19068W        W35252   1.915  14.526   1.805 -0.1947  0.0236 -0.3595
19069W        W35253   3.756   8.452   1.071 -0.1154  0.0285  0.1677
19070W        W35254  12.253  11.461   0.818  0.0106 -0.0883 -0.2450
19071W        W35255  13.017  12.465   2.362 -0.3680  0.1470  0.0537
19072W        W35256  10.623   5.167   0.887  0.0562  0.1228 -0.1096
19073W        W35257   7.046   9.086  13.506 -0.1468  0.0568 -0.2552
19074W        W35258  13.593   5.731  13.005  0.1423 -0.2574 -0.0697
19075W        W35259  10.669   9.362  14.510  0.0671 -0.1099  0.0055
19076W        W35260  17.368   5.049   3.617  0.0745  0.1205 -0.1447
19077W        W35261   4.665   9.297   2.193  0.0023 -0.0768  0.3021
19078W        W35262  17.307  16.836  14.039 -0.1448  0.0959  0.0980
19079W        W35263   4.055  13.701   5.178  0.1110 -0.2773 -0.0285
19080W        W35264   0.506   4.504  11.328  0.2178  0.0037 -0.2987
19081W        W35265  16.322  14.779  15.290 -0.0224 -0.0923  0.1241
19082W        W35266  15.682   7.557  12.484 -0.4162  0.1395 -0.0123
19083W        W35267   9.881  11.571   0.447 -0.0095 -0.2544 -0.2424
19084W        W35268   5.997   3.373   3.377 -0.2136  0.0869 -0.0123
19085W        W35269   5.738   5.052   5.945  0.0927 -0.1506  0.1491
19086W        W35270  16.307  17.855  11.848  0.1149  0.1293  0.0646
19087W        W35271  17.891  14.304  13.027  0.1495  0.2882 -0.1899
19088W        W35272   2.619   1.908  14.716  0.3720 -0.0546  0.1861
19089W        W35273   7.096   1.220  10.933 -0.0311 -0.0988  0.2245
19090W        W35274  12.953   6.460   2.097  0.1364  0.1559  0.0270
19091W        W35275  11.844   5.003   4.096  0.1946 -0.0902  0.2262
19092W        W35276   7.650  15.776   2.995  0.0430 -0.0425  0.0545
19093W        W35277   9.726   0.591  13.912 -0.2615  0.2313 -0.0902
19094W        W35278   6.638   7.808   2.459  0.0535  0.0662 -0.2277
19095W        W35279   6.478   6.385   1.222  0.0631  0.1057  0.1848
19096W        W35280  15.964   9.071  14.943 -0.2258 -0.1422 -0.2022
19097W        W35281   8.859   6.316   4.956 -0.3944  0.2134  0.2038
19098W        W35282   2.943   3.072   1.023  0.0458  0.0886  0.1590
19099W        W35283   9.911   8.937  14.469  0.0008  0.1063 -0.1745
19100W        W35284   2.013   6.426   0.069  0.3206 -0.0993  0.1256
19101W        W35285  18.839  18.301   2.162 -0.2861 -0.0070  0.0947
19102W        W35286   4.543  15.940  13.961  0.3222  0.0153 -0.2051
19103W        W35287  18.128  15.754   0.853 -0.0841  0.1267  0.2458
19104W        W35288  15.763   1.354   3.929  0.1006  0.2395 -0.0799
19105W        W35289  10.667   8.021   2.912  0.1380 -0.2471  0.1581
19106W        W35290  10.252   3.795   2.491 -0.4349 -0.0776 -0.1325
19107W        W35291  10.244   1.099   5.160 -0.0620 -0.4849 -0.2318
19108W        W35292   5.527   1.587  11.580  0.0371 -0.0570  0.3081
19109W        W35293   2.755  13.746  14.083  0.1561 -0.0118  0.0513
19110W        W35294   2.924  10.531  13.678  0.1463  0.0122 -0.3592
19111W        W35295   5.481   9.886   1.239 -0.2030  0.1001  0.0808
19112W        W35296   7.739   1.235  14.049  0.5584  0.2706 -0.1422
19113W        W35297  16.053   9.682   4.820 -0.1973  0.1115  0.2695
19114W        W35298  13.214   3.351  11.244 -0.0974  0.1224 -0.2928
19115W        W35299  16.965   9.919  10.291  0.0739 -0.0305  0.0506
19116W        W35300  18.848   2.378   1.819 -0.0197  0.0114  0.1725
19117W        W35301   1.108   5.258   3.601  0.6079  0.2351  0.0416
19118W        W35302   4.694   3.860   2.837 -0.0845 -0.1630 -0.1712
19119W        W35303   1.782   9.207  10.376 -0.0873  0.0685 -0.1454
19120W        W35304  17.482   2.875   1.513 -0.0460  0.0950 -0.2272
19121W        W35305   2.434   6.924   1.185 -0.0082 -0.1760  0.0742
19122W        W35306  18.318   1.722  11.274 -0.4071  0.0036 -0.2609
19123W        W35307  17.694  15.279  14.678  0.1460 -0.2187 -0.1195
19124W        W35308  14.632   2.753  11.357 -0.2442 -0.0732 -0.0152
19125W        W35309  17.702  10.796  13.064 -0.0958  0.2102  0.4050
19126W        W35310   3.240   0.615  12.816 -0.1967  0.0313 -0.0960
19127W        W35311  15.486  10.519  10.501  0.0999 -0.1987 -0.2299
19128W        W35312   5.732  18.542   1.467 -0.2684  0.3064 -0.0919
19129W        W35313   3.800  14.381   2.374  0.5672  0.2116 -0.1424
19130W        W35314  11.787   6.360   0.002 -0.3024  0.1067 -0.0614
19131W        W35315   2.438  12.324   3.718 -0.1494 -0.1348  0.5368
19132W        W35316   8.496   2.188  14.795 -0.1470  0.1340  0.2729
19133W        W35317   2.018   0.017  13.095  0.4086 -0.1822  0.4365
19134W        W35318  11.310  16.495  14.136  0.0437 -0.2721  0.0387
19135W        W35319  14.447   4.519   0.715 -0.1640 -0.0872 -0.0893
19136W        W35320   7.086  17.118   1.834 -0.0319  0.1705 -0.0939
19137W        W35321   2.904  16.339   1.512 -0.0045  0.1010 -0.0790
19138W        W35322   4.692  14.269   3.083 -0.0498  0.1752 -0.0073
19139W        W35323   0.972  14.174   3.049  0.2217 -0.0632 -0.2176
19140W        W35324   5.988  10.360   4.875  0.1320 -0.4584 -0.3715
19141W        W35325  11.337  10.665   5.225  0.1866 -0.0005 -0.1782
19142W        W35326  12.795  14.692  11.878 -0.0916 -0.1046  0.2012
19143W        W35327  13.643   9.508  13.355  0.3038  0.1190 -0.0875
19144W        W35328   4.501  17.089  12.774 -0.0970  0.4607  0.0899
19145W        W35329   5.031  17.416   1.347  0.1133 -0.2981 -0.1465
19146W        W35330  14.976   8.616   4.410 -0.0789  0.2064  0.0399
19147W        W35331   8.237  12.251   1.972  0.1358 -0.4348 -0.0781
19148W        W35332  16.606  10.784  12.812  0.0835 -0.0180  0.0427
19149W        W35333  16.695   2.089  15.484 -0.3454 -0.2575 -0.1691
19150W        W35334   2.641   7.917   5.188 -0.0084 -0.0295 -0.1916
19151W        W35335  16.463  17.677   3.193 -0.0739  0.2758  0.2737
19152W        W35336  15.219  10.448   0.910  0.2667 -0.2683 -0.0826
19153W        W35337   8.399  17.360  15.335 -0.1270 -0.0493 -0.1041
19154W        W35338  10.984   2.561   4.984  0.2735 -0.0071 -0.4244
19155W        W35339  15.676  10.931  11.204  0.1011 -0.0682 -0.2186
19156W        W35340  14.043   0.291  13.056 -0.5097 -0.2363  0.0562
19157W        W35341   9.736   8.789   1.990 -0.2462 -0.0105 -0.0879
19158W        W35342   5.389  15.965   3.141 -0.1036 -0.0462  0.1717
19159W        W35343   2.364  13.245  14.669  0.0955  0.4681 -0.0288
19160W        W35344  16.568  12.971   2.743  0.0925  0.1284  0.0301
19161W        W35345   2.719  15.142  12.231  0.0308  0.0808 -0.0265
19162W        W35346   7.105   6.105  13.769 -0.1507 -0.0286  0.3331
19163W        W35347   5.313   2.775  12.558 -0.0626 -0.0096  0.0044
19164W        W35348  10.981  16.150  12.188  0.1779  0.1198 -0.2263
19165W        W35349  17.139   4.021   2.823 -0.1730  0.3589  0.0168
19166W        W35350   5.834   0.082  11.910 -0.0641 -0.1329  0.2080
19167W        W35351   6.264   6.551  11.903 -0.0754  0.3486 -0.1949
19168W        W35352   7.122   2.533   0.242  0.2136  0.1136 -0.0260
19169W        W35353   6.335  14.585   1.925  0.0202 -0.0629 -0.0886
19170W        W35354  18.105   5.799  13.848 -0.0851  0.1010 -0.2345
19171W        W35355   1.380   5.039   1.072 -0.1111  0.0812 -0.0508
19172W        W35356  14.939   7.318   3.731 -0.0389 -0.1881  0.1391
19173W        W35357   8.256  18.555  11.989 -0.0858 -0.0606 -0.1399
19174W        W35358  12.143   4.579   0.169  0.2451  0.1295  0.2704
19175W        W35359  12.377  12.723  12.604 -0.0118  0.1809  0.1838
19176W        W35360  16.749   8.613  11.998 -0.0000 -0.1173  0.2889
19177W        W35361   3.981   8.551  10.647 -0.3227  0.0001 -0.1014
19178W        W35362  12.721   6.580  14.102 -0.1805  0.0380  0.1614
19179W        W35363   4.169   7.764  14.723  0.3773 -0.0865  0.0319
19180W        W35364   6.016   6.237  11.287  0.0639 -0.2273  0.0128
19181W        W35365   4.558   5.624   5.384  0.0576 -0.4248 -0.0847
19182W        W35366   1.605   2.127   0.011 -0.0357  0.0718 -0.3688
19183W        W35367  17.973  11.497  11.388  0.0959  0.1139 -0.2484
19184W        W35368  14.967   9.919  14.123 -0.3323  0.2733 -0.0938
19185W        W35369   4.923  17.185   5.113  0.3058  0.0894 -0.0133
19186W        W35370   2.313   3.707  11.342  0.0007  0.2731 -0.4897
19187W        W35371  10.432   4.751  12.339 -0.3031  0.1271  0.2720
19188W        W35372   0.424  12.162   0.657 -0.1503  0.0588  0.3337
19189W        W35373   3.586  14.359  13.150  0.1248 -0.0982 -0.2230
19190W        W35374  14.568  14.525  12.087 -0.1776 -0.3075 -0.1035
19191W        W35375   4.401   9.788   2.109  0.0453  0.0931 -0.0769
19192W        W35376   7.410  18.095  11.931  0.0094 -0.3244 -0.2598
19193W        W35377  17.800  12.687  12.972 -0.2675 -0.1899 -0.3128
19194W        W35378   7.995   8.923  14.505  0.1433  0.4211 -0.0686
19195W        W35379   1.600   9.109   1.766 -0.3084  0.1726 -0.0066
19196W        W35380  11.011   6.038   1.035 -0.2747  0.0181  0.0775
19197W        W35381   0.948  12.776   0.113 -0.0782  0.1199 -0.3613
19198W        W35382   7.582  13.783   1.550 -0.1988 -0.4955  0.2178
19199W        W35383   8.159   5.670   3.770  0.0045 -0.1524  0.0968
19200W        W35384  11.875   0.888   0.175  0.2382 -0.1585 -0.1070
19201W        W35385  12.912  13.144  12.659 -0.0022 -0.1134  0.0824
19202W        W35386   3.387  16.724  13.199  0.2451 -0.2167 -0.0076
19203W        W35387  18.790   7.634   2.150 -0.3352  0.0081 -0.0766
19204W        W35388   9.125  10.401  15.539  0.2753 -0.2450 -0.1776
19205W        W35389  15.933  13.676  12.253  0.1525  0.1121  0.0517
19206W        W35390   1.327  15.594  13.334 -0.1107 -0.0561 -0.1143
19207W        W35391   7.794  12.144  14.865 -0.0727  0.0866  0.1726
19208W        W35392  16.445   4.834   2.666  0.1475 -0.3110  0.0757
19209W        W35393  10.906   4.289   1.008  0.1929 -0.1320 -0.0385
19210W        W35394  16.130   3.305  14.892  0.0114 -0.0008  0.1205
19211W        W35395  17.748   2.938   1.890  0.1367 -0.1590 -0.1163
19212W        W35396  14.373   5.191   4.468 -0.1930  0.2286  0.1230
19213W        W35397   1.278  16.796  10.098 -0.1185  0.0307  0.1849
19214W        W35398  16.552  10.123   1.414 -0.0342  0.2626 -0.2011
19215W        W35399  14.775   9.220   0.341 -0.2199 -0.0606  0.0979
19216W        W35400   8.884   5.235   4.382  0.0234 -0.0489  0.1546
19217W        W35401  12.223   9.298   4.339  0.0927  0.0898 -0.1047
19218W        W35402  13.541   0.130   9.685 -0.1867  0.0467 -0.3221
19219W        W35403  17.834  10.194  10.964 -0.2325  0.1574  0.2025
19220W        W35404  10.794  18.661   1.497 -0.0448  0.0740 -0.0967
19221W        W35405  10.428  10.796   0.825 -0.1095 -0.0977 -0.1385
19222W        W35406   3.303   5.311  14.329  0.0284 -0.0046 -0.1368
19223W        W35407   6.572   4.406   3.737  0.0280  0.2856 -0.1104
19224W        W35408   4.856  18.736  13.510  0.2300  0.3499 -0.0752
19225W        W35409   8.565  11.266   2.853 -0.1988 -0.2254 -0.0569
19226W        W35410   7.459   0.376  13.804 -0.1171  0.1040  0.0209
19227W        W35411  14.275  18.474   4.993  0.0498 -0.1136  0.1903
19228W        W35412   8.334   7.980   1.380  0.2512  0.0953 -0.2279
19229W        W35413   6.814   9.892  12.402  0.0967  0.0368 -0.0104
19230W        W35414   3.593   3.408   1.641 -0.3982  0.1392 -0.0550
19231W        W35415  17.329  13.548   2.425  0.1484  0.2127  0.0403
19232W        W35416  11.850  18.016   5.516  0.2397 -0.0470 -0.2569
19233W        W35417  12.303   9.812   5.138  0.0707  0.2276 -0.0318
19234W        W35418  13.834   2.661   1.464  0.1316  0.2496 -0.1755
19235W        W35419  13.633  15.090   1.417  0.1522  0.1894  0.0147
19236W        W35420  14.730   8.222  14.768  0.1340  0.1470 -0.3160
19237W        W35421   5.003   6.383   5.102  0.0256  0.2430  0.1665
19238W        W35422  13.392   1.767  14.431  0.1053 -0.1943  0.3357
19239W        W35423   5.051  14.968  10.404  0.0706  0.0739 -0.1024
19240W        W35424  16.754   6.958  12.516 -0.0594  0.0565  0.3851
19241W        W35425  12.932   4.848   2.669  0.2251 -0.0383  0.1333
19242W        W35426   8.311  18.432  11.099 -0.1165 -0.1386  0.2108
19243W        W35427  11.880   0.962  14.762 -0.0253  0.3815 -0.1453
19244W        W35428  17.474   2.256   3.474  0.1427  0.1914  0.1450
19245W        W35429   7.655   8.802  15.064  0.5990  0.0044 -0.2771
19246W        W35430  18.314   2.451   1.796 -0.0616 -0.2316  0.2248
19247W        W35431  11.435  18.083  14.852 -0.2359  0.0792  0.2175
19248W        W35432  16.234   3.362   4.995  0.0472 -0.0592 -0.2821
19249W        W35433  15.650  17.518   4.462  0.0954  0.1892 -0.1764
19250W        W35434  18.135  17.894  11.662 -0.0877 -0.0407 -0.0392
19251W        W35435  13.049   7.282  13.106  0.2261 -0.2561 -0.0238
19252W        W35436   9.481   6.545  11.791  0.2050  0.2806  0.0456
19253W        W35437  17.520   9.015   3.135 -0.1444  0.1120 -0.2805
19254W        W35438   3.577  12.903  14.517  0.0019  0.3749 -0.1639
19255W        W35439   9.033   9.310   3.161 -0.1046  0.2946  0.2383
19256W        W35440   3.370  12.825  12.708 -0.1802 -0.2012  0.1730
19257W        W35441   2.134   7.336   4.013  0.0319  0.2262  0.0198
19258W        W35442   7.113  14.746   1.476  0.1347 -0.2928  0.0983
19259W        W35443   3.204  12.062   4.492  0.2488  0.0246 -0.2819
19260W        W35444   0.736   6.617  15.150  0.2236  0.0198  0.0346
19261W        W35445  18.786   4.707  15.401 -0.2673 -0.1382 -0.0905
19262W        W35446   9.621  12.138   5.727 -0.0771 -0.0689 -0.2793
19263W        W35447  10.469   2.543   3.026  0.3069  0.2017  0.1072
19264W        W35448   9.664  17.048  14.848  0.1375 -0.2230  0.0870
19265W        W35449   6.077  12.232  14.782 -0.1017 -0.0442  0.1687
19266W        W35450  18.501  18.802   1.056  0.0429  0.1611  0.0979
19267W        W35451   3.715   3.410  12.559  0.0286 -0.1292  0.0529
19268W        W35452   0.620   2.788  13.216  0.2550 -0.3270  0.1327
19269W        W35453  14.471   2.266  13.845  0.3129 -0.1588  0.0116
19270W        W35454  11.811   4.462   2.755  0.1498  0.1291  0.1595
19271W        W35455   9.369  10.638   3.510 -0.0778  0.0622  0.0467
19272W        W35456   8.399   2.702   0.926 -0.0020 -0.2668 -0.0752
19273W        W35457  18.573  18.660   1.939  0.1612  0.3456  0.0577
19274W        W35458  15.823  15.504   2.217  0.1454  0.2205 -0.0038
19275W        W35459  17.334  14.523   1.196 -0.0588 -0.5096  0.2101
19276W        W35460   0.501  13.855   2.878  0.2732 -0.0182 -0.0747
19277W        W35461   6.405   5.210   4.123 -0.1980 -0.3386  0.1036
19278W        W35462  14.976  16.172  12.995  0.0150  0.2997  0.1186
19279W        W35463  14.369   2.801  13.835 -0.1747  0.1110  0.1939
19280W        W35464  12.218  18.403  11.634 -0.1505 -0.0508  0.2501
19281W        W35465  12.026   7.559  11.589 -0.0908  0.0556 -0.0782
19282W        W35466   5.410  12.036   1.581  0.1503 -0.0500 -0.3249
19283W        W35467   5.510   9.166  12.886 -0.4057 -0.1624 -0.2054
19284W        W35468   3.127   9.876  14.398 -0.2966 -0.2039 -0.0472
19285W        W35469   0.806   9.322  10.853  0.0728  0.0583  0.0378
19286W        W35470   4.078  14.839   2.310 -0.2367  0.1985 -0.0088
19287W        W35471  12.892   3.257   3.287  0.2533 -0.1727 -0.0762
19288W        W35472  16.243  11.437   3.381 -0.3210 -0.2820 -0.1795
19289W        W35473   1.993   2.743  13.885  0.1676  0.1047  0.2560
19290W        W35474   7.640  14.121   4.308 -0.1143  0.1955  0.1735
19291W        W35475  12.934  12.770  14.575 -0.0394  0.1459  0.2526
19292W        W35476  10.733  12.719  11.207  0.1904  0.0702  0.0801
19293W        W35477   0.658  10.560   9.673 -0.1432 -0.2083  0.1191
19294W        W35478  13.809   5.066  13.315 -0.2590  0.2856 -0.1742
19295W        W35479   8.050   8.994   3.349  0.5511  0.0284  0.0812
19296W        W35480   2.854  13.477   4.550  0.0271 -0.0467  0.1049
19297W        W35481  15.016  17.920   3.906 -0.0044  0.3197 -0.1425
19298W        W35482   6.842   5.053  11.557  0.1110  0.1051  0.0037
19299W        W35483   5.419   0.083   4.881 -0.1097  0.0539  0.2687
19300W        W35484  15.142  16.400  13.419  0.0015 -0.0523 -0.1528
19301W        W35485   8.819   1.546  12.888  0.2186 -0.0210  0.0550
19302W        W35486  12.999  14.726  14.230  0.2061  0.0756  0.2749
19303W        W35487  10.716   8.503   2.790 -0.3311  0.2668  0.4140
19304W        W35488   5.167   9.061  14.819  0.0284 -0.1697  0.0455
19305W        W35489   6.234   9.097  11.588 -0.0771 -0.2717 -0.2248
19306W        W35490  16.195  11.092  13.053 -0.0546  0.1589 -0.1711
19307W        W35491  16.039  17.008  11.900  0.2246 -0.1454  0.3200
19308W        W35492  16.101   7.672   9.650  0.3386  0.2221 -0.2083
19309W        W35493  16.531  10.106  14.296  0.1955  0.0299  0.0994
19310W        W35494  17.141   0.987   0.106 -0.2273  0.0121  0.1883
19311W        W35495   2.341   6.053   4.820 -0.3135 -0.3505  0.0177
19312W        W35496   5.836  11.682   4.931 -0.0118  0.2069  0.0574
19313W        W35497   0.150   5.495   0.283  0.0398 -0.2443  0.2045
19314W        W35498  16.834   6.724   1.651 -0.1217 -0.0124 -0.3402
19315W        W35499  17.484  15.357   4.286 -0.1100  0.0607 -0.1888
19316W        W35500   0.651  12.211   2.954 -0.2081 -0.2643  0.3345
19317W        W35501   1.301   0.384   4.625  0.0029 -0.1456 -0.3715
19318W        W35502  11.788  12.748  11.924  0.1859  0.0271 -0.0503
19319W        W35503   0.022   8.630  10.399  0.0410 -0.1929 -0.3650
19320W        W35504   7.675   3.406   1.272  0.2272  0.2379 -0.1929
19321W        W35505   7.293   3.962   3.709 -0.1110 -0.3874 -0.5092
19322W        W35506  17.825  10.048   4.611 -0.3095 -0.1585  0.1010
19323W        W35507   0.635  12.031  12.959 -0.0806  0.0576  0.0965
19324W        W35508  15.599  17.042  13.795 -0.1123  0.1557 -0.1301
19325W        W35509   1.839   0.050  13.675  0.0635 -0.1865  0.2865
19326W        W35510  12.112   3.815  13.234  0.0001 -0.2396 -0.0903
19327W        W35511   1.195  12.708   2.053  0.1975  0.4826  0.0440
19328W        W35512  15.006   0.586   2.047  0.1180 -0.0504 -0.0417
19329W        W35513  10.889  17.490   1.323 -0.1188  0.2442 -0.0110
19330W        W35514   9.084   3.789   1.625 -0.0728 -0.0464  0.0236
19331W        W35515  10.257   2.662  12.563  0.0809 -0.1143  0.0551
19332W        W35516  14.796  13.447   3.751 -0.2178  0.0634 -0.0528
19333W        W35517   2.355   3.265  13.165 -0.1362  0.3012  0.1666
19334W        W35518  18.222   2.243   0.347  0.0225  0.1391  0.3564
19335W        W35519   4.340  12.920  11.886  0.1673  0.1772  0.0823
19336W        W35520   0.760   2.523   4.318 -0.1145 -0.2040 -0.2188
19337W        W35521  15.342   3.810  11.893  0.2197 -0.4596  0.0642
19338W        W35522   7.444   4.516   1.263  0.0707 -0.2240  0.0391
19339W        W35523  15.227  17.537   4.156  0.0090  0.2097  0.0513
19340W        W35524   1.951   1.724  15.199  0.1417  0.0762  0.4846
19341W        W35525   3.883  13.088  12.978 -0.1045 -0.0434  0.1065
19342W        W35526   7.011  15.119   4.995 -0.1364  0.1756 -0.1385
19343W        W35527  10.201  17.828  12.205 -0.4289 -0.0099  0.2524
19344W        W35528  18.349  10.844   0.478  0.1003 -0.4674  0.0522
19345W        W35529  11.314   9.644   1.090  0.0415  0.1581  0.1316
19346W        W35530  17.773   3.386   1.550 -0.2694  0.0123  0.2560
19347W        W35531  17.839   8.306   4.953  0.1151  0.1498 -0.1227
19348W        W35532   2.872  11.416  14.435 -0.0909  0.1530 -0.1334
19349W        W35533   3.756   9.263   2.740 -0.0206 -0.3699  0.0889
19350W        W35534  10.158  11.257   2.077  0.0566  0.1306  0.1779
19351W        W35535   8.654   7.272   2.001  0.1280 -0.0956 -0.1700
19352W        W35536   7.531  11.476  13.947  0.0120  0.0376 -0.4117
19353W        W35537   2.759  15.235  15.209  0.2165 -0.4752  0.0542
19354W        W35538   7.847   3.687  13.410 -0.0248 -0.0042  0.1065
19355W        W35539   0.457   4.659   2.564  0.3852 -0.2417 -0.3668
19356W        W35540   8.872   0.663  11.278  0.0873 -0.0488 -0.1938
19357W        W35541  15.896  16.343  12.341  0.2288  0.1017  0.1997
19358W        W35542   5.275  16.975  12.192  0.0389 -0.0257 -0.2658
19359W        W35543   8.015  11.909  15.260  0.1531 -0.2704 -0.1006
19360W        W35544   7.225   3.777   1.669 -0.0704  0.3709  0.3346
19361W        W35545   7.366   9.702   0.815 -0.1926 -0.4066 -0.1070
19362W        W35546   7.091   0.904  14.732  0.2991 -0.1155  0.0574
19363W        W35547  18.530  15.719  11.089 -0.2431 -0.0257  0.0164
19364W        W35548   4.612  15.671   3.201 -0.0544 -0.0903  0.1147
19365W        W35549   4.111  14.983   5.079 -0.1419  0.0816 -0.0070
19366W        W35550   8.972  10.494   2.077 -0.1864  0.0023 -0.0428
19367W        W35551   7.287   0.188  10.697 -0.0007  0.2072  0.2762
19368W        W35552   9.499   2.438   2.912  0.1301 -0.0563 -0.0651
19369W        W35553   8.377  13.435  13.803 -0.0325 -0.1879 -0.1738
19370W        W35554   6.610  15.328  11.117  0.1500 -0.1991 -0.0777
19371W        W35555   4.836   2.875  14.477  0.0451 -0.0134 -0.1017
19372W        W35556  15.569  17.607   2.083  0.0315  0.0401 -0.0001
19373W        W35557  15.102   6.203   2.257 -0.3100 -0.0596 -0.2475
19374W        W35558  15.927   3.204  11.654  0.1160 -0.2384 -0.2208
19375W        W35559   4.061   0.474  10.826  0.0058  0.0282 -0.0359
19376W        W35560   2.907  13.814   0.739  0.2220  0.1081  0.1668
19377W        W35561   7.542   1.557   3.066 -0.3454  0.0822 -0.0824
19378W        W35562  18.201  17.695  15.006 -0.1901  0.1558 -0.0635
19379W        W35563  13.828   8.802  14.136 -0.0397 -0.0861 -0.3150
19380W        W35564   7.627   3.589   2.672 -0.0697 -0.2783  0.1270
19381W        W35565   9.494  12.565  11.632 -0.1438  0.4270  0.0280
19382W        W35566   2.328   4.328   4.838  0.2332 -0.0947 -0.0244
19383W        W35567  12.136   3.554  14.143  0.0831 -0.1180 -0.0091
19384W        W35568  10.401  17.965   4.501  0.1419 -0.0658  0.0602
19385W        W35569  11.676   4.015  13.376  0.0784 -0.1957 -0.1468
19386W        W35570   1.859   8.749   1.556 -0.2095  0.0240 -0.2660
19387W        W35571  10.920   9.310   1.683  0.0116  0.1598  0.0953
19388W        W35572   4.361   4.773   2.385  0.0963 -0.0521  0.2324
19389W        W35573   4.898   3.395  14.378 -0.1038 -0.1529 -0.1160
19390W        W35574  14.432  18.252   2.798 -0.4594 -0.2314  0.0697
19391W        W35575   4.228  18.312   5.036 -0.0055 -0.2390  0.0087
19392W        W35576  10.971   1.760   2.746  0.0529  0.0307  0.1427
19393W        W35577   5.042  16.188  13.138 -0.0654  0.0651  0.0831
19394W        W35578   2.258   5.296  13.474  0.0592 -0.0425 -0.3100
19395W        W35579   9.016  12.961   4.703  0.0471  0.0225  0.0529
19396W        W35580  15.127  18.062  12.675 -0.3612  0.0579  0.1448
19397W        W35581   9.064  15.609  15.288  0.2884 -0.2691  0.0498
19398W        W35582   2.119   6.001  11.714 -0.1619 -0.0779  0.0885
19399W        W35583  14.566  12.095   1.563 -0.1473  0.0611  0.2075
19400W        W35584   1.586  12.848   0.486  0.0492 -0.0266 -0.0509
19401W        W35585   7.603  11.053   4.792 -0.2217 -0.3937  0.0038
19402W        W35586  14.793   6.383  15.087 -0.5432 -0.1569 -0.0913
19403W        W35587  11.446  18.685  13.983  0.2868 -0.0055  0.0302
19404W        W35588   6.122  13.067  13.470  0.2486 -0.0427 -0.2774
19405W        W35589  12.788   9.095  12.861 -0.2248  0.0895 -0.0957
19406W        W35590   8.005   4.184  13.733 -0.1185  0.2127  0.3955
19407W        W35591   9.940  10.785   2.501  0.3078 -0.1450  0.2578
19408W        W35592  11.411   8.663   3.254 -0.1281  0.2600  0.0472
19409W        W35593   9.464   5.592   2.432  0.0888  0.0385 -0.1702
19410W        W35594  16.878  17.560   3.959  0.1381  0.0869 -0.0078
19411W        W35595  14.590  17.547   1.038 -0.1288 -0.0306 -0.2425
19412W        W35596   8.077  13.332  10.711  0.3019  0.0398  0.0759
19413W        W35597  18.241  16.786   5.186  0.1819  0.1308 -0.2806
19414W        W35598   0.183  12.268   2.927 -0.2138 -0.1809  0.0684
19415W        W35599   1.608  14.858  11.533  0.0662  0.1462  0.1660
19416W        W35600   1.333   9.841  15.189 -0.1482 -0.2081 -0.0492
19417W        W35601   7.956   6.744   5.186  0.3695 -0.2787 -0.1355
19418W        W35602  12.066  15.340  11.986  0.3223  0.0178 -0.0494
19419W        W35603  18.498   7.570  11.602 -0.2983 -0.1434 -0.0019
19420W        W35604  13.758  11.544  12.714  0.1764 -0.0520  0.0162
19421W        W35605   2.537   2.822   1.082  0.1429 -0.0494 -0.0619
19422W        W35606   9.427  16.601   0.442  0.2198  0.2394  0.1960
19423W        W35607  12.864  15.855   1.708 -0.1560  0.1022  0.0872
19424W        W35608   7.019  12.216   4.413 -0.0431  0.1533  0.1988
19425W        W35609   5.569  13.805  13.019  0.0166  0.0029  0.2813
19426W        W35610   2.219   1.725  11.214  0.0526 -0.1251 -0.1632
19427W        W35611  14.463  18.564   5.724 -0.2243 -0.2025 -0.2894
19428W        W35612   7.586  11.913   1.474 -0.0971  0.6094 -0.5051
19429W        W35613   1.795  16.730  12.238 -0.0663 -0.0984 -0.0635
19430W        W35614   9.417  15.796  13.898 -0.1068  0.1942 -0.1382
19431W        W35615   0.432   1.625   1.040  0.1930  0.1900 -0.1813
19432W        W35616  17.673  17.749  10.895  0.2279  0.1786  0.2450
19433W        W35617  13.261   2.641  14.004 -0.2163  0.1240 -0.0255
19434W        W35618  14.227  10.459   1.901 -0.5360  0.0255  0.0856
19435W        W35619   2.220   4.700   2.682 -0.0145  0.2689 -0.2431
19436W        W35620   2.420   5.871   0.420 -0.0468 -0.2239 -0.1088
19437W        W35621   7.363  17.249  13.056 -0.1526 -0.0525  0.2212
19438W        W35622  14.706   3.601  14.265 -0.1811 -0.0028  0.1314
19439W        W35623   0.711  17.780   4.589  0.1917  0.2630  0.0056
19440W        W35624  12.255   2.116   3.779  0.1331 -0.0873 -0.2602
19441W        W35625   8.970  14.202   3.932  0.2334  0.2200 -0.0629
19442W        W35626  16.290  12.374   0.244  0.2227 -0.0113  0.3126
19443W        W35627  17.262   0.701   3.007 -0.0441 -0.2141  0.1542
19444W        W35628   5.674   8.062   3.420  0.0949  0.1179  0.1213
19445W        W35629   2.585   4.494  15.058  0.0229  0.0925  0.1228
19446W        W35630   3.991   5.458  12.975  0.0261 -0.2853  0.0075
19447W        W35631  13.269   5.137   2.465 -0.0475 -0.0029 -0.0692
19448W        W35632   9.581  10.375   4.938 -0.1086  0.3038  0.4204
19449W        W35633  10.068   9.569  12.355 -0.0518 -0.0365 -0.2306
19450W        W35634   6.575  15.019   4.346  0.1086 -0.0947 -0.2878
19451W        W35635   1.830   9.040   0.044 -0.0320  0.2175  0.1537
19452W        W35636   5.193   1.063   1.956  0.2308  0.2148  0.1010
19453W        W35637   9.818  14.707  14.947 -0.2612  0.2046 -0.0488
19454W        W35638   6.730   1.678  11.137 -0.2441  0.2751  0.1185
19455W        W35639  12.071  12.592  13.124  0.1572 -0.5318  0.0651
19456W        W35640  10.015   4.613   2.309 -0.3064 -0.2304  0.1843
19457W        W35641   1.050  11.104  14.365  0.0708  0.2831 -0.1036
19458W        W35642  10.626  17.559  14.396  0.0608 -0.2704 -0.0620
19459W        W35643   0.154   0.076  15.456  0.1763 -0.1961 -0.0052
19460W        W35644   0.858  11.337   4.497 -0.3076 -0.2042 -0.3599
19461W        W35645   8.266  11.092   4.994 -0.1347 -0.1553  0.0245
19462W        W35646   6.400   7.619   2.868 -0.0444 -0.1119  0.0588
19463W        W35647   9.198  15.396   4.935  0.2874 -0.0174  0.1828
19464W        W35648  17.894   5.184   2.363 -0.1060 -0.2467 -0.1289
19465W        W35649   6.617   2.468   4.527  0.3083  0.1139 -0.2097
19466W        W35650   2.820   4.163  14.045  0.1350  0.4471  0.1224
19467W        W35651  11.862   7.265  14.994  0.0778 -0.0362  0.2333
19468W        W35652   1.143  18.608   3.405  0.0836 -0.1540 -0.2029
19469W        W35653  16.527   7.820   1.899 -0.1391 -0.1464 -0.2282
19470W        W35654   4.397  15.294  11.156 -0.0698 -0.1204  0.0447
19471W        W35655  12.356   2.157  15.214 -0.0920 -0.0558 -0.0142
19472W        W35656   8.741   8.659  11.637  0.0098 -0.1044 -0.1333
19473W        W35657  17.451  13.862  14.154  0.0440 -0.0579  0.1674
19474W        W35658   1.529   9.935   3.859 -0.1297  0.2196  0.2921
19475W        W35659   0.930   7.687   4.241  0.1165 -0.3026  0.0478
19476W        W35660  12.447  17.477  13.759  0.2119 -0.0957  0.0889
19477W        W35661   4.523  15.241   5.795 -0.0055 -0.0735 -0.0590
19478W        W35662  11.307   5.306   3.493  0.1494 -0.3812  0.1492
19479W        W35663  18.144   7.706  13.165 -0.0660  0.0789 -0.1241
19480W        W35664   2.368   9.086  13.315 -0.2504  0.7607 -0.0485
19481W        W35665  15.368   8.645   2.613  0.0983 -0.3803  0.2906
19482W        W35666   1.186   4.986  12.477 -0.1901  0.1888  0.1323
19483W        W35667  14.885   1.492  13.480  0.2005 -0.1470 -0.0784
19484W        W35668   0.067  17.131  14.641 -0.2037 -0.2809  0.2721
19485W        W35669  16.584   8.862  15.488  0.0726  0.1183 -0.3260
19486W        W35670   2.710   6.190   3.039 -0.2149 -0.0400 -0.3161
19487W        W35671  17.962  17.028  13.614  0.2708  0.1260 -0.1721
19488W        W35672   7.172  10.358  10.970  0.0127  0.0809  0.2079
19489W        W35673   9.022  18.518  14.782 -0.2742  0.0407 -0.0809
19490W        W35674  13.018   6.226  13.915  0.3003 -0.0548 -0.0961
19491W        W35675   8.282   9.497  14.820  0.2969 -0.0351 -0.1843
19492W        W35676  15.581  18.053   0.082 -0.1039  0.1129 -0.0073
19493W        W35677   9.015   9.501  15.304 -0.3323 -0.0574 -0.2181
19494W        W35678  18.446   5.094  12.008 -0.0446  0.4421 -0.0491
19495W        W35679  16.699   7.036   2.577  0.1073  0.3218  0.1305
19496W        W35680  14.633   2.237  11.353  0.0865  0.1449 -0.0164
19497W        W35681   0.685  16.297   0.689  0.3878 -0.2186  0.0783
19498W        W35682  11.459   9.961  14.369 -0.1167  0.3108 -0.0857
19499W        W35683   7.839  12.954  12.523  0.2252 -0.0044  0.4640
19500W        W35684   1.427  15.685  12.746  0.2798  0.0119 -0.2284
19501W        W35685  13.538  17.083  13.999  0.0359 -0.3288 -0.0377
19502W        W35686  14.372  14.410  13.783 -0.0083 -0.0855 -0.2666
19503W        W35687   7.452  10.225   5.852  0.0133 -0.1869 -0.0048
19504W        W35688  11.779   4.345   2.277  0.0492  0.0490 -0.0014
19505W        W35689   1.099   2.543  10.187  0.0932 -0.0430 -0.4577
19506W        W35690   5.159   9.107   4.964  0.1316 -0.1031  0.1157
19507W        W35691  15.884   0.535   3.849 -0.1779 -0.0237 -0.2776
19508W        W35692   5.724   8.721  12.664  0.1383  0.0413 -0.1523
19509W        W35693  12.513  11.981   2.900  0.1668 -0.0709 -0.1882
19510W        W35694   7.721  10.951  14.001  0.0208 -0.3749  0.0762
19511W        W35695  11.295   9.055   4.525  0.5026  0.2082  0.1657
19512W        W35696   3.716   2.086  13.081  0.1068 -0.0606 -0.1524
19513W        W35697   4.987   2.510   0.507  0.2970  0.1095 -0.0955
19514W        W35698   9.202   1.251   3.498 -0.0656 -0.0479  0.0478
19515W        W35699   6.837   9.418   4.843  0.1302 -0.2199 -0.2478
19516W        W35700  13.322   1.131  15.157  0.0926 -0.0043 -0.1220
19517W        W35701  11.825  14.650  15.313 -0.1688 -0.1076 -0.2103
19518W        W35702   7.775  11.452   2.148  0.1300 -0.0901 -0.1769
19519W        W35703   1.620   2.647  12.106 -0.1140  0.0386 -0.1374
19520W        W35704  11.648   0.087   5.272  0.4139  0.1030  0.1162
19521W        W35705  12.127  15.923  12.861  0.0908  0.1856 -0.2406
19522W        W35706   0.319  11.731  10.381  0.0594  0.1206 -0.1224
19523W        W35707   7.004   5.440   1.078 -0.0759  0.1595  0.2880
19524W        W35708   5.572   1.192  11.914 -0.0829  0.0129  0.0154
19525W        W35709  14.811   5.481   2.761 -0.0338 -0.0732  0.0128
19526W        W35710   0.663   3.851  12.277  0.0258 -0.0628 -0.0894
19527W        W35711  15.330   6.960   4.462  0.1641  0.0065 -0.1277
19528W        W35712   6.229  11.594   2.352  0.0465 -0.3578 -0.1394
19529W        W35713   2.563  13.954  11.236 -0.0245 -0.2126  0.3875
19530W        W35714   5.119   3.198  12.889 -0.0245  0.0937  0.0076
19531W        W35715   0.476  11.212  10.660 -0.0230 -0.0547 -0.1609
19532W        W35716   1.805  15.013   1.962 -0.1228 -0.2175  0.0752
19533W        W35717  13.582   7.086   0.933 -0.0790  0.3587 -0.1670
19534W        W35718  12.929   8.365   4.116 -0.0283  0.3102 -0.2588
19535W        W35719  12.967   0.783  11.158 -0.0077 -0.4122  0.0938
19536W        W35720   9.212   2.202   0.486  0.2584 -0.1238 -0.1132
19537W        W35721  11.677  16.620   9.641  0.0343 -0.0980 -0.3543
19538W        W35722   8.391   7.424   0.599 -0.3076  0.0854  0.3635
19539W        W35723  11.186  12.390   4.732 -0.1955  0.2659 -0.1610
19540W        W35724   8.534  10.223   3.641  0.5252 -0.0091 -0.3386
19541W        W35725  17.297  10.002   5.741  0.0709  0.1056  0.3567
19542W        W35726   4.345  10.353  14.725 -0.2918  0.3198 -0.1555
19543W        W35727  11.937  13.595  13.690  0.2258  0.2330 -0.0107
19544W        W35728  14.664   3.063  13.497  0.2007  0.1047  0.2415
19545W        W35729  11.913  18.381  12.081  0.0961  0.2344 -0.1305
19546W        W35730   5.465  12.275   3.947  0.1580  0.0981  0.0942
19547W        W35731  11.428  14.383   0.165 -0.1278  0.0457  0.0349
19548W        W35732  11.059  16.628  12.894  0.0611  0.0082  0.2217
19549W        W35733  18.133   6.455  15.130  0.2865 -0.1226  0.0411
19550W        W35734  13.145   6.184  10.534  0.0256  0.0316  0.0482
19551W        W35735  17.911   6.586   0.419  0.2493  0.0597 -0.0948
19552W        W35736   5.891   7.595  13.305  0.1762 -0.1393  0.2687
19553W        W35737   6.873  14.078  14.025 -0.0322 -0.0372 -0.0094
19554W        W35738   8.112   7.963   2.400  0.0563  0.0549  0.0062
19555W        W35739   2.619  12.405   4.163 -0.2062 -0.0570  0.1654
19556W        W35740   8.635  10.437  13.329  0.4645  0.1419  0.1593
19557W        W35741  12.027  11.919   0.863 -0.1968 -0.0906  0.0527
19558W        W35742   5.828  17.989   2.190 -0.0808 -0.1935 -0.0327
19559W        W35743  14.122   3.225   4.921  0.0089 -0.1551  0.1939
19560W        W35744   6.087  15.810  11.746  0.1479  0.0931 -0.1160
19561W        W35745  15.855  13.231   1.418 -0.0833 -0.0890  0.0540
19562W        W35746  15.227   4.428   0.382 -0.0200 -0.3018  0.1563
19563W        W35747   8.326  17.477  13.453 -0.2110  0.2065 -0.3731
19564W        W35748  16.303  14.529   3.822 -0.1511  0.1911 -0.2547
19565W        W35749  15.549   3.279   2.784 -0.2155 -0.2961  0.1274
19566W        W35750   9.382   8.307   2.883 -0.2736  0.4374  0.1633
19567W        W35751  18.297   2.698  14.077 -0.1824  0.2364 -0.1147
19568W        W35752   6.010  13.889   3.875  0.0491 -0.2692  0.0540
19569W        W35753  13.506   3.701   0.257  0.1301 -0.3459  0.1943
19570W        W35754   4.927   8.796   1.967  0.1274 -0.0753 -0.0638
19571W        W35755  16.365   4.475   3.709 -0.0039  0.1731  0.1879
19572W        W35756  18.091  13.511   4.921  0.0678  0.3618 -0.1498
19573W        W35757   0.975  11.540   1.762 -0.2214  0.0785 -0.2139
19574W        W35758  18.740   8.031   0.940 -0.0118  0.2153  0.2527
19575W        W35759  13.933  12.620  14.393  0.1143 -0.0327  0.0889
19576W        W35760  14.928   6.640   2.058 -0.1934 -0.1177  0.3198
19577W        W35761  14.352  16.611  11.695 -0.5049 -0.4636  0.0412
19578W        W35762   3.002   3.051   0.189  0.0634 -0.0675  0.2492
19579W        W35763   2.013   7.905   2.690 -0.0974 -0.2734 -0.1728
19580W        W35764  15.696   4.375   4.706 -0.0971  0.2793  0.2492
19581W        W35765  11.308  18.293   3.915 -0.1287 -0.2242 -0.1926
19582W        W35766  17.163   7.202   3.261  0.1341 -0.1187 -0.0922
19583W        W35767   1.082  13.420   2.339  0.0199 -0.1586 -0.3188
19584W        W35768  18.624  17.963   5.073 -0.2131  0.0794  0.0336
19585W        W35769  14.974  17.451   2.170 -0.0480  0.2643  0.0036
19586W        W35770   8.990   3.721   4.402  0.2409 -0.2505  0.1286
19587W        W35771  10.686  15.360   0.505  0.2379  0.1628  0.0298
19588W        W35772   8.007   6.089  13.396 -0.0175  0.0660 -0.3518
19589W        W35773  12.591   7.340   0.546 -0.0963  0.3276  0.1230
19590W        W35774  11.592  10.718  11.827 -0.2519  0.0540  0.0661
19591W        W35775   6.553  10.890   3.683 -0.0560 -0.2094  0.0075
19592W        W35776  12.803   3.413  13.543 -0.3306 -0.2510 -0.2615
19593W        W35777  13.825   8.267  13.450  0.0730 -0.4650 -0.2983
19594W        W35778  15.263   1.844  11.465 -0.1639  0.0572  0.0692
19595W        W35779  11.012   2.982  12.061  0.1131 -0.1746  0.0288
19596W        W35780   2.082   4.281  13.827 -0.0638  0.1736 -0.2341
19597W        W35781  10.469  16.835  12.984  0.2885  0.0196  0.0264
19598W        W35782  10.993   7.065   4.642  0.0156 -0.0936  0.0804
19599W        W35783  11.693   3.815  11.499  0.2532 -0.2048 -0.1483
19600W        W35784  12.175   3.028  11.727 -0.2098 -0.2009 -0.0925
19601W        W35785  11.147   3.067   5.619  0.0849 -0.1220  0.0184
19602W        W35786  15.961  13.360  15.091  0.1852  0.0795  0.0249
19603W        W35787  13.634   6.980   2.343 -0.1137  0.0742 -0.2472
19604W        W35788  11.972   1.251   2.769  0.3285 -0.0575 -0.3050
19605W        W35789  11.277  13.818   2.489 -0.1582 -0.0709 -0.1350
19606W        W35790  13.975   6.663  10.966  0.0453 -0.0871  0.0843
19607W        W35791   9.127  16.650   4.959 -0.0925 -0.0183  0.0554
19608W        W35792  10.702   2.780   6.140 -0.1465  0.0010 -0.1838
19609W        W35793   5.539  18.262  12.407  0.0623 -0.0123 -0.1349
19610W        W35794  10.330  18.269  11.803  0.0903 -0.3520  0.1313
19611W        W35795  12.206   7.962   3.221 -0.2281  0.0576  0.1763
19612W        W35796   2.769   7.177   0.683 -0.2065 -0.2943 -0.0671
19613W        W35797   7.538   7.244  11.827 -0.0796 -0.0779  0.2867
19614W        W35798   4.969  16.129  15.324 -0.1767  0.1434 -0.0189
19615W        W35799   9.222  11.487   4.001  0.0778  0.1338  0.2205
19616W        W35800   0.499   2.776   3.102  0.1822  0.1961  0.1254
19617W        W35801   2.435   8.652  13.064  0.0440  0.0322 -0.0741
19618W        W35802  14.350   6.719   3.195  0.0643  0.1069  0.3662
19619W        W35803  17.956   8.206  11.716  0.1765  0.1779 -0.0420
19620W        W35804   3.373  16.242  13.027 -0.0272 -0.1398  0.0364
19621W        W35805   9.416  11.160   3.274  0.0257 -0.1884 -0.2580
19622W        W35806   3.978   6.699   1.273 -0.4487  0.0643  0.2065
19623W        W35807   4.455   9.608   5.432  0.1488  0.2596  0.3805
19624W        W35808   4.101  13.963  11.045  0.2235 -0.0284 -0.1668
19625W        W35809   8.090  17.931  13.759 -0.2547  0.4461  0.1110
19626W        W35810  15.710   9.668  14.442 -0.0274 -0.0323 -0.3339
19627W        W35811   1.948   6.894   2.645  0.0198 -0.0293 -0.0492
19628W        W35812  11.250  12.688  11.865 -0.1503  0.2961  0.0765
19629W        W35813   7.768  14.182   3.288 -0.1125  0.2385  0.0289
19630W        W35814   7.525  16.360  14.976 -0.1155 -0.0873  0.0074
19631W        W35815  10.789   4.604   2.985 -0.0189  0.1043  0.0773
19632W        W35816   8.951  16.215   4.312 -0.1965  0.1328 -0.0248
19633W        W35817   5.066   1.410  14.771 -0.0774  0.2800 -0.2035
19634W        W35818   4.904   7.645   1.171  0.1394 -0.1069 -0.2885
19635W        W35819  16.576   4.053   4.590  0.0164  0.1599  0.0942
19636W        W35820   9.565  17.417  13.650 -0.2808  0.1938  0.0286
19637W        W35821   9.954  16.114  15.434  0.3067  0.1392 -0.0766
19638W        W35822  11.096  13.004  10.721 -0.1602 -0.0081  0.0247
19639W        W35823   2.875   2.518  12.192 -0.1436  0.2503  0.0418
19640W        W35824  10.008  10.093  12.537 -0.4385  0.0064 -0.2603
19641W        W35825   0.009  11.068   3.829  0.3332 -0.1887 -0.0630
19642W        W35826   5.732  11.921  14.197 -0.2035  0.1436  0.2001
19643W        W35827   1.633   7.550  13.812  0.3213 -0.3559  0.0818
19644W        W35828  11.569   6.456   0.961 -0.1442 -0.0406 -0.0476
19645W        W35829  15.939   7.778  12.851  0.0438  0.2924 -0.0637
19646W        W35830  14.182  11.890   2.599 -0.0408  0.0583  0.0390
19647W        W35831   6.624  11.227  12.860 -0.1257  0.0276 -0.0437
19648W        W35832  14.742   2.498   0.459  0.3872  0.1575 -0.4782
19649W        W35833  18.565  17.765  12.017  0.1354  0.5022  0.1021
19650W        W35834   3.399  13.115   2.411  0.1539  0.4271 -0.3049
19651W        W35835   8.729   7.967  10.520  0.0020  0.0971 -0.0294
19652W        W35836   5.502  15.958  13.074  0.0001  0.2411 -0.1388
19653W        W35837   4.424  17.642  14.784  0.0878 -0.0792  0.1653
19654W        W35838   5.572  12.565  14.029  0.1031  0.0500  0.2339
19655W        W35839   6.192  16.843   9.795  0.0099  0.2448  0.0938
19656W        W35840  10.117   2.953   2.841  0.2455  0.1955  0.1225
19657W        W35841  14.372  15.014  10.951 -0.1313 -0.0714  0.0532
19658W        W35842  15.176  16.348  12.365 -0.1651  0.2294  0.3345
19659W        W35843   7.944  12.842  10.678  0.1343 -0.0650 -0.0159
19660W        W35844   4.977   7.482  15.474 -0.1900  0.1215  0.1000
19661W        W35845  11.050   5.907   2.665  0.3023  0.0777  0.1560
19662W        W35846  14.450  13.218  14.717  0.3447  0.1854 -0.3288
19663W        W35847   9.998   9.780  15.439  0.2849 -0.1285  0.1853
19664W        W35848  14.224   7.523   1.032 -0.0223  0.2624  0.0346
19665W        W35849  10.378   1.175  13.220  0.0268  0.1274  0.2389
19666W        W35850  14.400   7.555  15.370  0.1825  0.2188 -0.1971
19667W        W35851   1.507  16.450   5.982 -0.3583  0.1155 -0.1043
19668W        W35852  11.693   5.431  15.087  0.0297 -0.0577  0.0222
19669W        W35853  16.693   3.639   1.011 -0.1621 -0.1706  0.0740
19670W        W35854  10.373   6.278   4.853  0.0114 -0.0826  0.3564
19671W        W35855  18.560  10.323  12.952  0.0601  0.1648  0.0148
19672W        W35856   3.904   8.093  10.927  0.3304 -0.2515 -0.0219
19673W        W35857  11.090  11.071  15.015  0.0655 -0.3427  0.0611
19674W        W35858   3.976  15.709   1.681  0.1181  0.1268  0.0555
19675W        W35859   8.773  12.641   1.089 -0.1683  0.0010  0.0133
19676W        W35860   4.203  12.053  15.376  0.1146  0.2745 -0.2601
19677W        W35861  15.751  11.572   0.080  0.0563 -0.0211 -0.0301
19678W        W35862  18.612  18.802  14.056  0.1352  0.2618 -0.3162
19679W        W35863   8.575  12.716  13.835 -0.2914 -0.2080 -0.0181
19680W        W35864   3.688   1.612  11.090  0.0025 -0.0088 -0.3592
19681W        W35865  13.092   6.473  10.981  0.2390 -0.2398 -0.0154
19682W        W35866  18.628   1.241  11.258 -0.1232 -0.1817 -0.0429
19683W        W35867   6.024   9.821  13.741  0.0082  0.0629  0.1581
19684W        W35868  11.761   5.888   0.339 -0.0990 -0.2233 -0.2545
19685W        W35869   5.654   5.355   0.349 -0.0253  0.1114 -0.2684
19686W        W35870   2.093   0.307   2.788 -0.2887  0.0757 -0.2223
19687W        W35871   2.287  14.487  12.578  0.3389 -0.0189  0.1141
19688W        W35872   2.244   7.252  12.512  0.0738  0.1747  0.0062
19689W        W35873   7.453   2.916  11.075 -0.1362  0.1931 -0.2105
19690W        W35874   4.926   9.641   1.983  0.0977 -0.2358  0.1266
19691W        W35875  16.706  18.828   5.507  0.1152 -0.2186 -0.0647
19692W        W35876  10.233  13.858   2.568 -0.2326 -0.0815  0.4379
19693W        W35877  13.124  18.242   2.413  0.0345  0.3766  0.2007
19694W        W35878  16.080   3.245  12.353  0.2148  0.0582 -0.3009
19695W        W35879   6.405  14.146   0.981  0.2342  0.0450 -0.1112
19696W        W35880   0.353   4.335  14.477  0.0855 -0.0084 -0.1948
19697W        W35881  12.397  13.544  11.310 -0.4559  0.3073 -0.1303
19698W        W35882   8.664  18.142   2.441  0.0664  0.0390  0.0374
19699W        W35883   8.397   0.887   5.007 -0.0779  0.2665  0.1586
19700W        W35884  12.935  17.655  13.827 -0.0882 -0.3021 -0.1138
19701W        W35885  15.025  17.600  11.365 -0.0783 -0.1192  0.1875
19702W        W35886   4.130   2.930  14.932  0.1193 -0.0880  0.1227
19703W        W35887  11.679  13.878   9.805  0.1667  0.3602 -0.1588
19704W        W35888   6.559  12.994   1.395 -0.2219  0.2598 -0.1645
19705W        W35889  17.856  16.933  10.099 -0.2669 -0.0874 -0.1006
19706W        W35890  17.175   5.074   5.665  0.0555 -0.0173  0.0014
19707W        W35891  17.188  10.971   4.855  0.1707 -0.2477 -0.2963
19708W        W35892   5.462  11.518  13.264  0.1508  0.1079 -0.2600
19709W        W35893   9.665   3.907  14.680 -0.2926  0.0867 -0.1074
19710W        W35894   2.582   2.470   5.799 -0.1225  0.1378  0.0681
19711W        W35895  10.958   2.687  15.421 -0.3816 -0.1573  0.1639
19712W        W35896   8.383  11.866  11.608 -0.1016 -0.0182 -0.0633
19713W        W35897   5.048   3.150  12.357  0.5029 -0.1130 -0.1073
19714W        W35898  17.698  16.490   3.768  0.1750 -0.2986  0.1961
19715W        W35899   3.596  12.581   1.439 -0.0200  0.1186  0.0512
19716W        W35900   1.563   7.132   2.517  0.0259 -0.2547  0.0493
19717W        W35901   5.649   9.074   1.393 -0.1388  0.2172 -0.2519
19718W        W35902  17.355  13.676   4.079  0.0686  0.0923  0.2800
19719W        W35903   9.606   9.989  14.776 -0.1294  0.2294  0.0973
19720W        W35904   0.292  13.562   0.243  0.0347 -0.2334  0.0519
19721W        W35905  18.477  13.955  15.114 -0.1278 -0.2044  0.1013
19722W        W35906   3.065   4.728   5.512 -0.2136  0.3074 -0.3357
19723W        W35907   7.384   2.513  12.159 -0.1356  0.0443  0.0953
19724W        W35908   3.210   1.975   1.764 -0.1407  0.4419  0.2068
19725W        W35909  12.169  12.885   0.773 -0.2719  0.3466 -0.2891
19726W        W35910   5.876   2.919   2.902  0.1165  0.1015  0.2292
19727W        W35911   7.479   3.366  14.921  0.0914 -0.2689  0.2262
19728W        W35912   7.588   5.588  14.887  0.2213 -0.0921  0.1685
19729W        W35913  18.845   6.291   5.119  0.1886 -0.0590 -0.4030
19730W        W35914   6.261  14.313   2.924  0.2250  0.4394  0.1618
19731W        W35915   5.023   7.751  10.660  0.1168  0.1184  0.2263
19732W        W35916  12.415   4.818  14.115  0.0835  0.3238 -0.1945
19733W        W35917   6.080   3.455  15.347  0.0413  0.0277 -0.1065
19734W        W35918   5.936   6.428   2.159 -0.4049  0.1742  0.2657
19735W        W35919  16.005   3.876   2.606  0.1165  0.0294  0.1372
19736W        W35920   7.597  11.727  14.384  0.2331 -0.1619  0.0703
19737W        W35921   1.060   8.880   2.091 -0.1540  0.0150 -0.1999
19738W        W35922  18.021   1.251   0.807  0.2741  0.2118  0.0067
19739W        W35923  11.159   7.251   5.063 -0.2902  0.1628 -0.2172
19740W        W35924   2.383   7.762   3.604  0.1902  0.0060 -0.0808
19741W        W35925  10.197  13.362  13.211  0.1909  0.1376  0.0414
19742W        W35926  16.410   2.182  11.206 -0.0766  0.0876 -0.0232
19743W        W35927  12.738   8.402  13.690  0.2697  0.0542 -0.0399
19744W        W35928  13.308  13.629  13.625 -0.0150  0.2946  0.1718
19745W        W35929  15.792  16.522  11.539  0.1830 -0.1141  0.1003
19746W        W35930  11.872  14.414   1.340 -0.3404 -0.0713  0.0806
19747W        W35931   1.283   1.031  12.197 -0.0230  0.1198 -0.2107
19748W        W35932  16.070  14.207   2.427 -0.0206  0.0272 -0.3321
19749W        W35933   5.236   0.713  12.086 -0.1541  0.0162 -0.1287
19750W        W35934   1.983   9.813   4.290  0.1020 -0.0827 -0.2185
19751W        W35935  10.369   7.873   2.132 -0.1114  0.4183  0.1844
19752W        W35936   0.187  12.895   5.395  0.0993  0.0050 -0.0256
19753W        W35937  14.890   0.582   5.391  0.2910 -0.1965  0.1885
19754W        W35938   1.831   4.331  11.993 -0.1573 -0.0226 -0.3846
19755W        W35939  10.153   4.971   4.375 -0.1850  0.0790  0.2281
19756W        W35940   8.730   5.396  10.529  0.2404 -0.1007  0.3435
19757W        W35941   4.592   3.928   1.058 -0.0290 -0.1667 -0.0559
19758W        W35942   5.435  13.703   3.805  0.0747 -0.0695 -0.1743
19759W        W35943   3.646  15.774  12.201  0.2949  0.2252  0.0945
19760W        W35944  11.099  17.126  13.306  0.2111 -0.0733  0.2006
19761W        W35945   6.410  13.821  15.481  0.0382 -0.3581  0.3777
19762W        W35946  16.996   8.645   1.642  0.1023  0.0335  0.2031
19763W        W35947   8.921  12.299   1.400  0.2855  0.1134 -0.2028
19764W        W35948   0.725   1.281  13.083  0.1108  0.0901  0.1161
19765W        W35949   3.155  16.857   2.203  0.3107 -0.0709  0.0175
19766W        W35950   8.992  10.078  11.027 -0.1038  0.1123  0.1860
19767W        W35951   8.801  10.292   2.998 -0.1817  0.1101  0.2013
19768W        W35952  15.392  12.636   1.793 -0.1071  0.0948 -0.0785
19769W        W35953  14.088   7.888   0.747  0.1232  0.0616 -0.0727
19770W        W35954  11.194  14.168   1.746 -0.0266 -0.1400 -0.3664
19771W        W35955   4.840   0.312   1.384 -0.0499  0.1370  0.2122
19772W        W35956   5.650  15.507  12.574 -0.1966 -0.2703 -0.0026
19773W        W35957   6.221   6.771  12.351 -0.1491 -0.0101  0.0370
19774W        W35958  16.671   1.153   3.274 -0.1066 -0.0003 -0.0246
19775W        W35959  16.608   6.496  10.782 -0.0565  0.0843 -0.2889
19776W        W35960  11.345   3.038  12.461 -0.1834 -0.0756 -0.0024
19777W        W35961  11.872  17.286  15.374 -0.0413 -0.0840 -0.1662
19778W        W35962  15.165   7.125   0.944  0.2016 -0.1914  0.3559
19779W        W35963  18.158   9.032  12.156  0.1135 -0.1169  0.0079
19780W        W35964   7.305  11.290  12.002  0.3034 -0.1641 -0.3619
19781W        W35965   4.322   1.909  13.901 -0.0360 -0.0002 -0.2768
19782W        W35966   9.325   3.059  13.564  0.3382 -0.0677 -0.0946
19783W        W35967  11.273  16.382   5.934  0.3566 -0.0495  0.2777
19784W        W35968  17.331  17.436   4.104  0.3266  0.1531  0.0493
19785W        W35969  16.925   2.451  15.231  0.0915  0.0258 -0.1838
19786W        W35970   5.818   6.483  15.112  0.1804 -0.0380 -0.1020
19787W        W35971   3.028   7.754  12.478  0.1507  0.0926 -0.0340
19788W        W35972  17.677   1.974   0.213 -0.1814  0.0117 -0.2044
19789W        W35973  13.829  15.991   3.353  0.0621  0.1245  0.2743
19790W        W35974   2.798   0.618  12.343  0.0276 -0.1235 -0.0162
19791W        W35975  18.435  17.740   4.293  0.0838 -0.0230  0.4966
19792W        W35976  13.049   3.054   4.627 -0.1046 -0.2058 -0.3152
19793W        W35977  17.388  14.310   1.648  0.1980 -0.1477 -0.3192
19794W        W35978  14.774   5.019  13.079 -0.1821 -0.2213  0.1882
19795W        W35979   9.078  17.588   0.223 -0.1591 -0.1063  0.0772
19796W        W35980  15.951   1.260   1.563 -0.1692 -0.0101  0.0807
19797W        W35981  16.727  17.486   0.836 -0.2626 -0.1528  0.1570
19798W        W35982   5.329  16.721   3.825  0.0820  0.0432  0.0018
19799W        W35983   9.627  11.667   4.329 -0.0378  0.3245 -0.2576
19800W        W35984  12.097  10.402  13.812  0.1807 -0.2004 -0.0742
19801W        W35985  10.492  17.822  11.749  0.0474  0.3115 -0.0507
19802W        W35986   0.230  18.534   3.180  0.1153  0.0125 -0.3122
19803W        W35987  15.215   1.861  13.394  0.0423  0.0685 -0.0105
19804W        W35988   8.347  15.884   9.857  0.2654 -0.2834 -0.0241
19805W        W35989   9.139   0.522  15.269  0.0191  0.0045  0.3174
19806W        W35990   1.809   1.879  12.457  0.0957  0.2996  0.2329
19807W        W35991   1.889   9.968   1.980  0.0387 -0.1937 -0.1470
19808W        W35992  12.126  18.726   3.988 -0.1109 -0.0091  0.2352
19809W        W35993   3.230   1.430  11.172  0.1802 -0.0679 -0.1050
19810W        W35994   9.106   5.684   2.088  0.0549  0.0371 -0.1528
19811W        W35995   7.597  14.211   2.398 -0.1669  0.3398  0.1229
19812W        W35996   9.618  15.587  15.343  0.1352 -0.1035  0.1442
19813W        W35997  15.839   6.226  14.545 -0.1752  0.1264 -0.2172
19814W        W35998  14.170  11.630   4.070 -0.0502  0.3562  0.1059
19815W        W35999  15.334  15.439   4.160  0.1591  0.0288  0.3950
19816W        W36000  16.001   8.450  10.821 -0.0990  0.3169  0.0433
19817W        W36001   5.872   2.067   3.541  0.0165  0.2794 -0.3251
19818W        W36002  13.205   4.419   3.118  0.0522 -0.3020  0.0276
19819W        W36003  10.606   4.297   3.750 -0.0689  0.0049 -0.1967
19820W        W36004   0.317   1.301   9.761  0.0333 -0.0198  0.0944
19821W        W36005  13.675   8.204   2.856 -0.0432 -0.2364  0.0133
19822W        W36006   1.472  16.571  12.663  0.0312  0.0886 -0.1031
19823W        W36007  16.269   1.070  14.391  0.0104 -0.2867  0.2537
19824W        W36008  17.078  14.199  13.389  0.0914  0.3318  0.0598
19825W        W36009   4.578  17.861   0.612  0.1581  0.2233 -0.0625
19826W        W36010  11.812   2.494   0.689  0.1604 -0.2412 -0.0928
19827W        W36011   2.167   5.987   1.619 -0.2266  0.1120  0.0405
19828W        W36012   0.817   4.835  13.237  0.0294  0.4262  0.0830
19829W        W36013   3.300   6.664  10.719  0.0174 -0.0547 -0.2630
19830W        W36014   7.231  10.835   4.593  0.0692  0.1517 -0.2233
19831W        W36015   5.830  16.939   1.238  0.0031  0.1962 -0.1271
19832W        W36016   7.799  11.227  10.442  0.2125 -0.1876  0.0029
19833W        W36017   1.709  18.259   5.770  0.2233  0.1510  0.0768
19834W        W36018  15.837   8.443   1.386  0.0338 -0.0306 -0.2673
19835W        W36019  15.216  15.376  12.925  0.0347 -0.2199  0.1021
19836W        W36020  18.256   6.163  11.347 -0.3545 -0.1271 -0.1014
19837W        W36021   7.119   8.944   0.202  0.0901  0.0232 -0.1990
19838W        W36022  14.956  11.755  15.528  0.2597 -0.0080 -0.0830
19839W        W36023   2.442  14.451  12.090 -0.1302  0.0680 -0.1410
19840W        W36024   9.369  16.691  11.137  0.0195 -0.1073  0.0857
19841W        W36025  17.274  10.511   5.023 -0.3163  0.0701  0.0050
19842W        W36026  16.137   6.561   5.034  0.0564 -0.3448  0.3676
19843W        W36027  16.395  11.135   5.299  0.2576 -0.1415 -0.2268
19844W        W36028   6.060   0.344  10.463  0.1668  0.3923 -0.1723
19845W        W36029   4.231  15.347  15.249  0.1055 -0.1783 -0.0130
19846W        W36030  16.143   3.083   9.989  0.2595  0.2852  0.1002
19847W        W36031   4.172   3.727  12.626  0.1367  0.1492 -0.0732
19848W        W36032   0.293   2.266  11.545  0.3706 -0.0729 -0.0184
19849W        W36033   5.204   6.093   0.104  0.1619  0.0243 -0.1126
19850W        W36034  13.493   9.193  12.451 -0.0930  0.2164  0.0898
19851W        W36035  10.575  15.419  15.098  0.2859 -0.2926 -0.4270
19852W        W36036  13.990   5.406   3.008  0.2222  0.2300  0.3976
19853W        W36037   1.753  17.111  14.564  0.3185  0.0437  0.0937
19854W        W36038  16.427  13.234   0.559 -0.2738  0.3196 -0.0327
19855W        W36039   9.975  10.858   4.714 -0.0293  0.4184  0.0087
19856W        W36040   9.349  11.750   5.383  0.1485  0.1999  0.0355
19857W        W36041  18.539  18.076  10.766  0.1065  0.0317  0.1189
19858W        W36042   0.909   7.713  12.216 -0.1318  0.0206 -0.1549
19859W        W36043  10.016   8.478   5.008  0.0381 -0.4047  0.2297
19860W        W36044   5.321  17.135  15.405 -0.0956  0.4434 -0.0378
19861W        W36045  18.043   4.726   4.931 -0.0409  0.0858 -0.2520
19862W        W36046   7.900  11.689  10.709  0.0018 -0.2233  0.1325
19863W        W36047   8.726   5.592   2.847  0.0751 -0.1676  0.1878
19864W        W36048  10.532   3.150   0.832  0.2091 -0.1866  0.1126
19865W        W36049   8.989  17.110  11.309  0.0716  0.2033 -0.2774
19866W        W36050  15.228  18.092   4.972 -0.0623 -0.0252  0.1651
19867W        W36051   8.329   6.644  13.923 -0.1849  0.0401 -0.0466
19868W        W36052  14.497   1.154  12.410 -0.1101 -0.1371 -0.0481
19869W        W36053   8.587  16.034  13.120  0.0377 -0.3053  0.1899
19870W        W36054   8.713  17.633   3.855  0.2232 -0.0596 -0.1680
19871W        W36055  12.826  15.316   1.635  0.0517 -0.2938  0.0916
19872W        W36056  16.601  10.318  12.117  0.1392 -0.0908 -0.0180
19873W        W36057   4.867   1.080   1.264  0.0200 -0.2873 -0.0901
19874W        W36058  10.984   3.595  14.968  0.0496  0.0521  0.1073
19875W        W36059   1.675   1.034   2.128 -0.4337 -0.7121 -0.1547
19876W        W36060   9.750  16.318   0.718 -0.1097 -0.0204 -0.0860
19877W        W36061   1.071  17.641   1.907 -0.0642 -0.1723  0.0559
19878W        W36062  11.396  14.041   0.664 -0.0216  0.1413  0.0185
19879W        W36063   1.506   2.896   2.964  0.0694  0.3564 -0.2043
19880W        W36064   7.210  15.349  11.215  0.1424  0.1056 -0.4023
19881W        W36065   1.939  11.949  12.283  0.0651  0.1793 -0.1197
19882W        W36066   6.949  15.831   5.829  0.0550  0.0970  0.1910
19883W        W36067   1.449  18.812  11.441  0.0742 -0.3456  0.2404
19884W        W36068  14.216   5.138  14.294 -0.3402  0.0202  0.2921
19885W        W36069  18.207   9.201   0.526 -0.4356  0.1196  0.0704
19886W        W36070  10.743  13.809   2.551 -0.1754 -0.0561  0.0568
19887W        W36071   8.314   4.329   3.528 -0.5025 -0.0134  0.2653
19888W        W36072  11.947   9.971  14.206  0.2236 -0.0086 -0.1632
19889W        W36073  18.607  11.124   1.247  0.2659 -0.1222 -0.2314
19890W        W36074  13.145  17.159   4.267  0.2025  0.5425 -0.2952
19891W        W36075   7.811  11.384  12.744  0.1343  0.2479 -0.0991
19892W        W36076   8.600  13.497  15.245  0.2850 -0.0250  0.2540
19893W        W36077   8.023  10.836  14.455  0.4404  0.0926 -0.0513
19894W        W36078   6.772  18.153   1.584 -0.1688 -0.0547 -0.1376
19895W        W36079  10.005  18.237   4.202 -0.2925 -0.2967 -0.2088
19896W        W36080   0.481   5.551   3.859  0.2880  0.0905 -0.1459
19897W        W36081  14.977   9.163  13.014 -0.0958  0.0062 -0.0553
19898W        W36082   4.487  15.877   1.033  0.7099 -0.4091  0.1530
19899W        W36083  15.032   8.275  14.391  0.3358 -0.0173  0.0710
19900W        W36084  11.529  17.207  14.066 -0.3170  0.2810  0.0472
19901W        W36085  14.782  11.086   3.021  0.0055 -0.2736  0.0807
19902W        W36086   1.430   8.200  14.372  0.0717  0.2232  0.0532
19903W        W36087   4.245   0.033  13.564  0.2036 -0.0222 -0.1878
19904W        W36088  15.268   5.220  11.188  0.4855  0.1327 -0.0575
19905W        W36089   2.168   4.725  11.016 -0.0327  0.0629  0.2620
19906W        W36090  11.873  18.029   3.407  0.1148  0.2008 -0.1502
19907W        W36091  11.175   8.327  14.080 -0.0397 -0.1556 -0.0404
19908W        W36092   6.552   0.826   1.326 -0.2048 -0.3477 -0.0843
19909W        W36093  13.441  15.263   0.925  0.1985 -0.3157 -0.2624
19910W        W36094   6.470   5.684   1.079  0.3132  0.0165  0.0830
19911W        W36095  13.765  18.688   5.044 -0.1685  0.1238 -0.3854
19912W        W36096  10.768  10.034  13.756 -0.2041  0.0509  0.1286
19913W        W36097  12.963  12.745   1.773  0.1724 -0.3640 -0.1283
19914W        W36098  16.475  10.066  11.168  0.1827  0.0181 -0.0205
19915W        W36099   6.405  11.975   4.885  0.0053 -0.0992  0.0413
19916W        W36100   0.310   3.451   4.009 -0.1792 -0.0628  0.2251
19917W        W36101   2.658  18.459  12.401  0.0174 -0.2074 -0.1053
19918W        W36102   9.659   1.509  11.321  0.2158 -0.0855  0.3044
19919W        W36103  10.389  10.514   0.008  0.1678 -0.0438 -0.0383
19920W        W36104  15.623  17.673  15.215  0.1403  0.4797  0.1127
19921W        W36105   6.601  12.066  13.543 -0.4332 -0.0229  0.0121
19922W        W36106   0.612   7.027   2.765  0.2204 -0.0400  0.0022
19923W        W36107   6.808  14.963  14.538 -0.2276 -0.0401 -0.0006
19924W        W36108  17.565  17.827   3.915 -0.2069  0.0020 -0.1065
19925W        W36109   3.966  16.715   3.848 -0.3725 -0.1334  0.1397
19926W        W36110   5.504   6.260   2.760 -0.0125 -0.1685  0.1115
19927W        W36111   0.313   8.205  11.113 -0.0971 -0.1475  0.1746
19928W        W36112   9.836   7.389   3.438 -0.2560  0.1468  0.0961
19929W        W36113  10.761   4.544  13.772  0.1627  0.1388 -0.3217
19930W        W36114   1.059   1.639  12.982 -0.3055 -0.0766  0.2554
19931W        W36115  14.880   0.975   0.731  0.3271  0.0014 -0.2548
19932W        W36116   5.888  12.529   1.664 -0.2621  0.2595  0.1200
19933W        W36117  10.813  13.110  14.118 -0.0787 -0.2891  0.0192
19934W        W36118   7.915   6.783  10.833 -0.0400  0.0869 -0.1392
19935W        W36119   2.511   5.769  14.784 -0.2052  0.0864  0.3105
19936W        W36120   3.618   2.678   2.074 -0.1579  0.0341 -0.1954
19937W        W36121   5.567   9.507   5.275 -0.1150  0.0541 -0.1456
19938W        W36122   7.879  13.720  13.302 -0.1127 -0.1837 -0.3551
19939W        W36123   9.637  15.963  14.487  0.3098  0.0082  0.0006
19940W        W36124   0.265   1.885  12.406 -0.1940  0.3008  0.0509
19941W        W36125  16.139  12.864   0.318  0.1290  0.1332  0.1847
19942W        W36126   5.918   4.197   2.650 -0.0492  0.1487  0.0663
19943W        W36127  12.006  18.678  14.700 -0.2863 -0.0014  0.2325
19944W        W36128   4.918  14.808   0.095  0.0915  0.0423  0.3518
19945W        W36129  18.778   9.822  10.934  0.3745  0.1347 -0.1014
19946W        W36130  13.159   4.594  15.045  0.1902  0.1091 -0.0060
19947W        W36131  15.716   4.467   0.558 -0.2010 -0.0414 -0.6155
19948W        W36132   5.979  14.396   1.507 -0.0195  0.0518  0.1922
19949W        W36133  18.498   6.006  12.274 -0.3334 -0.0100 -0.1828
19950W        W36134  13.817  15.034  10.867 -0.2413 -0.3481 -0.0447
19951W        W36135  17.377  14.086   2.450 -0.2364  0.1610  0.2112
19952W        W36136  17.233   7.737   0.104  0.0548  0.1593  0.1529
19953W        W36137   9.638   9.816   4.403 -0.1211  0.0324 -0.2435
19954W        W36138  17.363   0.284   3.348 -0.0756 -0.1861 -0.3756
19955W        W36139  11.280   7.947  12.117  0.0102  0.2660 -0.1936
19956W        W36140   6.308  17.694  13.165  0.0187 -0.1433 -0.2326
19957W        W36141  14.182   9.225  14.419  0.2273 -0.0836  0.4542
19958W        W36142  18.601  10.618   5.270 -0.0719  0.4463 -0.1794
19959W        W36143   9.495   8.953   4.557  0.0251  0.1095 -0.1233
19960W        W36144  15.576  10.024   4.136 -0.0170 -0.3802 -0.1517
19961W        W36145  10.076   5.516   0.032 -0.0856 -0.1477  0.3199
19962W        W36146   3.115   7.720  13.839  0.1466  0.2206  0.0457
19963W        W36147  12.753   6.156   0.261  0.0693 -0.0084  0.0099
19964W        W36148   4.276   3.385  15.111 -0.1678  0.0577  0.1225
19965W        W36149   9.670  10.278  11.076 -0.0659 -0.2848 -0.2647
19966W        W36150  15.123  14.823  14.870  0.2825 -0.2062 -0.2382
19967W        W36151  14.634  16.793  12.924 -0.1640 -0.0138  0.0895
19968W        W36152  13.726  10.384   3.718 -0.2759 -0.1662  0.0361
19969W        W36153   3.024   9.373   4.033 -0.1837 -0.0492  0.2963
19970W        W36154   7.142  10.819  15.375  0.3757 -0.1401 -0.2572
19971W        W36155  15.696  11.936  12.275 -0.1962 -0.0846 -0.0700
19972W        W36156   0.239   3.264  11.529 -0.0169  0.0237 -0.1489
19973W        W36157  18.088   8.501  14.767 -0.1794  0.1421  0.2459
19974W        W36158   6.503   4.791  12.479  0.1739  0.0549  0.0998
19975W        W36159  12.314   4.763   1.658 -0.1593  0.0002  0.2553
19976W        W36160  12.401  10.924   5.840  0.3286  0.1826  0.0212
19977W        W36161   8.210  14.520   3.520  0.0235 -0.0919 -0.2018
19978W        W36162  16.339   9.215  11.662  0.0601  0.0376 -0.1258
19979W        W36163   3.826   1.507   5.316 -0.1621 -0.0108 -0.1079
19980W        W36164  17.536  11.716   2.263  0.2920 -0.1981  0.1411
19981W        W36165  15.226  12.450  14.225  0.2029 -0.1448 -0.0705
19982W        W36166  13.375   3.253  10.792  0.1031  0.4509  0.2651
19983W        W36167   6.227   7.382  12.138  0.3188  0.0813 -0.1010
19984W        W36168   0.526   0.967  12.717  0.0547  0.4629  0.0188
19985W        W36169  11.673   7.926   3.178 -0.1934 -0.0848  0.0038
19986W        W36170   7.605   0.196  11.569  0.1709  0.0895 -0.2275
19987W        W36171  10.530   0.735   3.252 -0.0445 -0.3325 -0.3460
19988W        W36172  16.408   6.888   0.749  0.0499  0.1725 -0.2927
19989W        W36173  13.687   0.607  12.873 -0.2012 -0.0055 -0.3965
19990W        W36174   0.759   3.784  15.231  0.1922 -0.3773 -0.1747
19991W        W36175  11.302   3.291   2.893  0.0160  0.1994  0.3869
19992W        W36176   1.350   0.072   1.119  0.1541  0.1848  0.1973
19993W        W36177   4.462  16.800   0.806 -0.1576 -0.2625  0.0850
19994W        W36178   5.581  15.458  15.026 -0.4110  0.1748 -0.2091
19995W        W36179  16.994  10.202  12.567  0.0996  0.0770  0.0450
19996W        W36180  14.354   0.563   5.306 -0.0354  0.0813 -0.0395
19997W        W36181  14.189  14.578  12.447 -0.1065 -0.2391 -0.1164
19998W        W36182  15.422  13.197   2.345 -0.0118  0.2762  0.0858
19999W        W36183  13.466   0.285  13.827 -0.1415 -0.0575 -0.0926
20000W        W36184   0.449   5.045   4.079  0.1475  0.0879  0.1172
20001W        W36185  10.051   9.524   1.159 -0.0814  0.2483  0.1545
20002W        W36186  12.621   7.898   5.580  0.2112  0.1869  0.1051
20003W        W36187  18.377  17.301   9.717 -0.0127  0.0877  0.2346
20004W        W36188   4.677   8.796   1.496  0.3164  0.1901 -0.0541
20005W        W36189  18.137   7.376   4.855 -0.3247 -0.0522 -0.0751
20006W        W36190   2.285  17.180   1.441 -0.5717  0.0762  0.2212
20007W        W36191  17.705   6.908   1.707  0.0591  0.2148 -0.1072
20008W        W36192  14.353   7.339   0.587 -0.2608  0.1240  0.2198
20009W        W36193  16.458  17.538  13.859  0.1185 -0.3367  0.2841
20010W        W36194  16.378   2.702   1.423 -0.2059 -0.0833 -0.0343
20011W        W36195   2.986   5.717  11.698 -0.0768  0.1358  0.1323
20012W        W36196  12.905  10.092  14.694  0.0925  0.0998 -0.2925
20013W        W36197  10.473   4.374  14.563  0.1939 -0.2392  0.1450
20014W        W36198   6.543  11.332   3.937  0.0399 -0.3053 -0.2595
20015W        W36199  15.010   6.863  14.004  0.2440  0.2282  0.4035
20016W        W36200  10.695  16.492  11.877  0.0831 -0.2544 -0.1031
20017W        W36201   0.178   0.024  13.712  0.1252 -0.1755  0.0611
20018W        W36202   1.831   6.619  13.023  0.2008 -0.0043 -0.1425
20019W        W36203  13.504  11.233  12.005  0.0746  0.0373 -0.1584
20020W        W36204  10.517   0.920   0.919 -0.0433  0.0268 -0.0727
20021W        W36205  10.485  14.573  15.259  0.3622 -0.1599  0.1485
20022W        W36206   2.463   4.006   4.174 -0.4984 -0.0769  0.0060
20023W        W36207  14.362  10.279  14.828  0.1849 -0.1680  0.2654
20024W        W36208  12.525  10.120  11.430  0.0322  0.0053 -0.1297
20025W        W36209  12.766  12.917  13.018  0.2221  0.1150  0.1557
20026W        W36210   1.851   9.583  11.213 -0.2060  0.0984  0.0672
20027W        W36211   9.118   1.807  14.464  0.0472 -0.1219  0.5302
20028W        W36212  18.339   9.286  14.284 -0.4202  0.1778 -0.0705
20029W        W36213  17.336  14.014  14.631  0.2708  0.1879  0.0649
20030W        W36214  10.972   3.833   4.413  0.2009 -0.2185 -0.2149
20031W        W36215  14.615  12.345  12.600  0.0007 -0.2252 -0.3404
20032W        W36216  13.285  11.238  15.143 -0.0509  0.4230  0.0258
20033W        W36217   2.091  10.163  13.787 -0.1117  0.0585  0.0387
20034W        W36218  13.690  11.183   5.383 -0.1733 -0.1453 -0.0310
20035W        W36219  15.728  11.909   4.100  0.2993  0.1099 -0.0962
20036W        W36220  14.897  15.460  14.611  0.0955  0.1512 -0.0592
20037W        W36221   2.682  15.208   1.997 -0.1416 -0.3383  0.0194
20038W        W36222   1.385   6.156   3.327 -0.1394  0.1160  0.0801
20039W        W36223   1.714  10.922  12.550  0.0903  0.1841  0.0036
20040W        W36224   2.708   6.176  12.921 -0.0646  0.3272  0.0622
20041W        W36225   0.292  14.107  14.415  0.1969  0.2631 -0.0558
20042W        W36226  14.349   7.400  13.645 -0.0369  0.0051 -0.2190
20043W        W36227  13.674   1.838   3.119 -0.1365  0.0809 -0.1162
20044W        W36228   7.774   9.878  14.816  0.3032  0.2472  0.1179
20045W        W36229   7.583  18.066  13.524  0.2221  0.0571 -0.1407
20046W        W36230  18.092   6.232  14.192 -0.0544 -0.1129 -0.0718
20047W        W36231   1.190   2.039  10.471  0.0169 -0.0948 -0.1379
20048W        W36232   1.583  17.100   3.539  0.1966 -0.1183 -0.1549
20049W        W36233  15.578  17.703  12.246  0.2752 -0.3336  0.1602
20050W        W36234   6.119   7.135   2.830  0.2286  0.3325  0.2255
20051W        W36235  17.813   6.640  12.825  0.0576 -0.6426 -0.2536
20052W        W36236   6.555   5.601  11.750  0.0750 -0.1549  0.0334
20053W        W36237   9.482  18.084   3.663 -0.1916 -0.0829  0.5203
20054W        W36238  11.391  10.776   5.702  0.1719 -0.0674  0.0266
20055W        W36239  13.995   4.587  13.495 -0.0902  0.0844  0.2069
20056W        W36240  15.173  11.625  12.364  0.0627 -0.0284  0.0083
20057W        W36241  16.192   0.246   5.102  0.1842  0.1629  0.0614
20058W        W36242   1.277   3.242   2.729 -0.3000 -0.0299  0.1708
20059W        W36243  15.566   5.398   9.952 -0.1990  0.0840  0.0861
20060W        W36244  14.524  14.011  13.121  0.1193  0.1513 -0.0382
20061W        W36245  16.506  14.042  15.009 -0.0480 -0.0040  0.0563
20062W        W36246  15.506  12.422  15.147  0.4426 -0.1877  0.3095
20063W        W36247   9.025  13.602   1.739 -0.2345 -0.0099  0.0600
20064W        W36248   2.308  10.409  11.571  0.0973 -0.1169 -0.0167
20065W        W36249  14.287   6.208   2.349  0.0548 -0.2337  0.0838
20066W        W36250  14.435  13.439  13.822 -0.1224 -0.3752 -0.3320
20067W        W36251   0.474  10.339   1.204 -0.0264 -0.4361  0.1309
20068W        W36252   9.358  14.505   0.750 -0.0447 -0.1144  0.1183
20069W        W36253   7.331   1.113  15.114  0.0251 -0.0909 -0.0768
20070W        W36254  16.323   4.786   9.680 -0.2981 -0.2113  0.0709
20071W        W36255   4.398   6.448  11.986 -0.0563  0.0416  0.1307
20072W        W36256   9.197  13.657  12.613 -0.0425 -0.3763 -0.0167
20073W        W36257   9.950   2.650  11.409 -0.0937  0.1402 -0.1584
20074W        W36258   9.524  16.761  14.038  0.2243  0.0996  0.0045
20075W        W36259   9.785   2.676   2.563  0.0579 -0.1945  0.1180
20076W        W36260   7.212   8.967  13.969  0.0406  0.0522  0.1770
20077W        W36261  17.390  11.802  14.765 -0.0580 -0.2870 -0.1444
20078W        W36262   7.171  13.676  12.629 -0.2917 -0.1462  0.0051
20079W        W36263   5.275   7.706   4.052  0.1362 -0.3470 -0.2511
20080W        W36264   2.308   9.930  12.999 -0.2322  0.0563 -0.1148
20081W        W36265   2.564   1.478   1.023  0.2028  0.1071 -0.1641
20082W        W36266  18.470  17.867  14.255  0.2637 -0.1362 -0.0319
20083W        W36267  10.159  13.809  14.538  0.0639 -0.1536 -0.0694
20084W        W36268   1.387   7.853  13.490  0.0684 -0.0743  0.1181
20085W        W36269  14.222  14.994  12.985  0.0764 -0.0325 -0.0469
20086W        W36270  11.644  11.304   2.585  0.0282 -0.0833 -0.1575
20087W        W36271   7.032   7.844   2.136 -0.1858 -0.0111  0.1631
20088W        W36272  11.288  12.259   1.170  0.0681  0.0891  0.4119
20089W        W36273   2.066  14.405   2.336  0.2553 -0.0413 -0.0366
20090W        W36274   4.383   7.756   1.070  0.1499  0.1064 -0.1632
20091W        W36275  17.820  13.961  15.249  0.0453  0.1825 -0.1418
20092W        W36276  16.666   1.493  10.979  0.0464 -0.1419  0.1099
20093W        W36277  14.849  16.727  15.028 -0.0652  0.0693 -0.0266
20094W        W36278   3.544  10.578  13.454 -0.0162  0.1333  0.0792
20095W        W36279   3.293  16.025   0.210 -0.0337  0.1487  0.1763
20096W        W36280   8.096   3.108   4.438 -0.0320 -0.3930  0.1911
20097W        W36281  16.462  12.407   3.598  0.1414  0.1668  0.1679
20098W        W36282   8.901  16.043  11.199  0.0149 -0.0097  0.0775
20099W        W36283   5.287   1.999   2.890 -0.0190  0.0419 -0.1785
20100W        W36284  14.159  12.345  11.482  0.0538 -0.0544 -0.3832
20101W        W36285   5.705   0.005   2.525  0.1357 -0.1197 -0.0398
20102W        W36286   9.767   6.677   4.996  0.1477  0.3749 -0.0604
20103W        W36287  13.834   9.612   4.768  0.5858 -0.3854 -0.1734
20104W        W36288  16.758  12.619  13.025 -0.1643  0.0057 -0.1514
20105W        W36289   5.331   1.652  14.265  0.0892 -0.1823  0.1741
20106W        W36290   0.784  12.149   3.447  0.1390 -0.2758  0.1185
20107W        W36291   8.178   7.880  15.001 -0.0229  0.1145 -0.2444
20108W        W36292   5.730  15.951   1.504 -0.1067 -0.2145  0.1001
20109W        W36293  18.401  11.287   0.129 -0.0098  0.2412  0.0628
20110W        W36294   9.154  18.357   1.546  0.1529  0.1820  0.1460
20111W        W36295   9.927  15.043   0.662  0.0275 -0.1164  0.2246
20112W        W36296   5.021  13.024  10.467  0.0631 -0.1929 -0.0911
20113W        W36297  11.085  13.904   1.050 -0.0886  0.0427 -0.1153
20114W        W36298   8.556  11.506   0.388 -0.1442 -0.2814  0.0325
20115W        W36299  18.741   2.229   0.320 -0.2168 -0.2620 -0.1581
20116W        W36300   4.068   5.853   0.185  0.2043  0.2015  0.0246
20117W        W36301   8.515   2.454   3.321  0.3029 -0.0947 -0.0519
20118W        W36302   0.231   0.106   3.668  0.1974 -0.1359  0.1133
20119W        W36303   2.763  18.178  13.985 -0.0803 -0.1055  0.0316
20120W        W36304  10.465  14.257   2.361  0.2301 -0.1064 -0.1644
20121W        W36305   7.527  13.443   4.686 -0.2789  0.1179 -0.0294
20122W        W36306   2.917  15.762  15.152  0.0817  0.0435 -0.1201
20123W        W36307  14.125   3.403  14.967 -0.0720  0.0571  0.2329
20124W        W36308  18.740   0.796   1.676 -0.1238 -0.0508  0.1566
20125W        W36309   1.886  18.551  14.268  0.0043 -0.2135 -0.0604
20126W        W36310  11.214   6.451   1.298 -0.1519  0.1063 -0.0565
20127W        W36311  14.900   9.141   2.941  0.1452  0.1787 -0.0525
20128W        W36312  14.183  12.645  12.461 -0.4122 -0.0880  0.0671
20129W        W36313   8.355   9.243   4.506 -0.0248 -0.1006  0.0520
20130W        W36314   9.144   2.018  13.630  0.2154 -0.1783  0.0100
20131W        W36315   4.369   3.590  13.127 -0.1136 -0.1558  0.1882
20132W        W36316   1.559  11.838   0.694 -0.1640  0.2032  0.1892
20133W        W36317  14.593  13.500   2.023 -0.0529  0.0369  0.0828
20134W        W36318  14.372   2.931  13.049  0.1118  0.1938 -0.4671
20135W        W36319  11.899   8.644  14.337  0.0093 -0.0121 -0.0694
20136W        W36320  14.100  10.244   3.986  0.1051  0.0981  0.0188
20137W        W36321   1.873   8.553   2.522  0.3274  0.0911 -0.1484
20138W        W36322   9.822  11.780  14.898 -0.1372  0.1212 -0.1498
20139W        W36323   5.100   4.357  10.707 -0.0727 -0.1811 -0.1587
20140W        W36324   2.096   2.696   2.745 -0.2473 -0.1297 -0.1172
20141W        W36325  17.097  16.528   3.254 -0.0258 -0.0824 -0.1320
20142W        W36326   8.536   5.619   2.355 -0.3018  0.2371 -0.2628
20143W        W36327   8.148  13.348  14.262  0.0884  0.0393 -0.0595
20144W        W36328   8.316   4.092  15.216 -0.2271 -0.0934  0.1407
20145W        W36329   4.214  16.542   5.265 -0.0317 -0.0666 -0.1169
20146W        W36330   4.627  10.004  14.935  0.2362  0.2358 -0.0946
20147W        W36331   5.801   9.578  12.739  0.0142  0.2119  0.1046
20148W        W36332   3.281  18.829  11.275 -0.0750  0.3186  0.1223
20149W        W36333   9.112   8.420  13.061  0.0867 -0.0006  0.3793
20150W        W36334   2.500   4.185  15.437  0.1891 -0.2050 -0.1259
20151W        W36335  16.920  17.016   4.740 -0.1675  0.0387 -0.0109
20152W        W36336  12.524  16.818  12.716  0.0861  0.0467  0.0238
20153W        W36337   2.414  12.197  14.076 -0.1436 -0.3351 -0.0215
20154W        W36338  14.522   8.917   3.222 -0.0587 -0.2719 -0.1382
20155W        W36339   3.967   7.028   5.216 -0.0407 -0.0624 -0.2159
20156W        W36340  15.444   7.127   3.582 -0.0351  0.3948 -0.0369
20157W        W36341  17.956   5.686  14.325  0.3116  0.2701 -0.2931
20158W        W36342  10.978   8.150  13.046 -0.1462  0.0780 -0.1477
20159W        W36343   4.386   3.903  14.923  0.1461  0.2057  0.1166
20160W        W36344  10.383   3.070  13.278  0.0864 -0.1467 -0.1341
20161W        W36345   3.706  15.278  15.159  0.3042 -0.0705  0.1825
20162W        W36346   2.143  11.802   4.993 -0.0485 -0.0971 -0.3292
20163W        W36347   6.863  11.249  15.135 -0.1863  0.0307 -0.1609
20164W        W36348   6.673   9.289   2.931  0.1497  0.1821  0.1636
20165W        W36349  18.300   4.381   3.926 -0.2721  0.0722  0.0752
20166W        W36350   2.247  12.608  10.533 -0.3837 -0.0578 -0.6775
20167W        W36351   6.849  12.532   2.672  0.0833 -0.1921  0.0150
20168W        W36352  18.246   9.799  14.381  0.0322  0.1059  0.0103
20169W        W36353   7.782   7.276   2.974  0.1649 -0.2882 -0.0099
20170W        W36354  16.127   6.155  10.908 -0.0630  0.1920  0.2081
20171W        W36355  15.716  13.599   0.351  0.1180 -0.0794 -0.3706
20172W        W36356  15.069  17.303   5.047 -0.0603  0.2644  0.0648
20173W        W36357  15.027  17.065  14.196  0.0172 -0.0322  0.1935
20174W        W36358   1.343   4.133   1.515 -0.0579  0.2140  0.1640
20175W        W36359   6.945   3.269  12.648 -0.1624 -0.4863 -0.0544
20176W        W36360  16.501   1.676  14.765  0.0830  0.0267 -0.2417
20177W        W36361   5.255  11.812   0.713  0.1035  0.2893  0.0865
20178W        W36362   1.514  11.499  12.659  0.1184 -0.3995 -0.0161
20179W        W36363  17.810  16.578  14.607 -0.1674  0.0549  0.1383
20180W        W36364  17.714  15.468   2.619  0.2289  0.0363 -0.3757
20181W        W36365   0.785  15.928  11.695  0.0018  0.0950  0.0591
20182W        W36366  17.961  13.551   1.796 -0.1207  0.0324 -0.2694
20183W        W36367   3.876  11.415   1.745 -0.3659 -0.0216  0.0145
20184W        W36368   1.073  10.306   0.037  0.0192  0.0146 -0.0368
20185W        W36369   6.877   3.475   5.944 -0.0070 -0.0114 -0.0671
20186W        W36370   3.334   3.634  13.483 -0.1319 -0.0955  0.2976
20187W        W36371  16.479   1.647   4.381  0.0147 -0.1093  0.0499
20188W        W36372  13.367  10.280   4.541  0.0591  0.4606  0.2003
20189W        W36373   7.894   7.152  12.617  0.2003 -0.0381 -0.0643
20190W        W36374  14.769  13.665   2.989 -0.0735 -0.0013 -0.0906
20191W        W36375   5.531   1.784  13.413 -0.2218 -0.2655 -0.0016
20192W        W36376   7.555  18.366  11.454  0.1914 -0.0615 -0.1588
20193W        W36377   3.782  17.110   4.533 -0.1220  0.2206 -0.3157
20194W        W36378  11.067   1.910  11.860 -0.4623 -0.0385 -0.0101
20195W        W36379  18.517  12.972   2.282 -0.0860  0.2130 -0.1536
20196W        W36380   5.901   8.677   1.060  0.2567  0.5508 -0.0574
20197W        W36381   1.773  18.593   1.228  0.0184 -0.0766  0.1347
20198W        W36382  17.363  12.104  12.612 -0.1830 -0.1637 -0.1925
20199W        W36383  10.258   3.720   0.989  0.1881 -0.2665  0.1811
20200W        W36384  16.457  16.667   4.677  0.0944  0.0880  0.0694
20201W        W36385  10.247   8.884   3.801 -0.1476 -0.1267  0.2617
20202W        W36386  16.723  14.022   3.285  0.1124 -0.1793 -0.0773
20203W        W36387   7.211   4.602   0.565  0.1137 -0.0276  0.4365
20204W        W36388   1.614  17.094  14.069  0.2327  0.1207  0.1945
20205W        W36389   3.729  14.271   4.102 -0.1302 -0.3420  0.0835
20206W        W36390  10.545   4.646  12.822  0.2630 -0.1405 -0.0953
20207W        W36391  15.484   3.499  15.381  0.0146 -0.0279  0.0753
20208W        W36392   4.466   3.758   3.322 -0.1929  0.2460  0.1193
20209W        W36393   8.125  16.178  15.533  0.1933  0.2187  0.0471
20210W        W36394   4.083   3.599   1.732  0.0312  0.3369  0.0663
20211W        W36395  16.569  13.962   2.578 -0.2299 -0.4637 -0.1847
20212W        W36396  18.749  10.479   2.104 -0.2300  0.2855 -0.0171
20213W        W36397   3.537   3.270  14.170  0.1215 -0.0735  0.0449
20214W        W36398   5.137  10.808  15.164  0.1238  0.2957  0.1821
20215W        W36399   6.883  14.194  13.452 -0.4921  0.0210  0.0643
20216W        W36400  15.415  15.133   0.342  0.2074 -0.0668 -0.2572
20217W        W36401  14.141   9.895   0.125  0.1388 -0.0547 -0.0841
20218W        W36402  14.180  13.518  15.312  0.1286  0.0575 -0.2796
20219W        W36403   5.273  13.039   4.664  0.0008 -0.1398  0.2306
20220W        W36404  13.518  13.263   4.064  0.0538 -0.1569  0.2561
20221W        W36405   5.954  10.613   1.611  0.1576 -0.0079  0.2547
20222W        W36406   1.320  16.532   1.910  0.0298 -0.3770  0.2226
20223W        W36407  14.157   8.227   4.066  0.1201  0.1683  0.3038
20224W        W36408  17.568   6.845   0.245 -0.0971 -0.2062  0.0690
20225W        W36409   8.550   8.868  11.169  0.0693  0.0094  0.3068
20226W        W36410  10.728   7.283  10.232  0.2693  0.2263  0.1967
20227W        W36411   1.272  12.130  11.275  0.0111  0.2364 -0.1015
20228W        W36412  17.323  17.592  12.060 -0.3561  0.0197  0.0730
20229W        W36413   5.319   5.175   4.309  0.2486  0.1038  0.3472
20230W        W36414   6.342   0.404  13.422 -0.0227  0.1039 -0.1204
20231W        W36415   4.469  17.312   4.122 -0.3055 -0.1643  0.0132
20232W        W36416   5.336  12.895   9.695 -0.0612  0.0673  0.2202
20233W        W36417  12.007  17.062  13.614 -0.3540 -0.2299 -0.0691
20234W        W36418   0.496   5.568  12.169 -0.0150 -0.1525 -0.0188
20235W        W36419   5.797  13.403   1.709  0.0765 -0.2430 -0.0831
20236W        W36420   0.527  11.950  13.405  0.0701  0.2699 -0.0118
20237W        W36421   5.088  12.570   3.669  0.0343  0.0729  0.0931
20238W        W36422  13.556   0.810  13.776  0.0454 -0.0869 -0.0302
20239W        W36423   4.633   6.216  14.740 -0.1164 -0.0542  0.0800
20240W        W36424  12.216  11.584  13.673 -0.0639  0.1246  0.0859
20241W        W36425  13.753   7.306  14.440  0.0943  0.2392 -0.1105
20242W        W36426   6.310   6.866   4.699  0.1429 -0.0150  0.2430
20243W        W36427   4.891   1.369  14.236 -0.0210 -0.1785  0.3831
20244W        W36428  13.853   0.802   4.533  0.0352 -0.1815  0.3645
20245W        W36429  17.098  10.915   0.246  0.2130 -0.1320 -0.1334
20246W        W36430  11.614  18.576  13.007 -0.0609 -0.0397  0.1064
20247W        W36431  11.700  11.917   1.258 -0.1240 -0.0970  0.1229
20248W        W36432   3.935  15.955  14.485 -0.1389  0.2986 -0.0642
20249W        W36433  14.838  11.990   3.256 -0.0717 -0.3998  0.1134
20250W        W36434  15.387   0.651   2.693  0.1444  0.2268 -0.1861
20251W        W36435   9.654  11.621   5.818 -0.1249 -0.2771 -0.2006
20252W        W36436   4.856   9.261  12.363 -0.0391 -0.2441 -0.0361
20253W        W36437   2.217   4.469   0.922  0.2433  0.1326 -0.1092
20254W        W36438   6.820   3.474   3.836  0.0350  0.1858 -0.1461
20255W        W36439  13.507  15.810   3.700 -0.0727  0.1259  0.1043
20256W        W36440  15.011   5.251   1.252  0.2012 -0.2503 -0.3342
20257W        W36441  13.110  18.610   4.290  0.1707  0.3256  0.2102
20258W        W36442   2.732   8.883  11.792 -0.1474 -0.0680  0.1040
20259W        W36443  14.206   2.984   1.782  0.1419 -0.1040  0.2249
20260W        W36444   5.721  12.109  13.738  0.0010 -0.2736 -0.0354
20261W        W36445  16.466  11.995   4.598  0.0823  0.0152  0.0924
20262W        W36446  12.668  12.284  12.309  0.0082  0.2551  0.1292
20263W        W36447  14.398   9.839   5.682 -0.2298  0.1627  0.0837
20264W        W36448   5.576   4.786  11.305 -0.0676 -0.3612 -0.0555
20265W        W36449   3.842   2.793   1.017 -0.0159 -0.2136  0.1561
20266W        W36450  18.202  13.202  14.015 -0.4533  0.1101  0.2260
20267W        W36451   6.433  18.296   0.469 -0.0421 -0.1098  0.3288
20268W        W36452   8.313   4.743  13.604  0.3936 -0.0226 -0.1409
20269W        W36453  14.450   8.965  12.946  0.1367  0.0021  0.0654
20270W        W36454   8.967  15.782   4.650 -0.2876 -0.1956  0.0757
20271W        W36455  16.016  18.802  11.521  0.3454 -0.2122  0.0243
20272W        W36456  10.256   6.571  12.911  0.2698  0.2306  0.0333
20273W        W36457   3.967  11.362   2.306  0.0776  0.1505 -0.2612
20274W        W36458  10.156  18.531   1.489 -0.1151 -0.1599 -0.0886
20275W        W36459  15.663  16.605   3.986 -0.3177  0.0800 -0.0590
20276W        W36460   8.469  15.281   0.603  0.3296  0.0117  0.1303
20277W        W36461   5.120   2.805   0.925 -0.0488  0.2489 -0.0683
20278W        W36462  14.158   5.548  14.541 -0.0181 -0.0299 -0.1761
20279W        W36463   9.054   7.945   9.942  0.0285  0.1464 -0.2673
20280W        W36464   3.079   5.708  14.810  0.0015  0.1791  0.2334
20281W        W36465   7.878  13.391   1.620  0.1210  0.1318  0.0690
20282W        W36466  11.173   9.654   0.528 -0.0740  0.2433  0.0587
20283W        W36467  10.768  11.368   3.754 -0.3349  0.0819  0.2836
20284W        W36468   0.227   6.097   0.348 -0.1736 -0.3260  0.1035
20285W        W36469   4.409   8.918   2.009  0.0560  0.0705  0.0697
20286W        W36470  17.019   7.631  15.029 -0.3291  0.2937  0.1943
20287W        W36471  16.567   9.074  10.994 -0.0421  0.0584  0.0583
20288W        W36472  15.807   4.463   3.959 -0.1686  0.0808  0.0830
20289W        W36473  10.530  16.096   2.080 -0.3119 -0.0139 -0.2612
20290W        W36474  15.631   6.477  12.569  0.0162  0.0683  0.0523
20291W        W36475   2.744   4.024  13.247 -0.0797 -0.0095  0.0586
20292W        W36476   1.534  11.117  12.963  0.1660  0.1651  0.0011
20293W        W36477  17.644   2.437  14.814 -0.1803 -0.1125  0.0500
20294W        W36478   9.882  12.278   4.379  0.0871 -0.4723 -0.0788
20295W        W36479  18.115   2.803  12.179  0.0362  0.2054  0.0594
20296W        W36480  15.885   3.360   1.456 -0.1691 -0.0246  0.0249
20297W        W36481   3.195  16.018  12.238  0.5332  0.0004 -0.0687
20298W        W36482  14.395   4.331  14.907 -0.0430  0.0762  0.3194
20299W        W36483   0.962   3.580   2.842 -0.1066  0.1608 -0.0543
20300W        W36484  10.231   7.668   0.492  0.1942  0.0406  0.3496
20301W        W36485  11.516  10.035   3.627 -0.2195  0.2386  0.0996
20302W        W36486   9.476  18.579  14.306 -0.0118 -0.2955  0.0824
20303W        W36487   6.828   8.532   1.516  0.0612 -0.0459 -0.0018
20304W        W36488   8.317  11.495   1.940 -0.3582 -0.0980 -0.3813
20305W        W36489   6.348   7.942  10.530 -0.0181  0.2812  0.0683
20306W        W36490   7.840  15.376   2.621  0.0878 -0.0672  0.1211
20307W        W36491   5.090   6.050  14.266 -0.0129 -0.0442 -0.3171
20308W        W36492   5.662   2.827   1.942 -0.4676  0.4924 -0.0489
20309W        W36493   9.504  15.414   3.340  0.1360  0.0272  0.1752
20310W        W36494   8.368  16.752   2.957 -0.0049  0.2112 -0.1642
20311W        W36495   4.610  11.255  12.787  0.0387 -0.0800 -0.0582
20312W        W36496   4.485   4.227  14.547  0.0306 -0.0906  0.1600
20313W        W36497   4.688  12.006   0.297  0.1435 -0.2831  0.2022
20314W        W36498   2.465   7.482  14.894 -0.0306  0.2577  0.1227
20315W        W36499  14.284  16.819   3.361 -0.2605  0.0865 -0.0895
20316W        W36500  15.426   2.549  12.969 -0.1714 -0.2323  0.3516
20317W        W36501   7.883   8.262  11.565 -0.1370  0.2772  0.2209
20318W        W36502  10.656  15.154  15.522 -0.4878  0.4514  0.1502
20319W        W36503  16.131   5.756   1.333  0.0146 -0.0318  0.0596
20320W        W36504   7.581  11.026  11.242  0.2314 -0.3089  0.1106
20321W        W36505   0.130   5.357  11.841 -0.0255  0.0663  0.0231
20322W        W36506  10.785   5.012   0.410  0.0768  0.2341 -0.0272
20323W        W36507  14.165   7.921  14.599  0.0064 -0.3158  0.1398
20324W        W36508   6.787  11.114   5.008  0.0320 -0.1841 -0.0799
20325W        W36509  10.432   8.214   4.199 -0.1080  0.1849 -0.2013
20326W        W36510   5.790  17.528   3.432  0.0957 -0.2207  0.0032
20327W        W36511  16.851  16.822  14.193 -0.2996  0.0112 -0.0013
20328W        W36512   8.692  11.166   3.314 -0.2964 -0.2113 -0.0126
20329W        W36513   8.460  14.221   2.471 -0.3384 -0.1406 -0.1498
20330W        W36514   7.961   8.705  15.489  0.1455  0.1464  0.1404
20331W        W36515   5.986   6.220  12.226  0.0874  0.1899  0.3470
20332W        W36516  11.781  12.059  12.709 -0.1274  0.0054 -0.1011
20333W        W36517   6.909   3.641  10.844  0.1699 -0.0529  0.0589
20334W        W36518   5.409   3.218   3.682  0.0566 -0.0583 -0.2721
20335W        W36519   6.881   7.665  14.996 -0.0428 -0.1398 -0.1828
20336W        W36520  13.442   3.298  14.827 -0.3367  0.0173 -0.0452
20337W        W36521   3.119  10.971  14.632 -0.2151 -0.0467 -0.0656
20338W        W36522   2.273   5.036  14.117 -0.1201 -0.0824 -0.2655
20339W        W36523   3.959   6.322   3.902  0.3319 -0.2032 -0.1189
20340W        W36524  13.659  11.316   2.009  0.3048  0.1037 -0.3188
20341W        W36525   3.696  13.637   3.862 -0.2205 -0.0387  0.0580
20342W        W36526   2.270   5.657  14.318 -0.2487  0.1803 -0.0291
20343W        W36527   5.407   6.715   5.057  0.3190 -0.1750 -0.2717
20344W        W36528  13.640   5.489   4.403  0.2342  0.0943  0.1971
20345W        W36529   7.327   7.164   4.524  0.0349 -0.1976 -0.1084
20346W        W36530  13.712  13.529  10.927  0.0757 -0.3686 -0.2613
20347W        W36531   7.378  16.379   0.433 -0.2701 -0.0325 -0.2991
20348W        W36532   7.149   0.517   1.573  0.0523 -0.0737  0.0466
20349W        W36533   1.009   7.031  11.447 -0.1474  0.1254 -0.0127
20350W        W36534   4.879   2.869   2.316  0.1643  0.3786 -0.1829
20351W        W36535  16.832   6.374   3.281 -0.0790  0.1844 -0.1317
20352W        W36536  11.759  10.921   2.275 -0.2141  0.0308 -0.1888
20353W        W36537   1.330   2.857  13.991 -0.2095  0.0591  0.0458
20354W        W36538  17.280   6.608  12.929 -0.2544  0.1461 -0.1125
20355W        W36539  13.833  16.879  12.868  0.1076  0.0024  0.1605
20356W        W36540   1.815   8.913  11.936  0.2571  0.1155 -0.1125
20357W        W36541   8.745  15.584   0.178 -0.3384 -0.6035 -0.2580
20358W        W36542  18.661   7.151   9.554  0.3299  0.0240  0.3217
20359W        W36543  14.456   6.563  11.881 -0.0937 -0.0993  0.0827
20360W        W36544  13.159   0.109   2.199  0.3589  0.0518 -0.3468
20361W        W36545   3.037   1.637   4.697  0.0580 -0.0759 -0.1307
20362W        W36546  15.634   0.493   0.203 -0.0150 -0.1789  0.2767
20363W        W36547  15.812  18.796   0.280  0.0160  0.1242  0.1117
20364W        W36548   0.255  16.524  11.066  0.1105 -0.0982 -0.3698
20365W        W36549  12.591  11.996  13.385 -0.1068  0.2518 -0.0117
20366W        W36550  17.106   6.425  12.005  0.0003  0.0560 -0.1510
20367W        W36551   0.016  10.083  11.856 -0.2235 -0.0056  0.1121
20368W        W36552   9.585  15.507  11.750  0.0451  0.3483  0.1598
20369W        W36553  12.396  10.101  14.546 -0.5886  0.0027 -0.5149
20370W        W36554   7.352   7.630   0.662  0.1498  0.1439  0.0460
20371W        W36555   4.726  15.506   2.012 -0.1063  0.3034 -0.1705
20372W        W36556   6.306   0.635   2.441 -0.1766  0.1039  0.2879
20373W        W36557  15.887  13.367   0.772  0.1739  0.0617  0.1470
20374W        W36558   1.508   6.844   0.486 -0.0851  0.2243 -0.0128
20375W        W36559   1.247  14.052  11.538  0.2319 -0.0462  0.2788
20376W        W36560   1.447   0.769   1.724  0.0644 -0.0757 -0.0337
20377W        W36561  11.412  17.344   1.434  0.0110  0.1989 -0.1399
20378W        W36562  16.459  15.898  15.326 -0.0444 -0.3047 -0.5452
20379W        W36563  18.396  16.664   2.524  0.2986  0.3969 -0.0174
20380W        W36564  10.585   6.416  14.904 -0.0512 -0.0015 -0.0390
20381W        W36565   4.569   5.840   4.212  0.1392 -0.3371  0.0230
20382W        W36566   4.187  11.406  14.585  0.0740  0.1989  0.3746
20383W        W36567  15.129   2.265  12.114 -0.0762  0.4010  0.4448
20384W        W36568   9.241  14.098   5.140 -0.1175 -0.1662 -0.1772
20385W        W36569   2.627   2.023   5.295 -0.0799 -0.2175 -0.0011
20386W        W36570   1.877   7.775  13.283 -0.0682 -0.3537  0.0816
20387W        W36571   8.563  18.431  11.550 -0.1064  0.1442 -0.0854
20388W        W36572  17.479   1.747  13.785  0.0183  0.1049 -0.0252
20389W        W36573   3.782  13.464   0.124 -0.1267 -0.1444  0.0098
20390W        W36574   8.257  14.496   4.117  0.0514  0.4818  0.2009
20391W        W36575  11.769   0.142   3.517  0.3590 -0.0937  0.2277
20392W        W36576   8.516   9.747   1.124  0.0652  0.0979  0.0325
20393W        W36577  16.183   2.574  10.825 -0.4121  0.0255 -0.1538
20394W        W36578  15.246  10.269  11.904  0.0329 -0.1167  0.2844
20395W        W36579   7.467   6.167   1.600  0.0065  0.1471 -0.0428
20396W        W36580  14.716   2.059  13.488 -0.1649  0.0017 -0.3740
20397W        W36581   3.164   2.033  13.082  0.0131 -0.5007  0.3739
20398W        W36582   9.185   8.530   1.687  0.3720 -0.3326 -0.0272
20399W        W36583   6.105  18.496   5.199  0.1548  0.1877 -0.0264
20400W        W36584  15.863   3.511  10.724  0.1427  0.0660  0.1588
20401W        W36585  14.465   5.221   3.993  0.1461  0.2115  0.4472
20402W        W36586  12.494   0.218   1.414  0.0840 -0.1333 -0.0318
20403W        W36587  12.805   2.624   2.037 -0.4040  0.0448 -0.0305
20404W        W36588  11.734   3.414   2.762 -0.2647  0.0728  0.1139
20405W        W36589   4.860   0.295  13.153 -0.0670  0.0603 -0.3934
20406W        W36590   2.886  12.907   0.473  0.0522 -0.2324 -0.1575
20407W        W36591  16.230  16.093   3.419  0.4101  0.2152 -0.0145
20408W        W36592  15.478  10.479  13.280  0.0135 -0.2685 -0.2167
20409W        W36593   8.231   2.528  11.864  0.0836  0.1543  0.0515
20410W        W36594  12.444  16.204  14.474 -0.2505 -0.0458 -0.2211
20411W        W36595   9.281   0.676   0.188 -0.3805 -0.1431  0.1994
20412W        W36596  16.902  15.289  12.899  0.0599 -0.2122 -0.0082
20413W        W36597   6.229   9.169  12.078 -0.1223  0.0606 -0.4520
20414W        W36598  16.882   8.533   0.618 -0.1554 -0.0852  0.1041
20415W        W36599   7.564   1.102  14.564 -0.2165  0.5430 -0.1128
20416W        W36600   6.374  11.080  14.020  0.1070  0.0161 -0.1078
20417W        W36601   9.350   3.451   4.662 -0.1127 -0.2163 -0.0978
20418W        W36602   0.579   9.589  11.925 -0.1342 -0.0012  0.2968
20419W        W36603   0.421   2.457   2.636  0.2034  0.0750 -0.1953
20420W        W36604   5.435   4.229  15.461 -0.3013 -0.2054  0.2692
20421W        W36605   4.456  14.731   3.165  0.2056  0.3330  0.1592
20422W        W36606   3.774  13.521  10.908 -0.1470 -0.1015  0.0260
20423W        W36607   1.243   5.045   0.598 -0.2853 -0.2962  0.2941
20424W        W36608   5.973  12.476  12.530  0.2418 -0.0710  0.0466
20425W        W36609   6.494  11.801  13.098  0.0768 -0.2728  0.0358
20426W        W36610   6.657  17.752   0.794 -0.1038  0.0792 -0.1878
20427W        W36611   9.745  13.377   3.344  0.0602  0.0769  0.1346
20428W        W36612  16.356   7.423   5.469 -0.1618 -0.0462 -0.0175
20429W        W36613  11.895  15.864   1.923 -0.0225 -0.2576 -0.0605
20430W        W36614   4.883  17.079   0.172 -0.2122  0.0912 -0.0111
20431W        W36615   3.355  12.759  11.407  0.1892 -0.2931 -0.1369
20432W        W36616  10.402  10.592   2.825  0.0123 -0.0552  0.1445
20433W        W36617   0.193  15.344   0.681 -0.1670  0.0088 -0.2409
20434W        W36618   0.165  16.206  12.735 -0.1719  0.4256 -0.3860
20435W        W36619   6.735  15.546  13.812 -0.0830  0.2210 -0.1058
20436W        W36620  15.833   5.708   1.899 -0.2011 -0.1661  0.0670
20437W        W36621  17.572  12.621   4.881  0.1499 -0.0418 -0.0864
20438W        W36622  13.520   8.678   2.262 -0.0068 -0.2855  0.2449
20439W        W36623   0.533  11.293  15.221 -0.1640  0.0694  0.0293
20440W        W36624   4.571  18.666  11.095  0.0421 -0.0637 -0.0262
20441W        W36625   9.178   1.792   3.344  0.1472 -0.1414  0.1938
20442W        W36626  12.350  10.284   1.084 -0.1008  0.0530  0.1679
20443W        W36627   2.564   8.165  12.345  0.1713 -0.1251  0.2155
20444W        W36628   7.703  10.052  13.871 -0.0050  0.1876 -0.0687
20445W        W36629  14.894   3.551   0.078  0.1544 -0.0386  0.1156
20446W        W36630   0.739   0.963   5.014 -0.1081 -0.3764 -0.1055
20447W        W36631  18.151   6.052  11.852 -0.3520 -0.0657 -0.1507
20448W        W36632  13.763   5.840  14.342 -0.1400 -0.2078  0.0447
20449W        W36633  18.782   3.660  13.340  0.1185  0.2482 -0.0794
20450W        W36634  14.906  14.545   0.208 -0.1827 -0.0215 -0.1757
20451W        W36635   3.235  18.268   3.239 -0.0897 -0.2013 -0.1803
20452W        W36636   0.210  18.417   2.623 -0.2087  0.1712  0.1319
20453W        W36637  18.500   6.875  10.960 -0.4148  0.1374 -0.0308
20454W        W36638  13.765  15.052  13.746 -0.0271  0.0648  0.0390
20455W        W36639  10.033  17.596   1.177  0.2137  0.1100 -0.3147
20456W        W36640  18.715   4.555   3.518  0.2348 -0.2462 -0.2754
20457W        W36641   2.606   4.867  10.882  0.0113 -0.1161 -0.1005
20458W        W36642  17.526   5.919   4.599  0.1718 -0.0566  0.3479
20459W        W36643  17.193   8.790   0.936  0.0833 -0.0867  0.0750
20460W        W36644  11.620   6.765  12.568  0.0474  0.1389  0.1688
20461W        W36645   2.522   0.963  12.189  0.0441 -0.0172 -0.0007
20462W        W36646  17.878   6.325   3.430  0.1494 -0.2825  0.0854
20463W        W36647   9.841  13.354   3.989  0.1045 -0.0592 -0.0446
20464W        W36648  17.053  10.038   1.387 -0.2528  0.0778  0.2123
20465W        W36649  15.112  13.555  13.768  0.1896  0.1641 -0.0260
20466W        W36650  18.606   5.212   0.337  0.2545  0.0152 -0.0682
20467W        W36651   9.981   7.342  13.261 -0.0267  0.1253  0.1966
20468W        W36652   9.699   6.405   1.366 -0.1071  0.0876 -0.0898
20469W        W36653  15.726   3.870   0.120  0.0042  0.2183 -0.1241
20470W        W36654   2.673  13.064   4.367  0.0276  0.1390  0.1249
20471W        W36655   7.684  12.816   2.231 -0.1298 -0.3440 -0.1847
20472W        W36656   2.770   0.075  12.041 -0.6362  0.0976 -0.0966
20473W        W36657   0.702   0.879   1.875 -0.0040  0.1461 -0.1678
20474W        W36658  10.021  15.624  11.077  0.0253  0.2470  0.0741
20475W        W36659   3.502   3.810  14.672 -0.1501 -0.0571  0.1090
20476W        W36660   7.524   2.904   1.051  0.2896 -0.1208  0.1062
20477W        W36661  13.665   6.850  14.721 -0.0849  0.0817 -0.1282
20478W        W36662  15.762   2.092  15.082  0.2223  0.1979  0.2311
20479W        W36663   7.355   7.700  14.917 -0.0740 -0.1555  0.0435
20480W        W36664   2.572  14.251  10.863  0.1179 -0.1093 -0.1669
20481W        W36665  13.582   4.054   0.804 -0.1959  0.0006 -0.3504
20482W        W36666  13.971  13.645   1.113  0.3873 -0.1696 -0.1613
20483W        W36667  18.070  16.470   3.392 -0.1103  0.4445 -0.0008
20484W        W36668   9.711  13.506  12.755 -0.0217 -0.1342  0.1364
20485W        W36669  15.967  10.246  12.510 -0.1475 -0.0664  0.3361
20486W        W36670  13.848   4.910  14.488 -0.1272  0.4191 -0.1555
20487W        W36671  12.017   0.041   4.927  0.0952  0.2412 -0.1119
20488W        W36672   7.836   9.480  10.888  0.2921  0.2859 -0.0901
20489W        W36673   9.801   0.030   0.672 -0.2683 -0.0087 -0.1151
20490W        W36674  11.804   8.845  11.212  0.2875 -0.0996  0.0408
20491W        W36675   9.332  16.397   3.974 -0.1558  0.1704  0.2197
20492W        W36676  14.948   2.666   4.533 -0.2559  0.0045 -0.1179
20493W        W36677  13.108   7.472   4.772 -0.2842 -0.3107  0.6357
20494W        W36678  11.591   1.536  12.343 -0.1502  0.1528  0.2135
20495W        W36679  11.724  13.142   0.901  0.2297  0.0266 -0.0482
20496W        W36680   0.686   8.626   1.674 -0.0862 -0.1486 -0.0711
20497W        W36681   2.604  10.545   9.422  0.3134  0.1262  0.1941
20498W        W36682   3.329  17.514   5.162  0.0092  0.2243 -0.6751
20499W        W36683   9.456  13.132   2.788  0.1547  0.1781 -0.5213
20500W        W36684   9.215   0.324  12.557 -0.1525  0.3246  0.1040
20501W        W36685   8.662   5.382   0.866 -0.0701  0.2721 -0.1185
20502W        W36686  10.656  15.818  13.245 -0.2930 -0.1554  0.0110
20503W        W36687   2.002  13.117   5.915 -0.0976  0.0084  0.1965
20504W        W36688   1.102  14.692   5.091 -0.3163  0.1114  0.1608
20505W        W36689  14.836  10.267  13.376  0.1133  0.1456  0.1374
20506W        W36690  14.159   3.300  13.484 -0.1480 -0.1776  0.2128
20507W        W36691  16.036   2.960   2.249 -0.3278  0.3210 -0.2845
20508W        W36692  14.973   4.464   2.821 -0.1484  0.1687 -0.1516
20509W        W36693   2.420   8.714   0.612  0.1264 -0.4083  0.0675
20510W        W36694  16.152   9.593   3.052 -0.2629  0.2622 -0.1983
20511W        W36695   9.374   4.691  12.723  0.2302  0.1539 -0.1293
20512W        W36696   6.796  10.531   1.270 -0.1371 -0.1034  0.0762
20513W        W36697   4.993   4.064  15.349 -0.0716 -0.2300 -0.0420
20514W        W36698   9.822   2.402  12.290  0.0294  0.0436  0.2623
20515W        W36699   2.738   4.513  11.293 -0.0100 -0.0445  0.1202
20516W        W36700  17.822  10.289   3.386 -0.0375  0.0017  0.0208
20517W        W36701  12.279  18.772   4.492 -0.1391  0.0816 -0.0646
20518W        W36702   0.119   6.713  11.366 -0.1912 -0.0068 -0.0127
20519W        W36703  11.867   7.671   2.340  0.0215 -0.0321  0.1727
20520W        W36704   7.050   3.321  11.804 -0.0089 -0.1723 -0.0341
20521W        W36705   8.443  13.449  11.251 -0.1721  0.2439 -0.1672
20522W        W36706   2.382  16.216   1.727  0.2162  0.2003 -0.2269
20523W        W36707  10.228  12.152  13.804 -0.0553 -0.2634  0.0973
20524W        W36708   9.553  17.424   0.155  0.1852  0.6137 -0.1668
20525W        W36709  11.380   2.253   4.957  0.0968 -0.2090 -0.2423
20526W        W36710  11.030   9.178   4.920 -0.0355 -0.0580  0.0408
20527W        W36711   6.779   9.593  11.928 -0.0893  0.0581  0.0981
20528W        W36712   5.454  15.921  14.945 -0.1872  0.1547 -0.3145
20529W        W36713  13.349  12.315  12.181 -0.0002 -0.2728 -0.3375
20530W        W36714   6.212  12.049  14.287  0.0719  0.2551 -0.1996
20531W        W36715   9.226  13.130   1.674  0.0887  0.3828  0.1368
20532W        W36716   6.300   8.252  12.166  0.2849 -0.2635  0.2117
20533W        W36717  10.938  18.696  11.892 -0.0976  0.3842 -0.2353
20534W        W36718  14.010   6.255  13.489 -0.2702  0.0999  0.3001
20535W        W36719  17.001  15.344  12.009 -0.0139 -0.0120 -0.0790
20536W        W36720  14.122  12.944  10.269 -0.2944  0.0222  0.0323
20537W        W36721   8.786   6.923  15.469  0.1442  0.0481  0.0736
20538W        W36722  11.319  18.428  11.581 -0.1636 -0.1095  0.1103
20539W        W36723  11.805   1.709   3.086  0.0857  0.2311  0.3403
20540W        W36724  12.145  17.926   4.601  0.0857 -0.1207 -0.0545
20541W        W36725   3.789   8.122   0.482  0.0571 -0.1433 -0.0280
20542W        W36726  12.788  15.915  14.701 -0.0998  0.1508  0.1937
20543W        W36727   0.007   2.111  13.455 -0.0498  0.1307  0.1562
20544W        W36728  17.150   7.578  14.177 -0.0703 -0.1202  0.2710
20545W        W36729  17.257   5.277   2.118  0.1689 -0.1546 -0.2171
20546W        W36730   6.794   0.643  11.454  0.0266 -0.2360 -0.0248
20547W        W36731   3.303   2.815   5.664 -0.0655 -0.4590  0.0799
20548W        W36732  10.183   2.063  14.450  0.0304  0.0313 -0.0551
20549W        W36733   9.559  10.286   0.965 -0.2219 -0.0217  0.2483
20550W        W36734  18.663   8.682   5.171  0.1339 -0.0911  0.1976
20551W        W36735  11.435  11.390   3.596 -0.0211 -0.1003  0.1310
20552W        W36736  12.610   3.307  11.924  0.2318 -0.1493 -0.0601
20553W        W36737   3.777   6.799  11.443  0.1498 -0.0717  0.1090
20554W        W36738   4.619   8.284   5.200 -0.2597  0.0328 -0.0558
20555W        W36739  12.845  15.706   4.490 -0.0829  0.1727 -0.2598
20556W        W36740  15.961   5.182  13.892 -0.2306 -0.1542 -0.1972
20557W        W36741   8.278   9.703   4.584 -0.1554  0.2765  0.0842
20558W        W36742   1.484  13.220  14.152  0.0928  0.0196 -0.0022
20559W        W36743   0.127  12.659   4.332 -0.1725  0.0950 -0.1543
20560W        W36744   0.884  13.377  12.600 -0.1160 -0.3965 -0.2987
20561W        W36745   2.053  11.960   0.351 -0.0031  0.1206  0.1966
20562W        W36746  15.772  15.170   4.244  0.1368  0.2305  0.2739
20563W        W36747  17.004  12.375  12.515 -0.0928  0.3558  0.0092
20564W        W36748  17.026  11.202   3.949  0.1932 -0.0055  0.1676
20565W        W36749   3.702   0.784   0.624 -0.2395 -0.3118 -0.0335
20566W        W36750   2.932  18.702  13.347  0.2236  0.2160 -0.0541
20567W        W36751  18.453  11.859   3.021  0.2968  0.0666 -0.2991
20568W        W36752  12.516   9.321  14.195 -0.1737 -0.1834  0.2395
20569W        W36753  16.443  14.425   4.847 -0.1815 -0.0535 -0.0372
20570W        W36754   7.216  16.383  12.187  0.3139 -0.2330  0.2634
20571W        W36755   2.552  18.840  13.086 -0.2653 -0.0790  0.0332
20572W        W36756  11.172   4.923  15.423 -0.2439  0.0367 -0.0872
20573W        W36757   7.056  12.641   5.112  0.1223  0.1828  0.1801
20574W        W36758   1.392   5.333   3.112  0.2762  0.1334  0.0752
20575W        W36759  16.074  14.654   1.157  0.0811 -0.0458 -0.0707
20576W        W36760   5.715  10.827  13.719  0.0033 -0.1695 -0.1257
20577W        W36761   8.390  17.643   1.007 -0.1345 -0.1798  0.2003
20578W        W36762   1.894  15.384  14.760  0.1867 -0.0896 -0.0833
20579W        W36763  12.921  14.063   1.180  0.4532  0.1818 -0.3201
20580W        W36764   0.069  12.068   4.286 -0.1844  0.2722  0.2657
20581W        W36765  14.678  18.139   3.580 -0.0190 -0.2863 -0.2324
20582W        W36766  12.975  12.695   0.397 -0.3233  0.0248 -0.0210
20583W        W36767   1.745   2.239  13.198  0.0488  0.0454 -0.2152
20584W        W36768  17.181   9.258  11.899  0.3542 -0.0312  0.0291
20585W        W36769   0.767  16.756  12.174 -0.2886 -0.1089  0.1924
20586W        W36770   6.203  14.830  12.185 -0.0469 -0.1019 -0.1507
20587W        W36771   1.074   5.476  11.706 -0.0652  0.2006 -0.0395
20588W        W36772  17.215  13.389   9.866 -0.0749  0.0621 -0.1512
20589W        W36773  10.329   4.783   4.814  0.0099 -0.0583  0.0450
20590W        W36774   8.068  18.093  14.891  0.1492  0.1988 -0.0191
20591W        W36775  17.671   2.168   1.404  0.0068  0.1154 -0.0711
20592W        W36776   7.267  10.446  13.089 -0.0620  0.0274  0.1057
20593W        W36777   6.027  17.973   5.353 -0.3729 -0.3109 -0.0914
20594W        W36778   6.636  16.040  12.263 -0.0117 -0.1741  0.2140
20595W        W36779  14.860   5.461   3.472 -0.0130  0.0263 -0.0366
20596W        W36780   1.334   7.344  12.634 -0.1133  0.2730  0.1017
20597W        W36781  13.619   0.443  10.547 -0.0017 -0.2141 -0.2955
20598W        W36782   0.100  16.650   1.515  0.3422 -0.1928 -0.3436
20599W        W36783   8.858  17.818   0.781 -0.3481 -0.0220  0.1339
20600W        W36784   4.081   0.065  11.185 -0.2598  0.0541  0.0258
20601W        W36785  11.490   1.035  13.613 -0.1294  0.2307  0.1691
20602W        W36786  14.695  17.650   4.842  0.3714  0.0754 -0.0015
20603W        W36787   8.637   5.789   3.798 -0.1520 -0.0229  0.0662
20604W        W36788  11.319  15.784   4.570 -0.0105  0.0942  0.0461
20605W        W36789  12.137  12.220  14.865 -0.0339 -0.1858 -0.0792
20606W        W36790   3.840   2.183   0.789 -0.0568 -0.2657  0.0198
20607W        W36791   2.518   4.580  14.079 -0.0984 -0.2131  0.3204
20608W        W36792  16.093   4.270  15.482 -0.0990  0.4077  0.2327
20609W        W36793   3.264  11.070   4.523  0.2086  0.2761 -0.1791
20610W        W36794   2.588   6.971   4.765 -0.1306  0.1407  0.1315
20611W        W36795  17.565   5.970  14.062  0.2340  0.2941 -0.0392
20612W        W36796  18.438   6.681  12.201 -0.2207  0.1739  0.0049
20613W        W36797  14.477   7.530   3.588  0.2918  0.1977 -0.1158
20614W        W36798  13.991  11.035   2.443  0.0124  0.1047 -0.0798
20615W        W36799   9.074   5.935   3.051 -0.0861 -0.3404 -0.1545
20616W        W36800  16.403  17.877   5.002  0.2274 -0.3398  0.1205
20617W        W36801  10.811  12.382   2.220  0.1683  0.1396  0.0762
20618W        W36802   1.010   5.696  10.606  0.2180  0.2537 -0.2139
20619W        W36803  16.249  14.813   2.408 -0.2638  0.1592  0.0871
20620W        W36804   7.277   1.407   4.287 -0.0446 -0.0736 -0.2261
20621W        W36805   0.496   4.177   2.769  0.0150 -0.3762 -0.1461
20622W        W36806  14.766  10.684  11.917 -0.2441 -0.1979 -0.0333
20623W        W36807   8.601   8.665  12.513  0.1526  0.2175 -0.0852
20624W        W36808  11.767   9.510   2.765 -0.0553  0.2266 -0.0034
20625W        W36809  11.927   4.000   4.606  0.1822  0.2640  0.4149
20626W        W36810  17.887  10.469  15.224 -0.0087  0.2725 -0.1628
20627W        W36811   4.795   1.182  11.030 -0.0675 -0.1389  0.0491
20628W        W36812   9.193  12.695  14.671  0.1149 -0.1677  0.4211
20629W        W36813  10.162   9.584   1.842  0.0702  0.1737  0.0108
20630W        W36814  10.209   6.122   0.644 -0.2197 -0.0636  0.2466
20631W        W36815   0.552   2.984   3.613  0.3278 -0.0016  0.0786
20632W        W36816  14.510  16.227  15.280 -0.0701 -0.0433  0.0443
20633W        W36817  12.216   2.817   5.421 -0.0787 -0.0478  0.0545
20634W        W36818  17.677   5.976  14.657 -0.2727  0.1341  0.2178
20635W        W36819   7.439  16.787  12.322  0.0227  0.1789  0.0360
20636W        W36820   1.283   3.039   4.886 -0.4549 -0.2855  0.1531
20637W        W36821   1.213  18.297   0.742 -0.1454 -0.0948  0.1369
20638W        W36822  16.387  15.706   0.228 -0.2957 -0.1035  0.0267
20639W        W36823  16.612   3.318   4.672 -0.3171  0.6813  0.2154
20640W        W36824  16.987   2.359  11.918  0.0352 -0.0808  0.0772
20641W        W36825  14.673  16.383   0.256 -0.3314 -0.1529 -0.2700
20642W        W36826  18.134  10.166   0.959 -0.4432  0.2545  0.1325
20643W        W36827  13.430   8.887   3.317 -0.0827 -0.1130 -0.2589
20644W        W36828  17.824   6.441   2.136 -0.3201  0.1673  0.0811
20645W        W36829  17.590   7.644  13.336  0.2679 -0.0508  0.3130
20646W        W36830  10.750   4.454   5.717 -0.0371  0.2204 -0.0269
20647W        W36831  13.045  18.640   3.779  0.1310  0.1033 -0.1937
20648W        W36832  15.340  13.535   1.512  0.1665  0.0093  0.0788
20649W        W36833   4.116   2.555   2.121  0.1184  0.1410 -0.3396
20650W        W36834   3.511   9.105   0.396 -0.0181 -0.1958 -0.2207
20651W        W36835   7.982  17.614  15.205  0.0895 -0.3211 -0.1469
20652W        W36836  13.717   0.671  12.046  0.1390  0.1298  0.3008
20653W        W36837   5.672   2.039  12.034  0.2196 -0.2150  0.2784
20654W        W36838   0.988   2.655   5.614 -0.4293 -0.0686  0.2415
20655W        W36839   7.846   1.199   0.859 -0.0221 -0.1967  0.0240
20656W        W36840   4.263  15.164   0.722  0.0317 -0.0166 -0.1859
20657W        W36841   9.528  14.020  12.682  0.0945 -0.0118 -0.3196
20658W        W36842  11.346  11.910  12.452 -0.0764 -0.1342  0.0995
20659W        W36843  17.184   9.438   1.772  0.1903 -0.0890 -0.0950
20660W        W36844   2.085   8.883   0.991  0.1121  0.1298  0.2423
20661W        W36845   1.703   4.719   2.532  0.1255  0.0317  0.1490
20662W        W36846   8.613  17.196  13.070 -0.1724  0.0622  0.1203
20663W        W36847   4.443  18.643  14.946  0.1097  0.0666 -0.2555
20664W        W36848  13.423  11.787  11.886  0.3057  0.2544 -0.2328
20665W        W36849   7.526   9.267  13.735 -0.1672  0.0840 -0.2427
20666W        W36850  10.362   0.951   3.729 -0.3803  0.0830 -0.2152
20667W        W36851   3.920  11.631   0.669 -0.0829 -0.1176 -0.1252
20668W        W36852  18.831   8.084   4.032 -0.0286 -0.2204 -0.2460
20669W        W36853   8.177   2.927   3.338 -0.2214  0.1151 -0.0124
20670W        W36854   6.139  14.543   5.976  0.0878  0.0461  0.1066
20671W        W36855   9.610   9.753   1.041  0.0943 -0.0533  0.0002
20672W        W36856  18.263  12.577   3.850 -0.4590  0.1735  0.1328
20673W        W36857  14.480   1.474   2.849 -0.0979 -0.1851 -0.0967
20674W        W36858   9.228   7.423   1.325  0.0061  0.3387 -0.0030
20675W        W36859  14.477  11.097   3.898  0.0061  0.0346  0.3061
20676W        W36860   5.075  16.660   0.019 -0.4557 -0.1968  0.0666
20677W        W36861   9.345   0.193   0.331 -0.1703 -0.0483  0.1156
20678W        W36862   9.060   9.467  11.981 -0.2838 -0.4917 -0.0554
20679W        W36863   0.975   3.623   0.127 -0.0854 -0.2535 -0.0330
20680W        W36864   2.946  17.624  13.336 -0.0095 -0.1160  0.0834
20681W        W36865   9.595   9.890   3.010 -0.2113  0.0295  0.0627
20682W        W36866   2.468   9.982   9.388  0.1935 -0.1435 -0.2094
20683W        W36867  14.507   3.722  14.794 -0.0207  0.0056 -0.0014
20684W        W36868  18.633  14.022   3.066 -0.3404  0.0855 -0.1000
20685W        W36869   8.774  15.036  13.993  0.2965  0.1828 -0.0212
20686W        W36870   6.916   1.508  13.425 -0.3563 -0.1777  0.0759
20687W        W36871   2.379  11.708  10.934  0.1796 -0.1013  0.3238
20688W        W36872  12.177   4.110   3.609 -0.1157 -0.0190  0.0371
20689W        W36873  16.279   1.969   2.583 -0.2055 -0.0977  0.1521
20690W        W36874  15.168   9.023  14.130 -0.0490  0.1202 -0.0285
20691W        W36875   8.316   7.578   2.141  0.0370 -0.0592 -0.0169
20692W        W36876  12.081  16.130  14.806 -0.0338  0.0671  0.0927
20693W        W36877   1.866   0.889  13.474  0.0010 -0.0374 -0.1574
20694W        W36878  13.685  11.351  11.543 -0.0381  0.0490  0.1921
20695W        W36879   7.516  15.916   4.154  0.1557 -0.2708  0.0507
20696W        W36880  16.379   0.990  15.401 -0.1196 -0.2023 -0.0699
20697W        W36881  10.150  11.373   4.497  0.2686  0.0323 -0.2090
20698W        W36882   3.638  14.832   4.294 -0.0630  0.1970  0.1189
20699W        W36883   0.123   4.520  13.607  0.0717 -0.1686 -0.2222
20700W        W36884   3.807   4.374   2.123 -0.2269 -0.0951  0.1268
20701W        W36885  12.561  12.572   0.683  0.1131 -0.1756  0.1206
20702W        W36886  12.570   7.911  14.358  0.0432 -0.1854 -0.0366
20703W        W36887  15.642  13.309  14.724 -0.0462  0.0616  0.2407
20704W        W36888  13.886   6.633   3.260 -0.1639  0.2408  0.0597
20705W        W36889  13.782  14.268   4.212  0.0955 -0.2137  0.1628
20706W        W36890  18.333   0.038  12.475  0.0941  0.4043 -0.3364
20707W        W36891   0.677   6.354   4.434 -0.0124 -0.0675 -0.1097
20708W        W36892   3.497  12.244   0.252  0.0372 -0.0765 -0.0116
20709W        W36893  10.263  10.023  11.789  0.0743 -0.0397 -0.3825
20710W        W36894  16.797  12.529  13.641  0.1573  0.5361  0.1496
20711W        W36895  10.397   4.199   5.226 -0.1104 -0.0471 -0.1578
20712W        W36896   8.469   1.832  12.569  0.1686 -0.1136 -0.0455
20713W        W36897   4.335  12.402   0.267 -0.1087  0.2081 -0.3124
20714W        W36898   4.792   5.396  11.917  0.3146 -0.1782  0.3579
20715W        W36899   8.636   7.456  13.189  0.0774 -0.1056 -0.1942
20716W        W36900   4.047  18.447  10.982 -0.2181  0.0591  0.2413
20717W        W36901   7.140   5.296  10.385  0.1117 -0.4263 -0.2016
20718W        W36902  12.582   4.890   5.571  0.1720 -0.1203 -0.0501
20719W        W36903   7.473  12.487   3.685 -0.1819  0.0155  0.0760
20720W        W36904   6.569  15.289  13.326  0.2790 -0.3450  0.3328
20721W        W36905   0.930   5.416   2.909 -0.0776 -0.0545  0.2117
20722W        W36906   2.584   9.533   9.228  0.2035 -0.2766 -0.0691
20723W        W36907  16.265   8.545  14.603  0.0165  0.0784 -0.1522
20724W        W36908   6.779  13.328   5.064 -0.1792  0.0347 -0.0697
20725W        W36909   6.723   7.167   5.707  0.0836  0.0341  0.1762
20726W        W36910  15.057   9.128   4.581  0.0130  0.0407  0.1513
20727W        W36911  12.285  13.005  13.088 -0.0961 -0.1317  0.0070
20728W        W36912  16.790   7.708   0.346 -0.0899  0.1100 -0.0508
20729W        W36913   5.216  16.183  14.592  0.0950  0.0975 -0.0296
20730W        W36914   8.817  18.811   1.589  0.4357  0.2119  0.1013
20731W        W36915   1.267   9.803  13.712 -0.2586 -0.0955 -0.0760
20732W        W36916  17.575   2.759   3.750  0.2220 -0.1003 -0.0101
20733W        W36917   5.950  14.989   1.872 -0.1604  0.0861 -0.0594
20734W        W36918   9.118   6.108  10.950 -0.0561  0.1482  0.0270
20735W        W36919  11.372   7.151   2.029 -0.1180  0.0922 -0.2025
20736W        W36920   7.309  17.795   1.375  0.1362  0.3393  0.1520
20737W        W36921   4.557   7.459   2.791 -0.0805 -0.1629 -0.0116
20738W        W36922  11.205  15.528   0.361 -0.1720 -0.0166 -0.2379
20739W        W36923   9.473   5.721  11.274  0.2163 -0.1385  0.1685
20740W        W36924   2.546   5.549  13.910 -0.0734 -0.2191 -0.2040
20741W        W36925   0.251  17.833   5.058  0.2127  0.1705 -0.2365
20742W        W36926  14.123  13.004  11.974 -0.0182  0.1865 -0.0300
20743W        W36927   1.744  11.052  13.519  0.1228 -0.1246 -0.0025
20744W        W36928   8.216   8.701  14.863 -0.1036  0.1086  0.0582
20745W        W36929   5.168   6.239   3.264  0.3652  0.2448 -0.0346
20746W        W36930   4.458   9.476  12.106  0.1611  0.4372 -0.0253
20747W        W36931  15.963   8.395   3.353  0.0486 -0.0461 -0.2651
20748W        W36932  17.166  10.524  10.078  0.1745  0.1418 -0.0486
20749W        W36933  12.475   1.893   0.238  0.2270  0.0186  0.1561
20750W        W36934  10.629  12.960   3.016 -0.0333  0.1127  0.0463
20751W        W36935   3.610  11.077  14.797 -0.2919  0.0116 -0.3116
20752W        W36936  18.382   2.803  14.564  0.1350  0.2327  0.0880
20753W        W36937  17.742   2.703  13.928 -0.0517  0.0949 -0.0950
20754W        W36938   7.984   0.497  13.504  0.2003 -0.0934  0.3033
20755W        W36939  17.986   6.121  12.885  0.0549  0.1514 -0.2035
20756W        W36940  13.075   1.592  10.727  0.0845 -0.1103  0.0198
20757W        W36941  13.114   8.445   0.603  0.0049 -0.2257  0.1949
20758W        W36942  17.809  18.605  12.242 -0.0476  0.2011 -0.1544
20759W        W36943  17.636   0.091  11.178 -0.2147  0.0089  0.1615
20760W        W36944   8.540   4.482   2.421 -0.0427  0.1304  0.2937
20761W        W36945   9.223  18.158   2.493 -0.2378 -0.0173 -0.0713
20762W        W36946  15.866   8.881  14.407 -0.2222  0.0546  0.0620
20763W        W36947  17.070  14.542   0.810 -0.2999  0.1310 -0.0505
20764W        W36948  18.042   1.191   2.180 -0.3238 -0.1152 -0.2442
20765W        W36949   3.436   0.190  12.526  0.1094 -0.2700 -0.0004
20766W        W36950   3.409   5.562  12.070 -0.1672 -0.1175  0.1852
20767W        W36951   6.300  15.476   4.298  0.2445 -0.0204 -0.1583
20768W        W36952   1.184   0.307   3.536  0.0339  0.2990 -0.1359
20769W        W36953  13.022   9.348   5.399  0.1612 -0.0000  0.1235
20770W        W36954   5.169   5.666  13.855  0.0021  0.3753  0.0126
20771W        W36955  13.585   4.767  15.232 -0.3119  0.1091 -0.1521
20772W        W36956  14.287   3.836   2.237  0.1930 -0.1241  0.0674
20773W        W36957  12.993  17.734   0.665  0.0558  0.2150 -0.3034
20774W        W36958  16.370   2.809  12.998  0.0669  0.0186  0.1626
20775W        W36959   5.767   7.173  12.400  0.0898  0.3379  0.3188
20776W        W36960   1.253  10.996  13.396  0.1197  0.3714  0.0325
20777W        W36961   0.363   9.030   4.679 -0.0954 -0.1121 -0.1485
20778W        W36962  13.791  13.078  14.005  0.0101 -0.1395 -0.0044
20779W        W36963   8.048   8.481  12.693  0.0067  0.2395 -0.0993
20780W        W36964   6.463   0.925   4.161  0.0654  0.1555 -0.1049
20781W        W36965  13.482   3.380  10.320  0.0287 -0.1883  0.0525
20782W        W36966   1.662   0.438  13.332  0.0708  0.1986  0.2292
20783W        W36967   8.657  15.411   3.117  0.1921 -0.0565 -0.1167
20784W        W36968   3.701  10.905   2.431 -0.1611 -0.1480  0.1583
20785W        W36969  16.907  13.358   1.435 -0.4647 -0.3053 -0.1532
20786W        W36970   7.433  11.996  11.576  0.3992 -0.0186  0.1751
20787W        W36971   8.765   9.446  14.815 -0.2460 -0.1185 -0.1390
20788W        W36972  13.456  11.602  14.732 -0.0385  0.0436 -0.2891
20789W        W36973   3.462  14.887  10.287 -0.0612  0.0573 -0.0551
20790W        W36974  11.997  17.408   0.719 -0.0429  0.0296  0.1328
20791W        W36975   2.440   4.504  13.203 -0.3499 -0.1066  0.2385
20792W        W36976   3.403  13.020   1.322  0.2239  0.0690  0.1674
20793W        W36977  12.349   2.997   1.228  0.0890 -0.1043 -0.1823
20794W        W36978   8.856   3.923  14.287  0.0477 -0.0869  0.0455
20795W        W36979   9.278   2.795  11.891 -0.2238  0.1568  0.0976
20796W        W36980  16.602  15.033   4.289  0.1595  0.3263  0.0755
20797W        W36981   4.993  15.715  13.210 -0.0195 -0.2574 -0.1945
20798W        W36982  16.020  17.343  10.997  0.0325 -0.0707  0.0393
20799W        W36983   1.365   0.760   3.388 -0.2051 -0.2710 -0.0851
20800W        W36984  13.765  10.723   2.768 -0.3432 -0.7070  0.0222
20801W        W36985  15.947  12.861  14.822 -0.1992  0.3763 -0.2717
20802W        W36986  12.866   4.939  12.330 -0.1121 -0.3735 -0.2113
20803W        W36987  18.701  11.943  13.453  0.1985 -0.0180  0.0587
20804W        W36988  11.821  13.021  12.980  0.2756 -0.0750 -0.1341
20805W        W36989   9.045  11.359  14.418 -0.0356 -0.1349  0.2949
20806W        W36990   9.471   1.523  15.311 -0.1400  0.1317 -0.1625
20807W        W36991  18.849   7.675  13.701  0.2991 -0.1965 -0.1133
20808W        W36992   1.247  18.787   3.897  0.0457 -0.3070  0.1740
20809W        W36993   0.910   8.635  13.170 -0.0204  0.0284  0.1109
20810W        W36994   5.219  16.767  13.147 -0.0319 -0.3060  0.0970
20811W        W36995   0.157   7.732  12.389 -0.1087 -0.1024 -0.3626
20812W        W36996  17.534   4.681   4.987 -0.1533  0.1577 -0.0689
20813W        W36997   7.649   2.417   0.410  0.0615 -0.0560 -0.0416
20814W        W36998   6.288   7.849  12.409  0.5180  0.1229 -0.2077
20815W        W36999  18.836   9.408  12.674 -0.0271 -0.0846  0.0319
20816W        W37000  12.945   3.669   4.815  0.1306  0.0952  0.3361
20817W        W37001   2.791  14.701   0.724 -0.1520 -0.3436  0.1630
20818W        W37002   4.109  14.536   3.858  0.0372  0.2422  0.1578
20819W        W37003  14.528  10.288  11.590 -0.2119 -0.0423  0.2685
20820W        W37004  14.712  13.142  13.038 -0.1158 -0.0142 -0.1639
20821W        W37005   8.017  14.628  11.535 -0.0291 -0.0767 -0.0866
20822W        W37006  13.584   6.422   2.960 -0.3488 -0.0516  0.1240
20823W        W37007   9.288  11.785   1.441  0.1790  0.1914  0.1960
20824W        W37008  12.113   8.623  12.567  0.3700  0.1997 -0.1570
20825W        W37009   8.635   7.313   0.184 -0.0252  0.1508  0.1511
20826W        W37010   2.508  13.364   2.691  0.1658 -0.0786 -0.2692
20827W        W37011   0.252   9.635   2.931 -0.0251 -0.1617 -0.0391
20828W        W37012   4.795  13.533  10.671 -0.1740  0.1884  0.1314
20829W        W37013  14.831  15.343  11.182 -0.0916 -0.0920  0.3207
20830W        W37014  17.574   8.118   0.818  0.0280 -0.1640  0.0065
20831W        W37015  11.471  17.436  13.626 -0.2791  0.2096  0.0781
20832W        W37016  16.935   2.906   4.455  0.0360 -0.0721  0.0615
20833W        W37017   9.393   9.122   1.832  0.1522  0.3333  0.0692
20834W        W37018  15.608  10.466  12.830  0.3806 -0.2663  0.0045
20835W        W37019  16.895  17.686   2.632  0.4197  0.1699  0.0226
20836W        W37020   7.873  16.309   5.380  0.0273  0.2863 -0.3544
20837W        W37021   5.199  17.566  13.137  0.1880  0.0559 -0.4692
20838W        W37022  11.561   8.527  13.796 -0.0345 -0.3700 -0.4087
20839W        W37023   4.343   6.689   0.799  0.2054 -0.0416 -0.2606
20840W        W37024  15.194  17.476   3.638  0.2342 -0.1909 -0.1339
20841W        W37025  13.575   3.428  12.092 -0.2216  0.0825  0.1543
20842W        W37026  13.464   0.099  10.173 -0.3488 -0.0718 -0.0566
20843W        W37027  17.583   8.237   2.537 -0.1697 -0.1702 -0.2196
20844W        W37028   2.536   8.670  13.627 -0.0388  0.0777  0.0891
20845W        W37029  13.492   8.220   4.930  0.3685 -0.1032  0.2092
20846W        W37030  16.871   4.620   3.011 -0.1221  0.5189  0.0519
20847W        W37031  18.070  13.545  10.693 -0.0342  0.2047  0.1024
20848W        W37032   1.361  16.513   5.483  0.1445  0.0988  0.1660
20849W        W37033   7.928  18.265   5.424 -0.0499  0.0683 -0.1620
20850W        W37034   0.696  18.650  14.499 -0.2746 -0.1694 -0.0950
20851W        W37035  10.602   9.809   3.704  0.1551  0.0635 -0.0466
20852W        W37036   3.227  16.313   1.972 -0.0801  0.3512  0.0188
20853W        W37037  13.429   5.120   5.474 -0.0639  0.3179 -0.1000
20854W        W37038   7.751   1.488  12.863  0.1139 -0.0295 -0.3516
20855W        W37039  14.178  12.464   2.901 -0.0305  0.4603 -0.3229
20856W        W37040   0.979   8.115  14.861  0.1694  0.0678 -0.1183
20857W        W37041   7.184   8.117   0.786  0.3023 -0.2737  0.1514
20858W        W37042   9.791   5.578   5.111  0.3116  0.0725 -0.1459
20859W        W37043  16.447   9.390   0.174  0.2837  0.0221  0.1185
20860W        W37044  14.387  12.296   3.296 -0.2522  0.1179  0.0124
20861W        W37045   0.551   6.053  12.044  0.0045  0.1813 -0.1034
20862W        W37046   2.412   6.485  12.711  0.0228  0.0223 -0.0664
20863W        W37047   7.675  16.829  12.797  0.2636  0.2567 -0.0248
20864W        W37048  16.959  16.432  13.291 -0.3408 -0.0609  0.0007
20865W        W37049   8.724   1.759  11.470 -0.0695  0.4392  0.0582
20866W        W37050   2.118  16.822   0.702  0.3384  0.0332  0.1514
20867W        W37051  18.559   2.755   3.644 -0.0093  0.1730 -0.0612
20868W        W37052   9.716   9.194  10.745  0.1519 -0.2343 -0.1895
20869W        W37053  16.760   1.004   2.146  0.0908  0.0306  0.0350
20870W        W37054   0.146   3.773  11.314 -0.0868 -0.1864  0.1932
20871W        W37055  16.251   0.229   2.209 -0.4237  0.0414  0.4305
20872W        W37056  13.266  10.299  14.046 -0.2534  0.0105  0.4691
20873W        W37057   4.003  11.365   2.798 -0.2887  0.0016 -0.3061
20874W        W37058   9.235  17.990  15.457 -0.1208 -0.0991  0.1016
20875W        W37059  15.007  13.161  15.419 -0.1137 -0.0837  0.1233
20876W        W37060   2.603  14.797   5.282 -0.0179  0.0299  0.2505
20877W        W37061   7.392   5.401   3.262 -0.0488  0.2240  0.2887
20878W        W37062   4.926   3.465   4.086  0.0709 -0.1875 -0.2049
20879W        W37063   9.604   9.922   0.520  0.2277 -0.1582 -0.0850
20880W        W37064   7.058   7.555  12.032 -0.1450 -0.0491  0.1082
20881W        W37065  10.910  17.412   0.517 -0.2417 -0.0726 -0.2913
20882W        W37066   2.745  18.095   1.536 -0.1474 -0.3827 -0.1398
20883W        W37067   4.664   3.885  11.809  0.3277  0.0636 -0.1453
20884W        W37068   7.700   7.606   4.662 -0.2308  0.0232 -0.0223
20885W        W37069   9.713  14.683   3.469  0.1640 -0.1577  0.0373
20886W        W37070  11.416  11.691  15.151 -0.1435 -0.2337 -0.2235
20887W        W37071   3.121   5.122   1.511  0.0092  0.0708  0.0533
20888W        W37072   8.231  16.465  13.591 -0.1511  0.1816  0.0786
20889W        W37073   2.081  18.343   2.145 -0.1748 -0.0942 -0.0124
20890W        W37074   2.522   1.643   5.575  0.0237  0.0003  0.0728
20891W        W37075   6.165   7.209   0.738 -0.2409  0.3378  0.2321
20892W        W37076  11.000  16.026  11.112  0.0882  0.0832  0.0940
20893W        W37077  17.853   4.337   5.169 -0.1223 -0.3565  0.0264
20894W        W37078  13.300  10.539   3.974  0.0264 -0.1322 -0.3549
20895W        W37079  13.227  13.400   4.480  0.0347 -0.0099 -0.2493
20896W        W37080  13.248   5.710  15.473  0.1884 -0.4226  0.3350
20897W        W37081  18.438  14.539   1.838  0.6631 -0.1019 -0.0100
20898W        W37082  18.723   8.154  12.347  0.1121 -0.1583  0.0390
20899W        W37083  10.229   3.420   2.127  0.2355 -0.2507  0.1970
20900W        W37084  11.403  18.409  13.483  0.0862  0.1956 -0.0422
20901W        W37085  12.228   8.145   4.581  0.2016 -0.4561  0.0536
20902W        W37086  13.563   1.393  14.774 -0.3462 -0.0422 -0.0484
20903W        W37087  18.092   0.081  13.673 -0.0636 -0.0851  0.0354
20904W        W37088  14.910  11.377   0.430  0.1500 -0.1142  0.0695
20905W        W37089  18.775   1.042   4.853 -0.1913  0.1330 -0.2470
20906W        W37090  11.355   2.580   5.397  0.4166 -0.1674 -0.0200
20907W        W37091   0.490  13.058  14.892  0.0810  0.2168 -0.1349
20908W        W37092   0.208  10.254  13.007  0.0784  0.0513 -0.0822
20909W        W37093   7.254   3.078   1.416 -0.2472  0.0419 -0.0841
20910W        W37094  11.313  11.456   1.091 -0.0178 -0.2107 -0.3747
20911W        W37095  17.659  12.739  14.602  0.2298  0.0427 -0.1476
20912W        W37096   9.881   4.835   0.362 -0.2455 -0.0449 -0.0785
20913W        W37097  17.569   0.997  13.356 -0.1286 -0.1923 -0.1073
20914W        W37098  13.821   3.460  14.041  0.0242  0.2003 -0.0718
20915W        W37099  14.672   1.170  11.394  0.0002  0.0161  0.0770
20916W        W37100  16.723   5.983  12.058  0.1980 -0.0725 -0.4134
20917W        W37101  15.401  14.546  13.797  0.0596  0.2747 -0.2160
20918W        W37102   5.735  11.348   0.790 -0.2569 -0.1063 -0.0833
20919W        W37103  10.709  16.385   4.183  0.2059  0.1536 -0.3484
20920W        W37104  12.883  10.438   4.468 -0.1103 -0.1539  0.2285
20921W        W37105   6.784   6.007  11.010  0.0964  0.4531  0.1314
20922W        W37106  18.013  12.704  12.048  0.3541 -0.0914 -0.1320
20923W        W37107  10.362   7.937   4.685  0.2137  0.2405  0.0121
20924W        W37108  10.656   4.431  10.910  0.2620 -0.4789  0.2508
20925W        W37109   5.280   3.289   0.239 -0.0308 -0.0009  0.0011
20926W        W37110   5.903   5.869  15.128 -0.0741  0.3839  0.3691
20927W        W37111   7.927  14.682   5.097 -0.0031  0.3593 -0.0018
20928W        W37112   1.399   4.229  11.729  0.0372 -0.0718 -0.0771
20929W        W37113  15.573   5.033  12.363 -0.0554 -0.0132 -0.3111
20930W        W37114   3.223  12.744   3.601  0.0042 -0.0143 -0.0885
20931W        W37115   7.514   5.547   2.327 -0.3284 -0.1394 -0.0674
20932W        W37116  14.924  13.957   1.114  0.1265  0.1018  0.0015
20933W        W37117   3.855  16.684  12.468 -0.2517 -0.1918 -0.0720
20934W        W37118  16.357   3.620  10.930  0.0089  0.2213 -0.3087
20935W        W37119  17.303   0.903  10.618  0.1063 -0.0424 -0.0401
20936W        W37120  18.186   5.060  10.699  0.0363  0.0291 -0.0718
20937W        W37121   9.721   5.599  13.249  0.0901  0.1889  0.0960
20938W        W37122   7.215  10.833  11.759  0.2376  0.0902 -0.0600
20939W        W37123   8.059  12.674   4.886  0.5345  0.0694  0.2286
20940W        W37124   6.874   3.817   2.086 -0.1571 -0.1427  0.0618
20941W        W37125  16.296  14.745  13.170 -0.0814 -0.4325 -0.1153
20942W        W37126   2.423  18.125   4.564 -0.4482  0.1775  0.0766
20943W        W37127  10.068   8.906  11.684 -0.1320 -0.0974 -0.1512
20944W        W37128   3.528   3.856  10.675 -0.1792  0.3178  0.2064
20945W        W37129  15.405   3.766  10.923  0.0777  0.1216  0.2240
20946W        W37130   3.986   1.677  15.263 -0.0691  0.0078 -0.1696
20947W        W37131  15.956   5.727  15.148  0.4583  0.0913  0.0676
20948W        W37132   9.495   2.846  13.063 -0.5771  0.1942  0.1756
20949W        W37133   9.403  13.676  15.192 -0.0914  0.2908 -0.1727
20950W        W37134  12.975   0.964   1.247 -0.0014 -0.1565 -0.2038
20951W        W37135  15.811  13.036  13.034 -0.0419  0.1029  0.1919
20952W        W37136   4.909  14.014   3.833  0.0188 -0.1583  0.0430
20953W        W37137   6.408   9.769   2.907 -0.1242  0.0582  0.1356
20954W        W37138   2.753  10.848  12.276 -0.0072  0.0962 -0.0507
20955W        W37139   0.071  12.622   0.379  0.0329 -0.1238 -0.1831
20956W        W37140  17.801  15.748   2.107  0.1939  0.1034  0.0485
20957W        W37141   5.304   7.246  11.064 -0.2810  0.0293 -0.4272
20958W        W37142   2.220   8.381   4.883 -0.3942 -0.1303  0.1287
20959W        W37143  12.596   1.108   3.697 -0.3524 -0.1555 -0.0382
20960W        W37144   9.998   5.266   0.917  0.4134  0.2963  0.0970
20961W        W37145   1.783   4.974  10.565 -0.2358  0.1914 -0.2270
20962W        W37146  13.943  12.904   3.844  0.1883  0.4274 -0.1190
20963W        W37147  13.970  10.654   5.742 -0.2913 -0.0242 -0.0880
20964W        W37148  15.830  11.279  10.640  0.1469  0.0361  0.2202
20965W        W37149  13.171   7.060  15.519  0.2578  0.1407 -0.1852
20966W        W37150  17.618  12.471   4.085 -0.0166 -0.4537  0.1406
20967W        W37151  10.513  10.326   3.634  0.4489 -0.1850 -0.0941
20968W        W37152   6.307  15.384   2.529 -0.2589  0.3132 -0.0972
20969W        W37153   1.997   3.034  11.273  0.2110  0.4025 -0.1658
20970W        W37154  11.467   5.029  14.322 -0.1206  0.0219 -0.4185
20971W        W37155   1.712  13.932   5.123 -0.2959 -0.1253 -0.2072
20972W        W37156   4.074   1.228  13.231  0.1761 -0.0420 -0.2772
20973W        W37157  14.265   9.478  10.886  0.2337 -0.0285 -0.1479
20974W        W37158   7.411   8.276  14.962  0.1580 -0.1961  0.0240
20975W        W37159  13.114   3.794   3.359  0.2137  0.2535 -0.1575
20976W        W37160   9.663   5.165  10.774  0.0077  0.2204  0.0559
20977W        W37161   2.283   4.278  12.242 -0.1177 -0.0129  0.0072
20978W        W37162   4.002   8.071   1.480  0.1600 -0.0458 -0.0953
20979W        W37163  15.092  14.128  15.524 -0.0661 -0.0794 -0.0476
20980W        W37164  16.417   4.150  14.170  0.3796 -0.0422  0.0886
20981W        W37165  18.183   8.974  11.113  0.1063  0.2260 -0.1967
20982W        W37166   4.425  10.746   0.520 -0.1563  0.0398 -0.0023
20983W        W37167   3.824   6.496  13.161 -0.1030  0.1277  0.0879
20984W        W37168  11.728   9.790   4.837  0.0926  0.2047  0.0966
20985W        W37169   7.822   8.708  11.818 -0.0435 -0.2899 -0.1058
20986W        W37170  13.975  18.254  12.253  0.1315  0.0830 -0.1462
20987W        W37171  17.701   3.863   5.000  0.1577 -0.1816  0.1218
20988W        W37172  17.673  13.916   0.268  0.0118  0.1167  0.0972
20989W        W37173  12.588  18.761   1.043  0.2666 -0.1798  0.0123
20990W        W37174   8.984   6.250  10.133  0.0015 -0.1665 -0.2057
20991W        W37175  17.501   4.500  15.465  0.0392 -0.1225  0.0518
20992W        W37176  12.293   5.635   4.753  0.2827 -0.1753 -0.3895
20993W        W37177   1.010  14.083  15.176 -0.2349  0.1102  0.0596
20994W        W37178   7.945   8.191  12.136 -0.1311  0.1392  0.0515
20995W        W37179   9.960  17.007  14.044  0.2454 -0.1314  0.2917
20996W        W37180  10.174  14.915  11.321 -0.0778  0.1835  0.0022
20997W        W37181  12.551  14.735  12.402 -0.0732 -0.0224 -0.0870
20998W        W37182  12.214  10.900   1.649  0.5250 -0.0584  0.0863
20999W        W37183  16.074   7.575   1.186  0.0213  0.2011  0.0089
21000W        W37184   6.052   2.812   1.583 -0.1788  0.1472 -0.0926
21001W        W37185  11.952   0.405   2.537 -0.2188 -0.1104 -0.1598
21002W        W37186  16.653   1.999   2.952  0.0510 -0.0905 -0.0653
21003W        W37187   3.484  16.442  11.539 -0.1617  0.0944 -0.3519
21004W        W37188   6.558   7.679   0.483  0.0553 -0.3301  0.2276
21005W        W37189   8.795   9.878  13.300 -0.4115 -0.2515 -0.0750
21006W        W37190  15.530   8.502  15.272 -0.1930  0.0237 -0.3129
21007W        W37191  14.604   7.105   3.373  0.2363 -0.0286  0.1379
21008W        W37192   4.630  13.029  15.051 -0.3289 -0.1566  0.0342
21009W        W37193   7.994  14.952  12.744  0.0438 -0.0223 -0.1653
21010W        W37194  10.944   7.077  11.044 -0.1508  0.2273 -0.0423
21011W        W37195   5.648   7.209   3.133 -0.0237 -0.1691  0.2234
21012W        W37196   4.905  15.014   1.015  0.1821 -0.0034  0.0546
21013W        W37197  15.318   5.212   5.398  0.0233 -0.1915  0.0671
21014W        W37198  18.370   6.888   4.114 -0.1407 -0.0388  0.1224
21015W        W37199  18.514   8.671   2.569  0.1490  0.1631  0.0133
21016W        W37200   8.804  17.975   5.284  0.4009 -0.2104 -0.0687
21017W        W37201  18.131   6.128   1.670  0.0775  0.2533 -0.1604
21018W        W37202  15.403   3.248  11.772  0.0584  0.0455  0.0975
21019W        W37203   0.450  16.942   1.358 -0.2088 -0.1747  0.1361
21020W        W37204   7.138   1.006   0.755  0.0326  0.0611 -0.0982
21021W        W37205   7.249  10.687  13.567 -0.1327 -0.0328 -0.0143
21022W        W37206   9.432   7.634  10.953  0.2431 -0.0218  0.1732
21023W        W37207   6.767  14.829  12.181  0.0748 -0.2437  0.2964
21024W        W37208  14.485  14.280   1.135  0.1602  0.2798  0.1709
21025W        W37209  12.962  10.450   1.945 -0.2522 -0.1933 -0.1558
21026W        W37210  18.267   7.988  11.327  0.1446  0.0089  0.2345
21027W        W37211  11.842  12.564  15.300  0.0129  0.2382  0.0163
21028W        W37212  14.678   2.993   0.734 -0.1200 -0.0267 -0.3041
21029W        W37213  16.337   0.004   0.022  0.0890  0.0150  0.0820
21030W        W37214  10.713  16.207   1.163 -0.1334 -0.3118  0.0835
21031W        W37215   4.679  16.476  14.026 -0.1467 -0.1557 -0.3168
21032W        W37216   8.009  11.549  14.105  0.4279  0.2644  0.1250
21033W        W37217  17.337   3.092   2.318 -0.1652  0.1926  0.0351
21034W        W37218  13.166   4.781   3.547 -0.1289  0.0084  0.1615
21035W        W37219  12.736   4.491   1.840  0.1279 -0.1506 -0.0739
21036W        W37220  18.648   3.837  12.860  0.0232  0.0007 -0.0543
21037W        W37221  14.885   4.167  14.806 -0.1000 -0.1561  0.2190
21038W        W37222   6.662   6.581  14.431  0.0108  0.1385  0.0044
21039W        W37223   7.201  13.582  11.051  0.0802 -0.0173  0.1843
21040W        W37224   6.434   5.238  13.198 -0.0465  0.0694 -0.3031
21041W        W37225   3.916  12.200   5.032 -0.2072  0.0557  0.0223
21042W        W37226  14.623  18.543  11.344  0.0152  0.0456 -0.1365
21043W        W37227   1.436   0.097  11.952  0.3576 -0.0399  0.0057
21044W        W37228  12.503   0.374  13.899  0.0013 -0.3128  0.4226
21045W        W37229   3.754  13.567   4.685 -0.0237  0.1273  0.0080
21046W        W37230  12.305  14.951  10.478  0.1744  0.0062  0.5726
21047W        W37231   8.813  14.027  10.830  0.0009 -0.0545 -0.1188
21048W        W37232   3.063  12.049  14.701  0.1063  0.3006  0.0947
21049W        W37233  16.727  10.152   2.281  0.0233 -0.0417  0.2766
21050W        W37234  14.895  12.040  15.003  0.2782  0.0447 -0.3243
21051W        W37235  15.375  12.342  13.103 -0.2604  0.0671 -0.3866
21052W        W37236   3.300  14.799   0.912 -0.0799  0.1612  0.0917
21053W        W37237   4.505  16.622   4.090  0.2541  0.6623 -0.0663
21054W        W37238  18.131  16.572   2.078  0.1518  0.1303  0.0595
21055W        W37239   6.577   9.404   3.906 -0.0115  0.4220 -0.1584
21056W        W37240  14.612  16.259  11.383  0.5202  0.0357  0.0788
21057W        W37241  11.758   7.411   5.047  0.2377 -0.0641  0.0599
21058W        W37242  17.967  17.537  11.294  0.1535  0.2656 -0.0531
21059W        W37243  15.438  10.574  14.231 -0.0263  0.3322  0.1383
21060W        W37244  10.932   8.731   3.199 -0.3836  0.0241 -0.3526
21061W        W37245  14.815   1.780   3.982 -0.0490  0.0299 -0.2903
21062W        W37246  14.750  18.046  14.843  0.1402  0.0772  0.1809
21063W        W37247  15.867   7.029   4.206 -0.0240  0.3131 -0.0123
21064W        W37248   3.001   2.486   0.394 -0.3504  0.2868  0.0819
21065W        W37249  18.198   3.473   3.036  0.0180 -0.0118 -0.2441
21066W        W37250  10.566  14.036   5.633  0.1291  0.0878 -0.1673
21067W        W37251   4.981  15.679  15.089 -0.5160  0.1536  0.1252
21068W        W37252  16.705   6.080  12.614 -0.3458  0.1224  0.1969
21069W        W37253   1.501  13.914  11.118  0.0796  0.1470  0.0629
21070W        W37254   5.141   9.185   2.349  0.1512  0.0387 -0.2613
21071W        W37255   2.753   9.722   0.164 -0.0303 -0.4186 -0.3051
21072W        W37256   9.258  18.623   0.535  0.4302 -0.1974  0.1719
21073W        W37257   4.654   2.414  14.155 -0.1272  0.0320 -0.1599
21074W        W37258   1.376  14.219  12.424 -0.1390 -0.0867  0.3442
21075W        W37259  15.997  16.835  12.353  0.0910  0.4102  0.0768
21076W        W37260   8.646  15.873  15.230 -0.2953 -0.0785  0.1203
21077W        W37261  13.543  16.454  13.438  0.1490 -0.2857  0.1295
21078W        W37262   4.198  17.014  15.075 -0.1164 -0.1278 -0.1518
21079W        W37263   0.453  18.248  12.485  0.0923  0.4530  0.0899
21080W        W37264   4.852  12.432  12.329  0.2491  0.2856  0.2420
21081W        W37265   6.020  16.148   3.806 -0.1340  0.0578  0.1311
21082W        W37266   5.314   1.568   2.040  0.1476 -0.0475 -0.5162
21083W        W37267   9.728  17.892  13.781 -0.0260  0.0222  0.3960
21084W        W37268   2.697   3.771  14.408  0.1128 -0.1935  0.3985
21085W        W37269  13.060  16.113   3.637  0.1555 -0.0712  0.1171
21086W        W37270   3.514   5.351  13.141  0.0877  0.3936  0.0036
21087W        W37271   4.210   7.900  14.204 -0.0484  0.2082  0.0917
21088W        W37272  17.267  14.689   2.688  0.1980  0.3215  0.0676
21089W        W37273  18.176   9.544   0.884 -0.3161  0.0279  0.2419
21090W        W37274   8.838  12.803   1.585 -0.1382 -0.1120  0.1618
21091W        W37275  15.631  16.430   2.111  0.0314 -0.1716 -0.0068
21092W        W37276  17.575   0.732  12.811 -0.3135 -0.0082  0.0173
21093W        W37277   6.485   2.940   3.865  0.2026 -0.1655  0.1629
21094W        W37278   5.125   6.934  14.591  0.0091 -0.2727  0.1404
21095W        W37279   5.137  16.971   1.569 -0.1830 -0.1912  0.1774
21096W        W37280  10.691  14.199  10.354  0.2251 -0.0700 -0.0662
21097W        W37281   5.333  14.220   0.786  0.2401 -0.1319 -0.0029
21098W        W37282  12.639   8.617   1.892  0.0964  0.0392 -0.1016
21099W        W37283   5.105  11.048   0.148 -0.3137 -0.1282  0.0336
21100W        W37284   0.590   2.048   2.424  0.0078 -0.3160 -0.3816
21101W        W37285   9.365  13.264   4.422 -0.2662 -0.2288 -0.1356
21102W        W37286  14.421   1.271  15.113  0.4402 -0.0368 -0.0405
21103W        W37287  18.161  12.753  14.476  0.1430 -0.1655 -0.1495
21104W        W37288   7.777   9.285   1.730 -0.1050  0.0630 -0.1473
21105W        W37289   2.716  12.873  15.032  0.0837 -0.0272  0.2591
21106W        W37290   5.168  14.663  12.206  0.2428  0.1356 -0.1172
21107W        W37291  10.512  16.878   2.481  0.3912  0.2563 -0.1099
21108W        W37292   1.628   4.219  15.163  0.0631  0.1074  0.2289
21109W        W37293  11.899  17.096  14.856  0.0360 -0.2151  0.0456
21110W        W37294   4.226   8.554   2.695  0.3464  0.0585 -0.2402
21111W        W37295  11.687  11.894   0.377  0.0751  0.0759 -0.2215
21112W        W37296   3.554   6.172   1.710  0.2923  0.0796 -0.2177
21113W        W37297   7.575   7.793  13.839  0.1361  0.0869 -0.3958
21114W        W37298   7.843  18.408  13.213  0.2392 -0.1497 -0.1838
21115W        W37299  17.627   0.125   0.283 -0.0337  0.0195  0.1151
21116W        W37300  13.007   7.407   2.937  0.1550  0.0700  0.2406
21117W        W37301   1.622   5.604   2.204  0.2349 -0.1264 -0.0915
21118W        W37302   3.798  17.937  13.710  0.1249  0.1591  0.0240
21119W        W37303   3.269  17.474   0.948 -0.1324  0.0046  0.0830
21120W        W37304   5.636   1.489   4.428 -0.0616  0.1576 -0.0498
21121W        W37305  11.216  12.116   3.003 -0.0169  0.0961 -0.2080
21122W        W37306   9.353   5.014   3.990 -0.0646  0.1913 -0.0341
21123W        W37307  13.749   9.243  12.014  0.0772 -0.1401  0.1997
21124W        W37308   9.048  11.167   2.086  0.3567  0.2209 -0.2302
21125W        W37309   1.996   4.796  11.934  0.0187 -0.0133  0.4322
21126W        W37310  12.076   6.768  14.996 -0.2032  0.1756  0.1021
21127W        W37311   0.565  13.591  14.501  0.1449  0.0962 -0.0831
21128W        W37312  11.694   7.141   3.736 -0.1987  0.1867  0.2712
21129W        W37313   3.487   4.887  14.476  0.1446  0.2793  0.0341
21130W        W37314  11.996   4.098  12.444 -0.0709 -0.0881 -0.0895
21131W        W37315   4.651  12.055   4.372 -0.2038 -0.1619  0.0050
21132W        W37316  10.138   9.014  12.254 -0.1369 -0.4000 -0.2221
21133W        W37317   1.885   3.082  10.762  0.0395 -0.1651 -0.0561
21134W        W37318  14.388  10.682  13.673 -0.3126 -0.1014  0.0108
21135W        W37319   3.743   6.967  13.401 -0.0075  0.2468 -0.1862
21136W        W37320  15.181   3.937   0.933 -0.0205  0.2417 -0.0580
21137W        W37321  17.993   5.796  11.020  0.3304 -0.1411  0.3788
21138W        W37322   7.648  17.881  14.857 -0.0981 -0.2323  0.2501
21139W        W37323  16.288   2.517   5.085  0.3676 -0.0063  0.0075
21140W        W37324  10.256   4.449   4.449 -0.3424  0.1085 -0.2437
21141W        W37325  17.801  17.695   2.963 -0.3799 -0.0285  0.1396
21142W        W37326  10.109   7.649  14.767  0.1279  0.4949  0.2501
21143W        W37327   4.131   5.820  10.194 -0.1654 -0.3483  0.0287
21144W        W37328   2.852   1.597   1.855  0.1029 -0.0816  0.3147
21145W        W37329   2.995   5.441  11.300 -0.1176 -0.1281 -0.0535
21146W        W37330  12.867   2.978   1.420 -0.2596  0.2388  0.1183
21147W        W37331  18.767   4.305  12.698  0.4958  0.2938 -0.2991
21148W        W37332  10.303   2.581   1.738  0.0838 -0.2282 -0.0539
21149W        W37333  16.946   7.153  11.102 -0.2703  0.1013  0.0322
21150W        W37334   8.636   8.599  14.500 -0.0636 -0.1515 -0.1676
21151W        W37335   8.652  10.577  12.807  0.0822  0.1724 -0.3858
21152W        W37336   1.728  16.706   4.214 -0.3561  0.1825  0.0847
21153W        W37337  12.933  15.226  14.085  0.0040 -0.0595 -0.4303
21154W        W37338  13.657  13.314   0.391 -0.2788  0.0760  0.0111
21155W        W37339  13.402   6.351  14.198 -0.2424  0.3336  0.0544
21156W        W37340   8.114   0.577  14.011 -0.0324  0.0622  0.0031
21157W        W37341   1.479  18.377   9.618  0.2431 -0.1857 -0.3100
21158W        W37342   8.703   8.323   1.001 -0.1409 -0.1587 -0.0344
21159W        W37343   3.638  15.851  13.600 -0.0363  0.3694  0.0631
21160W        W37344  13.040   3.937  13.785 -0.2758 -0.3425 -0.3209
21161W        W37345  17.087  11.047   1.549  0.2646  0.0192  0.1966
21162W        W37346   4.344   6.011  12.095  0.3034  0.2970  0.0153
21163W        W37347   4.970  11.268   4.831  0.2164  0.0030 -0.1567
21164W        W37348   4.304   1.126  13.665  0.0088 -0.0854  0.0009
21165W        W37349  16.322  18.757  14.503  0.0648  0.1743  0.2108
21166W        W37350  15.104  17.840   1.853 -0.1658 -0.0527  0.0112
21167W        W37351  15.178   3.387   3.106  0.2057 -0.2669  0.0492
21168W        W37352  11.309  18.360  15.450  0.2257 -0.0847 -0.1648
21169W        W37353  15.221  15.100   1.924 -0.3530  0.0297  0.2114
21170W        W37354   0.598  14.392   2.783  0.4002  0.2250  0.1861
21171W        W37355  17.996   4.209   0.184 -0.1797  0.0892 -0.0704
21172W        W37356   7.599  12.870   5.055 -0.1645 -0.2035  0.5445
21173W        W37357   0.638   4.787  10.760  0.0481  0.1135  0.0199
21174W        W37358   4.434  18.440   0.021  0.2159 -0.2856  0.0982
21175W        W37359  18.801  16.732  13.625  0.0035 -0.1402 -0.0581
21176W        W37360   3.792   4.845  12.512  0.0751 -0.0652 -0.1956
21177W        W37361  14.813   0.378  11.701  0.0299 -0.1200 -0.1546
21178W        W37362  17.678   4.917   2.740 -0.4906  0.2514 -0.2212
21179W        W37363  18.291  16.757   0.207  0.2209 -0.0151  0.0260
21180W        W37364   3.851  18.151   4.765  0.0255  0.0938 -0.3715
21181W        W37365  15.185   1.565   0.927  0.0477 -0.2349  0.2704
21182W        W37366  11.364   2.421   4.088  0.0707  0.0211  0.0889
21183W        W37367   1.220  11.109   1.055  0.0655  0.1985 -0.0497
21184W        W37368   5.303  12.877   3.261 -0.0342 -0.0461 -0.3112
21185W        W37369   7.385  14.485   1.050  0.2690  0.0469 -0.1926
21186W        W37370   9.728  12.095   0.366 -0.5515  0.4250 -0.0541
21187W        W37371  10.033   2.845   3.960 -0.3066  0.0196 -0.2790
21188W        W37372   5.057   0.265   0.623 -0.0974 -0.0121  0.3076
21189W        W37373   6.698  16.545  12.539 -0.0187  0.1364 -0.3285
21190W        W37374   6.221   6.777  12.996 -0.0401 -0.1357  0.0952
21191W        W37375  11.950  11.373  14.495  0.0103  0.2270  0.5204
21192W        W37376   6.288  10.594  14.012 -0.2840 -0.0748  0.1225
21193W        W37377   7.587   0.204   2.174 -0.3004  0.1830 -0.0512
21194W        W37378  15.887   3.799  11.130 -0.0184  0.0901  0.2187
21195W        W37379   0.761   9.631   0.395 -0.0145  0.1435  0.2010
21196W        W37380   8.871  11.001   5.087 -0.0462 -0.0060  0.0168
21197W        W37381  13.847   4.559  11.224 -0.0596  0.2525  0.0364
21198W        W37382  14.752  11.963   0.524 -0.2275 -0.1600 -0.4028
21199W        W37383  15.115  11.852  11.297  0.0558  0.2253 -0.0127
21200W        W37384   2.900   1.447  13.973 -0.2133  0.0227 -0.1127
21201W        W37385  11.210  17.066  10.850  0.0493 -0.1340 -0.0498
21202W        W37386  15.404   5.110  14.612 -0.2868 -0.0781 -0.1682
21203W        W37387   9.899   6.925  13.576 -0.5314 -0.1988  0.2623
21204W        W37388  12.816   2.453   4.989 -0.0939  0.2028  0.1230
21205W        W37389  10.787  17.401  11.650 -0.2884  0.1462 -0.1196
21206W        W37390  11.881   3.002   3.608  0.0584 -0.2748  0.0134
21207W        W37391   0.579   1.137  10.176 -0.0749 -0.4032  0.1223
21208W        W37392   4.313  14.135   0.345 -0.1814  0.5133 -0.1129
21209W        W37393   1.849   9.896   0.426  0.1852 -0.1683 -0.3985
21210W        W37394   1.967   6.951   0.286  0.1045 -0.4749  0.0349
21211W        W37395   6.611   0.549   1.734  0.4126  0.3401  0.0150
21212W        W37396  16.354   9.669  11.469  0.2635  0.0821 -0.1554
21213W        W37397   9.887  13.087   0.216  0.1798  0.1265  0.2119
21214W        W37398  17.917   9.084  14.000 -0.1335 -0.0839 -0.1880
21215W        W37399   8.977  16.374  15.147 -0.0591 -0.1256 -0.0789
21216W        W37400   7.701  13.235   0.785 -0.0883 -0.1587 -0.0009
21217W        W37401   6.373  12.511   2.925 -0.1958 -0.0836 -0.4908
21218W        W37402   2.216   7.689  12.845  0.0239  0.4023  0.0562
21219W        W37403  15.914   2.527  12.290 -0.1804 -0.2535 -0.1132
21220W        W37404  16.489  16.378  13.972  0.0692 -0.1981 -0.0393
21221W        W37405   3.078   6.290  13.797  0.0968  0.0699  0.1080
21222W        W37406  14.241  16.475   1.869  0.3313 -0.2105  0.0559
21223W        W37407  13.273   5.867  14.459  0.0570  0.0330  0.0479
21224W        W37408   0.864  18.095   0.994  0.1930 -0.0984 -0.4334
21225W        W37409  15.542  13.985  12.029  0.3180 -0.1913  0.4081
21226W        W37410  10.934  15.342   2.521  0.0151 -0.0992 -0.0143
21227W        W37411   0.212  13.934   4.740  0.1295  0.2588 -0.0307
21228W        W37412   6.473   0.027   0.788 -0.1920  0.1804 -0.0451
21229W        W37413   2.872  14.121   0.319 -0.0330  0.0362  0.0661
21230W        W37414   3.436  11.377   2.002  0.1337  0.0120  0.1172
21231W        W37415   0.880   3.631  14.816 -0.2046  0.2586 -0.1956
21232W        W37416  16.847   3.758  14.973  0.0466  0.0209 -0.2941
21233W        W37417   7.131   9.193   3.916  0.1051  0.3944  0.0600
21234W        W37418   4.308   9.455   0.150 -0.0357  0.1738 -0.0602
21235W        W37419   8.600   7.344   3.026  0.1126  0.0322  0.0669
21236W        W37420   7.980  13.157   1.165 -0.3611 -0.0421 -0.1018
21237W        W37421   2.112   6.081  14.833 -0.0042 -0.0319  0.1228
21238W        W37422  12.848   2.440  13.737 -0.0614  0.1637  0.2170
21239W        W37423   7.316   6.753  15.120  0.2634 -0.2118 -0.1378
21240W        W37424   8.938  11.662   1.818 -0.1823 -0.3972  0.0872
21241W        W37425  13.336   6.675   1.235 -0.2691 -0.1260  0.1248
21242W        W37426   6.665   4.415   0.511  0.0066 -0.1497 -0.2746
21243W        W37427  11.498   8.834   0.434  0.0655 -0.0778  0.1817
21244W        W37428   7.030  15.004  10.818  0.3789  0.1834  0.1593
21245W        W37429   9.876   0.318   3.083 -0.1100  0.1256 -0.2220
21246W        W37430   1.181  15.817   4.518  0.1053  0.2924 -0.0865
21247W        W37431  10.352  15.510   2.536 -0.0941 -0.0433  0.0978
21248W        W37432   6.682   4.020  10.658 -0.1708  0.2713  0.1883
21249W        W37433   5.812  11.947   3.647  0.3541 -0.3121  0.0164
21250W        W37434   5.898  14.421  14.321  0.0881 -0.4002 -0.0699
21251W        W37435  15.787   4.695   2.713  0.3427  0.1144  0.0803
21252W        W37436   3.078   9.584   9.103  0.1567 -0.0246 -0.0986
21253W        W37437  18.522  16.722  11.896  0.0391 -0.1921  0.1918
21254W        W37438  11.776   5.114  14.726  0.0314 -0.0379  0.0066
21255W        W37439   0.616  13.964  12.099  0.1912 -0.0141  0.1357
21256W        W37440   4.886  10.183  15.469 -0.2958 -0.0338  0.2033
21257W        W37441   8.203  15.996   3.374  0.4853 -0.2500  0.0564
21258W        W37442  11.024   2.313   1.842 -0.1330 -0.1985 -0.2102
21259W        W37443  11.509   3.544  15.062  0.1376  0.2102 -0.2363
21260W        W37444   3.990   3.207   1.357 -0.1191 -0.1303 -0.4201
21261W        W37445  12.729  12.919   3.203 -0.0755  0.1404 -0.1864
21262W        W37446  10.004   8.861  15.386  0.1823 -0.0813  0.0492
21263W        W37447  14.201  17.004   1.399  0.2444  0.0498 -0.0969
21264W        W37448  15.141  18.323  13.085  0.0611  0.0183  0.0265
21265W        W37449  10.690   2.265  12.684 -0.1428  0.0376 -0.2849
21266W        W37450   9.745   8.206  15.296  0.1390 -0.3315 -0.0098
21267W        W37451   7.501   7.737  11.681  0.3162 -0.0042 -0.1373
21268W        W37452  11.423  11.119   0.710 -0.3257 -0.0529  0.1049
21269W        W37453  16.236  14.243  14.427  0.0949  0.3022  0.0028
21270W        W37454  15.964   1.993   3.512  0.0894 -0.1961  0.3317
21271W        W37455   8.431  17.901  12.439 -0.0840 -0.2385  0.1345
21272W        W37456  18.347   1.401   4.925  0.3947  0.1077  0.2551
21273W        W37457   3.548   0.396   4.988  0.0778  0.3053  0.2362
21274W        W37458   6.253   7.287   1.389 -0.2355 -0.0360  0.0469
21275W        W37459   8.826   0.403   0.102 -0.1246 -0.0176  0.0050
21276W        W37460   3.672  14.004   2.000  0.1537 -0.1136 -0.2149
21277W        W37461  13.409  13.055   1.741  0.3887 -0.0919 -0.3825
21278W        W37462  11.250   3.062  11.212 -0.1405 -0.1490 -0.1112
21279W        W37463   2.227   2.724   3.232  0.0165  0.0550 -0.1160
21280W        W37464   0.527  11.497   4.877 -0.1329  0.2420  0.1599
21281W        W37465  12.420  10.888  13.871  0.1400 -0.1024  0.3435
21282W        W37466  18.352   1.663   4.335 -0.2812 -0.1381 -0.1800
21283W        W37467   5.603   8.884   2.333 -0.0628  0.0616  0.3090
21284W        W37468  12.391  14.823  15.429  0.0207  0.2033  0.1636
21285W        W37469   2.300   1.066  13.621  0.1239 -0.0200 -0.3612
21286W        W37470   7.781   4.472  13.385  0.2535 -0.0769  0.0805
21287W        W37471   6.291  15.386  11.479  0.1346  0.1289 -0.0614
21288W        W37472  10.630   7.711   0.191 -0.0077 -0.2472  0.1106
21289W        W37473  12.713  13.964   3.760 -0.1634  0.4301  0.3317
21290W        W37474   1.104   2.751  13.187  0.1546 -0.1295  0.1305
21291W        W37475  15.140  12.037   2.753  0.1660  0.3604  0.0196
21292W        W37476  12.381  17.892  12.719 -0.2181  0.0073  0.2364
21293W        W37477  11.695   4.852   2.028 -0.3701  0.1327 -0.1880
21294W        W37478  11.931  15.348  12.956 -0.0859 -0.2574 -0.1000
21295W        W37479  15.364  14.425   3.394  0.0583  0.0818 -0.2960
21296W        W37480  14.123   9.776  15.159 -0.1162  0.2413 -0.3916
21297W        W37481   1.993   3.229  14.759 -0.1329 -0.0931  0.1318
21298W        W37482   0.964  13.925  13.068  0.2419  0.4796  0.1671
21299W        W37483  17.237   3.760  14.666  0.3051 -0.2083 -0.3044
21300W        W37484  10.314  13.844  15.471  0.2310  0.2409 -0.2028
21301W        W37485  13.893   1.447  13.681 -0.1625  0.0136  0.1229
21302W        W37486   8.057   4.311   6.083  0.2655  0.0531 -0.3372
21303W        W37487   5.867   2.691  14.288  0.0528 -0.1182  0.3476
21304W        W37488  14.754   7.066   2.397 -0.1437 -0.0098  0.1884
21305W        W37489   8.678   4.691  13.262 -0.2908  0.0590 -0.3363
21306W        W37490   9.744  17.030   5.172  0.0740  0.1132  0.1510
21307W        W37491  13.803  17.455   2.548  0.1373  0.0756  0.3249
21308W        W37492  11.260  17.244  11.459 -0.4146  0.1030 -0.3403
21309W        W37493   0.020  16.730   5.208  0.1110  0.1353 -0.2709
21310W        W37494  11.185   5.494   3.047  0.1870 -0.0940  0.1581
21311W        W37495   3.155  11.090   2.297  0.1559  0.2432  0.1711
21312W        W37496   8.095   8.864   1.673 -0.0536 -0.0422  0.1459
21313W        W37497   8.631  11.988   2.213 -0.0799 -0.1149  0.2690
21314W        W37498  13.592  10.945  12.485  0.1511 -0.0047  0.0586
21315W        W37499  16.571  13.314  11.603  0.1665  0.1668 -0.1575
21316W        W37500   9.339  15.517   2.491  0.1169 -0.0773  0.0611
21317W        W37501   7.654   7.825  13.107 -0.0771 -0.0710  0.0053
21318W        W37502   8.335  18.785  14.026 -0.0489  0.0983 -0.2924
21319W        W37503   2.301   2.736   0.568  0.2526  0.3314 -0.0612
21320W        W37504  11.540  14.697  13.740  0.0510 -0.0068 -0.2296
21321W        W37505   3.589   3.224  13.623  0.0564 -0.1143 -0.0737
21322W        W37506   5.831  15.310   2.257  0.0698 -0.0184 -0.0204
21323W        W37507   9.716   1.375   2.330 -0.2830  0.4057 -0.0328
21324W        W37508  13.969   5.154   4.715 -0.0451  0.3065  0.1775
21325W        W37509   8.263   5.839  14.599 -0.2430 -0.1403  0.2437
21326W        W37510   2.321  15.624  11.858  0.1133 -0.1699 -0.1730
21327W        W37511   7.615   8.307   0.928  0.0134 -0.1488 -0.4613
21328W        W37512   8.924  13.252  13.154  0.0908  0.0429  0.1714
21329W        W37513  17.841  11.590  13.614 -0.1173 -0.0610  0.0105
21330W        W37514   4.359   4.230  12.548 -0.1483  0.0674  0.1258
21331W        W37515   4.242   0.647  11.839  0.0158  0.0284 -0.0215
21332W        W37516  10.899   0.262   2.180  0.0521 -0.0167 -0.0946
21333W        W37517  12.534   7.211   3.267 -0.2623  0.0621 -0.0018
21334W        W37518  17.625  15.841  10.799  0.0837 -0.0234 -0.4519
21335W        W37519   3.211   7.127   3.237 -0.1244  0.2444 -0.3179
21336W        W37520  10.535  11.225   1.032  0.1358 -0.0182 -0.1579
21337W        W37521   9.746  13.771  13.206 -0.1524 -0.0842  0.3014
21338W        W37522   7.108   6.256   3.498  0.0184  0.0489 -0.0439
21339W        W37523   3.903  10.836   0.655  0.0143  0.4051  0.0480
21340W        W37524   9.845   1.100  10.470  0.1988 -0.1313  0.0479
21341W        W37525   4.384  17.136   0.012  0.0353  0.1576  0.1367
21342W        W37526   9.338   7.221   3.552  0.1373  0.0425  0.0424
21343W        W37527   4.363  18.475   0.955 -0.2543  0.0695 -0.0313
21344W        W37528  13.242  15.774  12.443  0.0361  0.1245  0.4473
21345W        W37529  16.945  17.243  13.851  0.1233 -0.1006  0.1038
21346W        W37530   7.780  10.109   5.192 -0.1729 -0.1058 -0.0816
21347W        W37531  14.406  12.375  13.096  0.3246  0.0549  0.0476
21348W        W37532  17.508  17.283  13.989  0.0974  0.1063  0.1499
21349W        W37533   8.476  15.363   2.686 -0.1186 -0.0752  0.3263
21350W        W37534  10.251  18.490   0.493  0.1565  0.2831 -0.2807
21351W        W37535   1.833  14.200  13.856  0.2544 -0.4461 -0.0520
21352W        W37536   9.422   2.321  14.374  0.1622  0.2496 -0.3057
21353W        W37537   0.943   6.498  14.153 -0.0389 -0.1180  0.2860
21354W        W37538   9.378   1.163   2.682  0.0726 -0.0187  0.4383
21355W        W37539  18.076   3.111  11.721 -0.1041  0.2255  0.2458
21356W        W37540   8.989  16.746   3.124  0.0714 -0.1896 -0.0185
21357W        W37541   2.591   9.617   3.269  0.1485  0.1561  0.0954
21358W        W37542   1.557   8.644   1.053 -0.0509 -0.0920 -0.2121
21359W        W37543   4.147   1.582   3.162 -0.1767  0.0894 -0.0435
21360W        W37544  14.673   9.431  15.126  0.1533 -0.0096 -0.4409
21361W        W37545   4.528   1.904   1.013  0.4555 -0.2048  0.1283
21362W        W37546   9.691   6.181  10.942 -0.1782 -0.1775  0.1701
21363W        W37547   0.073   7.547   5.874  0.2071  0.1478  0.0348
21364W        W37548   7.978   8.377   4.848  0.0095  0.4484  0.4843
21365W        W37549  13.596  14.026  10.864  0.2283 -0.2883 -0.1083
21366W        W37550   1.328   6.731   4.024 -0.0302 -0.1282  0.1386
21367W        W37551  10.036  12.707   3.926  0.0643 -0.0353  0.3735
21368W        W37552  16.584   3.270   5.701  0.0416 -0.0563  0.2201
21369W        W37553   3.319  10.252  11.617 -0.0772  0.0176 -0.0228
21370W        W37554   5.970   3.494   4.222  0.1634 -0.1977  0.0108
21371W        W37555  10.671   5.536  12.848  0.0478 -0.1793 -0.0061
21372W        W37556   3.832  14.257   5.868  0.0252  0.0694  0.3248
21373W        W37557   8.091  18.228   4.458 -0.0510  0.0510  0.0517
21374W        W37558   3.239   7.561   3.482 -0.1049 -0.0546  0.2235
21375W        W37559   2.943   3.880  12.794 -0.2576 -0.3906  0.1230
21376W        W37560  18.058  12.413  11.079 -0.0006  0.0663  0.2174
21377W        W37561   8.821  14.167   2.133  0.0749 -0.0605  0.0667
21378W        W37562   6.292  12.436   4.746  0.1656  0.1240  0.0150
21379W        W37563  13.153   5.722   4.155  0.1797 -0.2424  0.0306
21380W        W37564   8.498   5.216   2.668 -0.2412 -0.0758 -0.3688
21381W        W37565   4.462  18.819   4.309  0.2304  0.1439 -0.1575
21382W        W37566  12.766  16.646   3.490 -0.3210 -0.1284  0.2689
21383W        W37567   0.767   8.596   0.760  0.0600 -0.0961 -0.0089
21384W        W37568  18.821   6.968   0.596  0.0399 -0.0357  0.1266
21385W        W37569  16.008   3.698  13.310  0.3635 -0.0208  0.0970
21386W        W37570   6.019  17.642   2.920  0.0268 -0.4694  0.1630
21387W        W37571   1.977  10.431   0.594  0.0639 -0.2660  0.0170
21388W        W37572   1.396  18.156   5.299  0.0399  0.1154 -0.4181
21389W        W37573   3.112   8.601  14.934  0.1879 -0.0381 -0.1852
21390W        W37574  17.846   0.795   3.037  0.1120  0.0358 -0.0027
21391W        W37575  13.931  14.754  14.347  0.0573 -0.0022 -0.0964
21392W        W37576  17.201   5.520   0.440  0.0851  0.1740 -0.2000
21393W        W37577   2.651  10.818   4.317 -0.1146 -0.0406  0.0185
21394W        W37578  13.396  10.963   3.142  0.1413  0.1173 -0.1166
21395W        W37579   6.645  12.896  11.117  0.1075  0.1231 -0.3388
21396W        W37580   5.909  11.537   0.267 -0.3303 -0.0601 -0.0739
21397W        W37581  11.888   7.724   3.578 -0.2484  0.1269  0.2429
21398W        W37582   4.330   2.683  13.749  0.0704 -0.0096 -0.0571
21399W        W37583  18.468   5.698   2.951 -0.1587 -0.1523 -0.1298
21400W        W37584  12.311  17.109  12.308 -0.2257 -0.3291 -0.1609
21401W        W37585   9.150   7.186  12.936  0.0755  0.2082  0.1122
21402W        W37586  10.671   8.263  11.240  0.0368  0.2942 -0.1685
21403W        W37587   3.038   2.746  12.595 -0.3535  0.0835  0.1708
21404W        W37588  17.221  13.287   3.480  0.1548 -0.1780 -0.5404
21405W        W37589   3.109   8.153  12.821  0.1184  0.2319 -0.0419
21406W        W37590  17.168   7.655   4.596  0.0507  0.1772 -0.1815
21407W        W37591   9.742   5.418   3.211 -0.0609 -0.0361 -0.2081
21408W        W37592   3.794   1.643  12.190 -0.0527 -0.1596 -0.0948
21409W        W37593  12.009  14.848  14.314 -0.0498 -0.2647  0.0687
21410W        W37594   9.986   8.739  12.674  0.3826  0.0393  0.1490
21411W        W37595  12.739   2.526  12.363 -0.0830 -0.2296  0.2138
21412W        W37596   7.892  16.102   2.041 -0.1069 -0.0064 -0.1074
21413W        W37597   2.050  11.874   0.849  0.1430  0.1006 -0.1235
21414W        W37598   9.087   5.767  10.561  0.0803  0.3530  0.2910
21415W        W37599  11.233   7.891   1.686 -0.0141  0.1070  0.1825
21416W        W37600   7.883   0.538   4.663  0.0822 -0.3268 -0.1326
21417W        W37601   3.011   1.952  14.326 -0.1463 -0.0363  0.3690
21418W        W37602  14.614  11.895  11.258  0.1025 -0.1287  0.0198
21419W        W37603  18.798   2.755  14.893  0.2614 -0.3378  0.0578
21420W        W37604  11.465  15.459   1.023  0.1696  0.1465 -0.4020
21421W        W37605   2.373  16.520   3.424 -0.1403  0.1229 -0.1505
21422W        W37606  18.428   0.874  15.519 -0.2807  0.1899  0.0231
21423W        W37607   6.753   9.042  10.242  0.1896 -0.1969 -0.1349
21424W        W37608   1.024  14.750   2.887  0.0530  0.2127  0.0017
21425W        W37609  11.161  12.108  14.244  0.4279  0.3460 -0.2342
21426W        W37610   2.115  13.885  13.550  0.2853  0.1128 -0.1020
21427W        W37611  13.110  18.208   2.907  0.0764  0.2074 -0.0772
21428W        W37612   6.496   9.348   5.250 -0.3185 -0.0031  0.0534
21429W        W37613   9.153   0.391  11.918 -0.1225  0.1639  0.0654
21430W        W37614   3.808  16.307  10.820 -0.1756  0.0035  0.1210
21431W        W37615  14.906   6.373  10.728  0.3125  0.0497 -0.0370
21432W        W37616  11.159   6.991  12.340 -0.1063  0.1399 -0.2433
21433W        W37617  12.747   4.454  12.340  0.0154 -0.0369 -0.0315
21434W        W37618   6.588   6.839   1.688 -0.2389 -0.3176 -0.2334
21435W        W37619  14.011  12.288  13.519 -0.2957 -0.0809 -0.0696
21436W        W37620   4.242   2.777   4.199  0.2220 -0.0663 -0.0755
21437W        W37621   8.963   8.663  14.940 -0.1445  0.0145  0.1220
21438W        W37622   8.932   6.622  15.083  0.0186  0.2725  0.2530
21439W        W37623  15.348   0.676  14.217 -0.2565  0.0211 -0.0963
21440W        W37624   0.517   9.468  10.451  0.1597  0.2667 -0.0162
21441W        W37625   9.196  10.805   2.914  0.0378  0.0575 -0.0716
21442W        W37626   4.637   4.386   2.618 -0.2526 -0.0375 -0.1992
21443W        W37627   4.189   7.951  11.891  0.1097  0.1377  0.1138
21444W        W37628  16.281  13.477   1.092  0.1298  0.1157  0.1162
21445W        W37629   5.288  18.395  14.625  0.0703  0.1342  0.2229
21446W        W37630  10.958   9.512  13.420  0.3120  0.2432 -0.2105
21447W        W37631   7.642  10.531   3.839 -0.0598 -0.2099 -0.3603
21448W        W37632   1.012  13.265  14.578  0.0676 -0.3260  0.1432
21449W        W37633  13.633   0.805  15.528 -0.0827 -0.1643  0.1506
21450W        W37634   4.493  13.774   3.647 -0.2782 -0.3110  0.0393
21451W        W37635   1.816   5.014  14.366 -0.0592  0.1707  0.2846
21452W        W37636   4.257  12.859   4.787 -0.0063  0.2083  0.2388
21453W        W37637  16.690   3.347  14.847 -0.1833 -0.1045 -0.0020
21454W        W37638   6.657  15.889   1.426 -0.2156 -0.1386  0.3044
21455W        W37639   5.441   7.519  13.099  0.2385  0.0272 -0.1263
21456W        W37640  13.198  16.072   4.707 -0.0545 -0.0491  0.0653
21457W        W37641  13.729  14.532  11.550  0.2289  0.3451 -0.0104
21458W        W37642   8.533  10.423  14.251 -0.1181 -0.0598  0.0557
21459W        W37643  16.219   5.611  13.972  0.1048  0.1288 -0.0835
21460W        W37644  18.033   3.321   3.535  0.0552 -0.0195 -0.1603
21461W        W37645   4.531   9.730  12.619 -0.2622  0.2074  0.1587
21462W        W37646  18.111  11.055  12.480  0.0659 -0.0476  0.2175
21463W        W37647  12.824   4.976  14.917 -0.5520 -0.0524 -0.1355
21464W        W37648  16.287   1.567  11.913 -0.2618  0.0541 -0.0138
21465W        W37649   9.212   8.155  15.041  0.0538  0.0311 -0.1972
21466W        W37650   5.196   9.250   1.819 -0.0725 -0.0686 -0.1561
21467W        W37651   0.947  11.751  15.354 -0.3144  0.0310 -0.1542
21468W        W37652   0.784   7.435  13.274 -0.0629 -0.1359  0.1025
21469W        W37653   4.073   4.614  15.268 -0.1914 -0.1354 -0.0385
21470W        W37654  12.568  14.174   1.901  0.3614  0.2250  0.1021
21471W        W37655  14.372  13.698  14.667  0.0789 -0.1434 -0.0366
21472W        W37656   2.142  12.642   4.037  0.0364 -0.2272 -0.2060
21473W        W37657  18.409  15.840   2.994 -0.1181  0.2226  0.3708
21474W        W37658   2.730   0.758   3.960  0.0025  0.2928 -0.1112
21475W        W37659   8.185   9.883   3.548 -0.1110  0.0964  0.4743
21476W        W37660   0.246  17.009   4.145 -0.1988 -0.0765 -0.0275
21477W        W37661   5.840   9.561  14.648 -0.1439 -0.1575 -0.0651
21478W        W37662  16.728   1.103  14.689 -0.0452  0.2901  0.1484
21479W        W37663   0.775   4.732  12.706 -0.0058 -0.0981  0.0112
21480W        W37664   2.168  13.424   3.610  0.0218  0.2435  0.3814
21481W        W37665   0.613  14.640   1.919  0.1887  0.1234 -0.2368
21482W        W37666   8.072  16.285  14.931  0.1040 -0.1641 -0.0630
21483W        W37667   2.029   3.572   1.023  0.0141 -0.4087  0.2831
21484W        W37668  13.504   4.381   1.975 -0.3076 -0.0427 -0.0079
21485W        W37669   9.254   9.272  13.625 -0.0250  0.2172  0.0324
21486W        W37670   0.101   6.242   5.609  0.2940 -0.0175 -0.1086
21487W        W37671  10.982  12.890   1.837 -0.1696 -0.0499 -0.0543
21488W        W37672   7.749   0.586  12.964 -0.2450  0.1640  0.3975
21489W        W37673   1.170  15.725  10.421 -0.2359  0.0688 -0.0299
21490W        W37674   9.343   1.237  13.010  0.0697  0.1713 -0.1828
21491W        W37675  10.414   4.759   5.361 -0.0054 -0.1546  0.1022
21492W        W37676   3.494   7.829  11.236  0.0422  0.2632 -0.3609
21493W        W37677  12.854   2.732   2.532  0.1375 -0.1827  0.0653
21494W        W37678   7.030  14.488  12.499 -0.3049  0.0377 -0.0858
21495W        W37679  10.541  11.503  15.427  0.1593  0.0409  0.1220
21496W        W37680   3.069   9.269  12.699  0.2706 -0.0168 -0.1157
21497W        W37681  13.266  10.390  13.140 -0.0082  0.0084  0.0583
21498W        W37682   9.452   5.168   1.101  0.0716  0.1217 -0.0507
21499W        W37683   7.884  13.501   2.906 -0.3099 -0.0724  0.1299
21500W        W37684  16.880   0.365   5.791  0.5490  0.3403  0.0560
21501W        W37685   7.831  11.429   1.639  0.0092  0.3765  0.1572
21502W        W37686   1.674   7.061   1.695 -0.1417  0.2507  0.2214
21503W        W37687  11.719   8.805   2.616  0.1718  0.1615 -0.1277
21504W        W37688   7.449  10.931  10.138  0.4016 -0.3623  0.1443
21505W        W37689   9.675   2.189  15.270  0.1133 -0.1807 -0.2606
21506W        W37690  11.550  12.564   5.015 -0.1479 -0.1580  0.0451
21507W        W37691   0.519  17.680   1.938  0.1249  0.0793  0.2467
21508W        W37692   9.826  17.231   4.246  0.0765  0.4761  0.1604
21509W        W37693   8.842   3.256  11.902 -0.0464 -0.3449 -0.1536
21510W        W37694   0.148   8.598   1.109 -0.0287  0.2534 -0.1013
21511W        W37695   6.678  15.480   1.071  0.0117  0.2302  0.1323
21512W        W37696  13.202  16.072   2.819 -0.2895  0.2416  0.1716
21513W        W37697  16.892  11.037  13.276  0.4514 -0.0315  0.0604
21514W        W37698   4.297  10.438  10.597 -0.0156 -0.0590  0.5139
21515W        W37699  13.314  10.574  13.641 -0.4468  0.2041  0.0145
21516W        W37700   4.766  12.922   4.870  0.1663  0.2714 -0.0423
21517W        W37701   9.372  11.631   3.123 -0.2914 -0.2281 -0.1179
21518W        W37702   0.260   8.496  12.550  0.4295  0.2528 -0.0339
21519W        W37703   3.013   6.997  13.440 -0.0025  0.0520  0.0497
21520W        W37704   6.975   3.094   3.598  0.1367 -0.0878 -0.0365
21521W        W37705   6.567   7.536   4.093 -0.1052 -0.2627 -0.0099
21522W        W37706  10.020   2.969  14.209 -0.1162  0.1038 -0.1358
21523W        W37707  10.075   4.181   1.385  0.1541 -0.3334 -0.4531
21524W        W37708   6.141  17.347   3.877  0.0578  0.1788 -0.2657
21525W        W37709   5.347   3.638  14.520 -0.0366  0.0490  0.1318
21526W        W37710  14.568   2.519  13.339 -0.2025 -0.4139 -0.2438
21527W        W37711  13.696   9.874   0.560 -0.0126  0.3747  0.2562
21528W        W37712   1.248   1.645   2.797  0.0651 -0.1367  0.0436
21529W        W37713   2.224  14.585  10.790  0.2603 -0.0405 -0.0663
21530W        W37714   3.033   4.563   3.457  0.1532  0.0219 -0.3743
21531W        W37715   4.109  14.045  12.858  0.3038 -0.1882 -0.2791
21532W        W37716   0.208   5.471   5.452  0.1107 -0.2022 -0.0088
21533W        W37717   6.241  13.376   1.393  0.2405 -0.0242 -0.0405
21534W        W37718  17.051  14.400   3.538 -0.1651 -0.0949 -0.2474
21535W        W37719  17.777  15.745  14.859 -0.3172 -0.1435  0.3012
21536W        W37720   1.945   5.700  13.500 -0.0913  0.1078  0.3587
21537W        W37721   5.141   5.094   3.369  0.0389  0.3241  0.3854
21538W        W37722  14.193   1.568   1.459  0.1417  0.0334  0.5891
21539W        W37723   8.925  16.487   1.442 -0.1901 -0.0522 -0.0407
21540W        W37724  12.741   7.996   3.873  0.1184  0.2518  0.2867
21541W        W37725   8.668  17.313  10.843 -0.1804 -0.1917 -0.0779
21542W        W37726   1.943  17.019   3.875 -0.0378  0.2005 -0.0881
21543W        W37727  16.041   7.250   0.562 -0.2254  0.3209  0.1375
21544W        W37728  12.656  13.020  15.061 -0.4773  0.3308 -0.1621
21545W        W37729   9.573   2.112   3.765  0.4019  0.1686 -0.0667
21546W        W37730  16.175   8.119  13.205 -0.0850  0.0084 -0.1357
21547W        W37731   0.308  15.017   2.101 -0.2885  0.0233 -0.1352
21548W        W37732   4.099   0.679  12.322 -0.0033  0.0686  0.0965
21549W        W37733   2.843  15.062   0.224  0.1958 -0.0584 -0.0468
21550W        W37734   1.407  15.386  11.726 -0.0876 -0.2351 -0.0912
21551W        W37735   4.510   6.666   4.536 -0.0673 -0.0438 -0.0686
21552W        W37736  14.585   6.592  14.274 -0.0433 -0.0734  0.1170
21553W        W37737   1.904  15.977   5.347 -0.1431 -0.0268  0.1575
21554W        W37738   2.624  16.823   2.294 -0.0662 -0.2025  0.0986
21555W        W37739   1.244   1.703  12.441  0.3106 -0.1347 -0.1361
21556W        W37740  14.578   3.463  10.854 -0.1570  0.2614  0.1905
21557W        W37741  15.616   9.543   4.635 -0.1101 -0.1817  0.1467
21558W        W37742   9.525  12.855  13.432  0.0693  0.1026 -0.2626
21559W        W37743   5.247  11.195   3.896 -0.1334 -0.0988  0.1369
21560W        W37744  12.117  10.347   2.964  0.0721  0.0156 -0.1046
21561W        W37745  16.579   9.849  12.339 -0.0449  0.0924 -0.0057
21562W        W37746  13.843  11.843   3.607  0.1308 -0.1628  0.0335
21563W        W37747  17.488   3.415   2.007  0.2507  0.2274 -0.0511
21564W        W37748   3.713   0.336  14.934 -0.2544 -0.0938 -0.3132
21565W        W37749   8.709  10.820  13.650  0.4175 -0.1898  0.2155
21566W        W37750   1.233   6.016   1.902  0.1366 -0.2862 -0.1669
21567W        W37751   9.470  11.265  12.067  0.1726  0.0855  0.0323
21568W        W37752   6.956   4.209  12.775  0.0945 -0.2945 -0.0414
21569W        W37753   2.599   5.716   1.903 -0.1311 -0.3095 -0.2965
21570W        W37754  10.052   0.819   3.249  0.1280  0.3980 -0.4185
21571W        W37755  16.410  10.714   2.855  0.0219 -0.0273  0.1783
21572W        W37756   1.713  14.800  13.190  0.3240  0.0994 -0.0406
21573W        W37757   6.691   0.690   4.514  0.0637  0.0883 -0.2717
21574W        W37758  16.572  11.556   1.819  0.0487  0.0244  0.0774
21575W        W37759   3.749  16.771   1.377 -0.2727  0.0167 -0.0179
21576W        W37760   7.072   0.361   2.017 -0.0747 -0.1989  0.1372
21577W        W37761  12.494   8.557   4.885  0.0714 -0.2075 -0.1619
21578W        W37762  15.838   7.349   1.543  0.3951 -0.1497 -0.3568
21579W        W37763  16.320   7.989   3.208 -0.4208 -0.2152 -0.0922
21580W        W37764  18.428  10.071   0.011  0.1946  0.0640  0.0714
21581W        W37765  15.616  14.505   2.571 -0.1090  0.1923  0.0942
21582W        W37766   2.426   9.132   3.229 -0.2358  0.1211 -0.0882
21583W        W37767   5.025   9.575   4.847  0.1188 -0.0331 -0.0210
21584W        W37768  10.421   4.824   2.131  0.0984  0.1438 -0.1624
21585W        W37769  11.058  17.487   1.821  0.1599 -0.0297 -0.0355
21586W        W37770   8.770  11.903  11.921 -0.0443 -0.0769  0.2574
21587W        W37771   4.494  16.312  14.488  0.0692 -0.3466  0.1106
21588W        W37772   4.188  13.045  14.717  0.0990 -0.2625 -0.3430
21589W        W37773   5.237  12.240   2.300  0.2100 -0.1910  0.1383
21590W        W37774  16.167  12.808   3.952  0.2139 -0.0496 -0.2474
21591W        W37775  11.338   3.920  11.819  0.2886 -0.1289  0.0630
21592W        W37776  14.660  17.765  15.313 -0.0118  0.5109  0.1216
21593W        W37777  15.770   1.210  15.169  0.0688 -0.2993 -0.0041
21594W        W37778  12.647   9.901   4.485 -0.4732  0.0170  0.0153
21595W        W37779  15.740   6.349   1.710 -0.0345 -0.2665  0.0941
21596W        W37780   5.733   1.534   1.356 -0.0736 -0.0071  0.0352
21597W        W37781  10.781  17.631  13.106  0.1551 -0.3783 -0.4129
21598W        W37782  14.289   2.766   3.991  0.2157 -0.3114  0.0983
21599W        W37783   8.543   2.199   4.505 -0.1103 -0.1149 -0.0560
21600W        W37784  13.199  18.085   5.615 -0.2977 -0.1989  0.0939
21601W        W37785   6.809   5.990  14.152 -0.0918  0.4216  0.0045
21602W        W37786  10.235   8.437   0.566 -0.2733 -0.0448 -0.2059
21603W        W37787   4.515  14.699   2.641 -0.3313 -0.0947 -0.0253
21604W        W37788  13.590  15.630  14.666  0.1703 -0.3487  0.4375
21605W        W37789   0.434   2.151  14.794 -0.1764  0.0458 -0.0125
21606W        W37790  15.763   3.218   4.925  0.0745 -0.2622  0.0610
21607W        W37791   8.197   0.117   1.458  0.0576 -0.1723 -0.0340
21608W        W37792  12.686   1.923  13.939  0.3640 -0.3695 -0.0640
21609W        W37793   3.978   9.540   1.387 -0.1158  0.0105  0.1366
21610W        W37794   4.472  11.741  14.360 -0.0932  0.0942 -0.1029
21611W        W37795   4.135   9.905   0.547  0.0190  0.2330 -0.0479
21612W        W37796   5.685   3.975  14.078 -0.0217 -0.0554  0.0680
21613W        W37797  13.737  11.944   4.123  0.0230  0.0221 -0.0397
21614W        W37798  13.276   2.720   4.940 -0.2298  0.0449 -0.0488
21615W        W37799  10.830   0.882   4.469 -0.0655  0.1899 -0.1954
21616W        W37800   6.007  14.541   3.290 -0.0230 -0.1226  0.1946
21617W        W37801  14.420  15.502   2.858 -0.0764  0.1630  0.4043
21618W        W37802   5.125  12.769  15.154  0.2419 -0.0009  0.0643
21619W        W37803   4.628   7.008  13.144  0.0228 -0.1023 -0.2216
21620W        W37804   0.157   2.297  14.021 -0.4679  0.0553 -0.3727
21621W        W37805  12.827  13.348   3.475  0.3202  0.0731 -0.0621
21622W        W37806  14.492  18.197   4.092 -0.0536  0.0755 -0.0623
21623W        W37807   2.500   0.673  14.050 -0.6006 -0.1879  0.2706
21624W        W37808  15.876   5.386  10.390  0.1696  0.0553 -0.3695
21625W        W37809   9.262   3.814   0.626 -0.0804 -0.1970  0.2886
21626W        W37810   8.321   7.282   3.874  0.0348  0.0819 -0.0388
21627W        W37811   3.541   3.547   5.122  0.0501  0.0972 -0.0822
21628W        W37812   3.006   4.597  14.318  0.4131 -0.0395  0.3989
21629W        W37813  16.900   0.990  11.196  0.1057 -0.2809  0.0786
21630W        W37814   8.374   5.442  14.246 -0.1484 -0.0972 -0.0502
21631W        W37815  15.925   2.866   9.565  0.1483  0.1533 -0.1882
21632W        W37816   2.013  15.419   1.793  0.2855  0.2150 -0.2312
21633W        W37817  17.540   5.645  13.157  0.0006 -0.0969  0.0118
21634W        W37818   0.046  18.339   0.062  0.1867  0.2414 -0.1209
21635W        W37819   8.630  14.870  14.909 -0.1784 -0.2591 -0.2264
21636W        W37820   5.982   3.740  11.261  0.0387 -0.3702 -0.1243
21637W        W37821   5.218  12.711  10.158  0.1663  0.0186 -0.0428
21638W        W37822  13.906  10.811   5.112 -0.2448  0.2965 -0.2567
21639W        W37823  17.652   8.917   0.086 -0.2397  0.1239  0.1725
21640W        W37824  15.126   0.226  15.096 -0.0785 -0.1411  0.1974
21641W        W37825   0.886   5.750  12.680 -0.0076  0.3163  0.0894
21642W        W37826  13.568   5.123   1.253  0.0226 -0.0767  0.0889
21643W        W37827   0.684  12.652   3.293 -0.0355  0.1523 -0.0270
21644W        W37828   7.103  16.164  11.490 -0.0972 -0.0025 -0.1649
21645W        W37829  14.025  11.601   0.348  0.0603 -0.0337 -0.1079
21646W        W37830   4.243   4.086   4.697  0.2740  0.0065 -0.1520
21647W        W37831  14.167   4.885   3.769  0.0937  0.2183  0.2755
21648W        W37832   7.305   5.731  15.399  0.0646  0.0590  0.0300
21649W        W37833  14.065  13.307  14.309  0.2275  0.1843  0.0259
21650W        W37834   3.712  11.342   4.497  0.2907  0.2880  0.0291
21651W        W37835  14.792  18.421  14.464 -0.1173 -0.0003 -0.1339
21652W        W37836   8.404   6.703  14.441  0.3150  0.1750  0.0060
21653W        W37837  16.843  18.654   1.604 -0.0466  0.0028  0.3967
21654W        W37838  10.958  16.788   4.429 -0.0770 -0.3256 -0.2975
21655W        W37839  14.595   0.957  14.750 -0.1766 -0.0274 -0.0883
21656W        W37840  10.153   0.257  15.134  0.2116 -0.0286  0.0619
21657W        W37841   5.415  12.170   1.014  0.1962 -0.1079 -0.2739
21658W        W37842  10.060   0.933   1.243 -0.0209  0.0533 -0.1730
21659W        W37843   5.135   4.075  14.569  0.3975  0.1107 -0.0735
21660W        W37844   9.552   4.464  12.277  0.0456 -0.0719 -0.1450
21661W        W37845   6.356   2.542  14.365 -0.0926  0.1160 -0.0011
21662W        W37846  18.520   1.257  13.087 -0.0867  0.1791  0.1072
21663W        W37847   4.655   9.441  15.292 -0.0493 -0.2593  0.0729
21664W        W37848   0.276  13.431  13.539 -0.1148 -0.1455  0.0129
21665W        W37849  16.508  15.062   1.306  0.1407  0.0812  0.0330
21666W        W37850   6.085  12.776   5.243  0.0474 -0.1958 -0.2113
21667W        W37851  17.820  16.276  11.766  0.1711  0.3395 -0.0971
21668W        W37852   4.595   9.353   5.035  0.1124  0.1621 -0.2341
21669W        W37853   6.677  17.204  13.647  0.2033 -0.0946  0.1949
21670W        W37854   7.326  15.558   0.999 -0.0317  0.1334  0.0235
21671W        W37855   6.913  18.186   5.694 -0.3570 -0.2848 -0.0804
21672W        W37856   2.831   6.462  15.381 -0.1549 -0.0831 -0.2897
21673W        W37857  11.046   6.355   0.152 -0.0037  0.0099 -0.1231
21674W        W37858  16.402  12.619  14.166 -0.1805 -0.3367 -0.0873
21675W        W37859  11.811  15.297   1.431 -0.2310  0.1594 -0.1700
21676W        W37860  17.226  15.384   1.349  0.4825 -0.2277 -0.0566
21677W        W37861  10.232   9.228  13.970  0.0309  0.2447 -0.1387
21678W        W37862   0.146  14.662  12.302 -0.0135  0.2391  0.1149
21679W        W37863   8.840  17.508  12.210  0.1034  0.0329 -0.0439
21680W        W37864   4.609  11.056   1.398  0.0877  0.0014 -0.0941
21681W        W37865  14.888   8.046   4.534 -0.1066 -0.0063  0.1070
21682W        W37866   6.081  12.914   2.543  0.1473  0.1700 -0.0572
21683W        W37867  13.290   1.175  14.153  0.3727  0.0718  0.0855
21684W        W37868  12.202   2.593  15.441  0.3711 -0.2047 -0.1275
21685W        W37869   3.301   9.855  10.795 -0.1143 -0.2635 -0.0790
21686W        W37870   5.433  16.077  11.902  0.0117  0.2315 -0.0235
21687W        W37871   5.225   2.211  14.325  0.1109  0.0262  0.0941
21688W        W37872  12.702   8.028  12.113 -0.3786 -0.0145  0.0979
21689W        W37873   9.001  13.194  12.106  0.0625 -0.0750  0.1633
21690W        W37874  16.955   6.979   5.960  0.1148  0.2611  0.0323
21691W        W37875  14.443   0.986  11.036 -0.1113 -0.0663 -0.0980
21692W        W37876   4.457  13.848  13.772  0.1253 -0.0471 -0.0307
21693W        W37877   6.737   0.521   5.399  0.1790 -0.1103 -0.1711
21694W        W37878   8.791  14.751  13.556 -0.1734  0.0976  0.1775
21695W        W37879  10.187   0.782  11.102 -0.0245  0.0842  0.1627
21696W        W37880   6.787   8.791  13.268 -0.0334  0.0974  0.0449
21697W        W37881  18.064  12.250   4.693 -0.1720  0.1136  0.0141
21698W        W37882  16.610   4.404   5.016  0.3896  0.1697 -0.2868
21699W        W37883   1.632  17.681   2.555 -0.1012 -0.1025 -0.0513
21700W        W37884   6.438  17.037  11.390  0.1072 -0.0430  0.0972
21701W        W37885   1.058   0.040   1.675  0.0740 -0.2420 -0.1924
21702W        W37886  16.694   7.393  14.188 -0.0168 -0.1351 -0.0249
21703W        W37887  18.768  17.936   0.733  0.2258  0.0821 -0.0677
21704W        W37888   6.942   4.113  13.780  0.2239  0.1018  0.1799
21705W        W37889   8.258  10.940   3.246  0.1520 -0.2667 -0.0052
21706W        W37890   6.814   0.755  14.171 -0.1356 -0.1794 -0.2063
21707W        W37891  13.572   1.387   3.259 -0.2291 -0.0400  0.1962
21708W        W37892   0.106   4.099   0.625 -0.0882 -0.1045  0.1910
21709W        W37893  11.656  12.003   5.763 -0.1403  0.0153  0.0913
21710W        W37894  13.488  15.847   1.050 -0.0113 -0.0073 -0.0415
21711W        W37895   0.665   3.324   3.120  0.0956 -0.0870 -0.1052
21712W        W37896   7.390  16.643   3.491 -0.1043 -0.1047  0.1997
21713W        W37897   5.615   4.050  14.556 -0.2069  0.0712  0.0783
21714W        W37898   2.649   4.214   0.771  0.1792  0.0772 -0.2922
21715W        W37899   5.245   8.001   1.199  0.0622 -0.2998 -0.0453
21716W        W37900  14.577   8.613  15.054  0.1156 -0.4735  0.1743
21717W        W37901  10.504   2.397  14.752 -0.0605  0.0523  0.0186
21718W        W37902   6.804  13.263   0.454 -0.0138 -0.0596 -0.2544
21719W        W37903   9.178  13.645   0.341  0.0773  0.2445  0.0086
21720W        W37904  16.951   5.358  14.425 -0.0459 -0.0118  0.2447
21721W        W37905  18.674   3.555  12.412  0.2930 -0.1082 -0.2830
21722W        W37906   5.045   7.336   4.250 -0.1660 -0.2234  0.0931
21723W        W37907   1.543   7.107   3.018 -0.1479 -0.0767 -0.0653
21724W        W37908   4.077   9.990  13.885 -0.0955  0.1470 -0.1196
21725W        W37909  17.148   8.458  14.106  0.2520 -0.0355  0.1505
21726W        W37910  11.927  14.920  11.588 -0.1919  0.0551 -0.2873
21727W        W37911  14.404   6.715  13.567 -0.0613 -0.1329  0.0657
21728W        W37912   7.414  16.476  13.523  0.1980  0.2761 -0.0048
21729W        W37913   4.860  17.745  14.583  0.1297 -0.0624  0.0650
21730W        W37914  14.409   0.256  11.382  0.2304  0.2291 -0.0914
21731W        W37915  14.045  10.835  14.454  0.1859  0.4375  0.2398
21732W        W37916   9.270  15.195  14.987 -0.1038  0.1633  0.1530
21733W        W37917   0.305   7.777   0.807  0.0248 -0.2018  0.1263
21734W        W37918   7.610   4.136  15.107 -0.0045  0.2562 -0.0982
21735W        W37919   2.616   3.261   2.913  0.1840 -0.0766  0.3294
21736W        W37920   0.628  14.275   9.728 -0.2370  0.4136  0.2137
21737W        W37921  18.776  18.632   4.001  0.2931 -0.1770  0.2201
21738W        W37922  13.931   6.533  12.280  0.1561  0.1605  0.0464
21739W        W37923  16.119  10.846  13.652 -0.1120 -0.4421 -0.2627
21740W        W37924   7.909  15.256   5.206 -0.0716  0.3238  0.0782
21741W        W37925   5.160   1.293   5.141  0.0454  0.4549  0.1734
21742W        W37926  10.700  10.995   2.944 -0.2738 -0.2675 -0.0797
21743W        W37927  16.692  17.188   4.346 -0.0250  0.0170  0.1178
21744W        W37928  12.870  10.691   3.170 -0.1042 -0.2211  0.0293
21745W        W37929   9.103   8.022  11.210 -0.1389 -0.1246 -0.0252
21746W        W37930  16.580   8.005   2.377  0.1038 -0.1855  0.2184
21747W        W37931   7.274  11.899  12.055  0.0111  0.2950  0.2160
21748W        W37932   8.010  13.268   2.377 -0.0536  0.2670  0.1971
21749W        W37933   3.452   9.950  13.184  0.0569 -0.2432 -0.2019
21750W        W37934   7.844   5.250  12.386  0.1235  0.1762 -0.1364
21751W        W37935   0.297  17.036  11.332 -0.0076 -0.0259 -0.3512
21752W        W37936  11.444  11.822   3.845 -0.1188 -0.1938  0.2293
21753W        W37937   3.046  11.107   2.756 -0.1809 -0.2026 -0.1673
21754W        W37938   5.159   8.440  14.061  0.0599  0.0357 -0.0417
21755W        W37939  18.704  12.102  12.621  0.0332 -0.2158  0.0603
21756W        W37940  14.051  11.564  14.887 -0.1077  0.1351  0.0290
21757W        W37941   1.874  16.669   3.515 -0.3237 -0.0817  0.1494
21758W        W37942   2.552  14.998  14.205 -0.2893  0.1242  0.5681
21759W        W37943  15.248  14.080   1.787  0.2554 -0.2475  0.0092
21760W        W37944   3.631   8.260  12.505 -0.1466  0.2465 -0.0800
21761W        W37945  12.983  14.685   4.915 -0.0803  0.0751 -0.0016
21762W        W37946   5.337   2.354   0.971 -0.0303 -0.0432  0.0325
21763W        W37947  16.513  12.662   5.042  0.0901 -0.2212  0.1437
21764W        W37948   0.617   6.340  11.242 -0.3043 -0.4212 -0.1085
21765W        W37949   2.374  11.723  11.696 -0.2242  0.3130  0.4372
21766W        W37950  17.908   0.249   4.206  0.0392  0.1325  0.1212
21767W        W37951  12.688   5.208  11.965 -0.0711 -0.2848 -0.0606
21768W        W37952  17.436   7.058  13.033 -0.1330 -0.0735  0.3139
21769W        W37953  18.539  15.280   4.592 -0.2280  0.0315 -0.1717
21770W        W37954   0.794   3.949  12.870 -0.1255  0.0996  0.0707
21771W        W37955  12.087   9.742  12.927 -0.2700 -0.2014 -0.0546
21772W        W37956  10.945  18.434  12.822  0.0146  0.0409 -0.1505
21773W        W37957  13.038   1.911   1.613  0.1187  0.3557 -0.0673
21774W        W37958  15.951   2.115   2.062  0.0839 -0.1045  0.2260
21775W        W37959   8.942   1.186   2.500 -0.3473  0.0474 -0.1835
21776W        W37960   8.354  18.401   2.817  0.0234  0.1246  0.1044
21777W        W37961  18.360  15.360   3.952  0.4461 -0.0190  0.2126
21778W        W37962   1.896   8.572   4.018 -0.1914  0.4616 -0.0039
21779W        W37963  10.268  18.253  14.385 -0.1059  0.2138  0.3445
21780W        W37964  12.987   1.462   3.603  0.0773  0.0438 -0.4653
21781W        W37965   2.749   8.606   2.663  0.0379  0.1702 -0.1117
21782W        W37966  14.839   5.924  13.660 -0.0127  0.2386 -0.1023
21783W        W37967  16.346   3.884   3.396 -0.1983 -0.0546 -0.0537
21784W        W37968   5.112   5.489   9.608  0.0825  0.1170 -0.0303
21785W        W37969   5.894  14.314   5.152 -0.0851  0.0154  0.0506
21786W        W37970   3.952   4.852   2.064 -0.3940  0.0380 -0.0431
21787W        W37971  18.420  17.278  12.685 -0.2664 -0.0190 -0.0044
21788W        W37972  14.905   5.079   3.088  0.2300 -0.1937  0.0618
21789W        W37973  16.122   7.846   5.378  0.1753  0.0208  0.2457
21790W        W37974  11.394   3.183  13.792 -0.2344 -0.1453  0.0890
21791W        W37975  15.036  15.220  13.513 -0.1592 -0.0533  0.0847
21792W        W37976  17.296   2.894   3.212  0.1333  0.0264  0.1028
21793W        W37977  18.233   3.405   1.419 -0.1707  0.2444  0.2880
21794W        W37978  16.251   8.529  13.525  0.2586 -0.0531  0.0104
21795W        W37979   7.508  18.765   1.051  0.0241  0.2871 -0.2308
21796W        W37980  16.480  17.162   5.316  0.1777 -0.0881 -0.1367
21797W        W37981  14.046   9.683  11.682 -0.1251  0.4452  0.1224
21798W        W37982   2.451   5.789  13.443 -0.1161  0.1908  0.2025
21799W        W37983  13.180   8.749  13.514  0.2984 -0.4407 -0.2074
21800W        W37984   7.180  15.484   2.135  0.0261 -0.0176  0.4475
21801W        W37985  14.327  17.269   4.195 -0.2712  0.2135 -0.3652
21802W        W37986   8.791   4.876  11.925 -0.0858 -0.1066 -0.1203
21803W        W37987   0.644  16.730   9.772  0.0378 -0.1051  0.1318
21804W        W37988   7.571   4.239   0.358  0.1139 -0.0839 -0.2732
21805W        W37989   2.734  18.000   3.117 -0.3564 -0.2381  0.2647
21806W        W37990   0.224  10.568   0.281  0.1814 -0.1599 -0.0366
21807W        W37991  11.120  14.435   1.264 -0.0232  0.1142  0.0599
21808W        W37992   3.749   7.779   2.150  0.1838 -0.1685  0.1134
21809W        W37993  15.528   3.615  13.459 -0.1272 -0.0306  0.0970
21810W        W37994   6.236   1.926   0.529  0.1583  0.0261  0.0765
21811W        W37995  17.633   0.724   2.537 -0.1531 -0.2330 -0.1147
21812W        W37996   6.219   0.572   4.409  0.1254  0.1087 -0.0945
21813W        W37997  17.183  17.244  15.367 -0.0070  0.4361  0.0903
21814W        W37998   3.819   0.292  13.614  0.1024 -0.1012  0.0839
21815W        W37999   8.756   9.028   2.849 -0.0771  0.2657  0.2314
21816W        W38000   0.485   3.364  11.077 -0.1815  0.1112 -0.3057
21817W        W38001   3.213  15.359  15.016 -0.1119  0.0848  0.0397
21818W        W38002  16.878  11.089  14.151  0.0675  0.0456 -0.3049
21819W        W38003   3.035   1.577   0.788  0.1772  0.1607  0.3427
21820W        W38004   3.121  14.508   1.294 -0.1464  0.4866 -0.0948
21821W        W38005  18.766   8.515   3.832 -0.2531 -0.1274 -0.0443
21822W        W38006   9.735  11.199  12.589 -0.0339  0.4309 -0.1991
21823W        W38007   8.376  10.627   0.530 -0.1219  0.0683 -0.1682
21824W        W38008   2.646   4.139   2.371  0.1168  0.1942  0.0401
21825W        W38009   6.014  10.028  12.464  0.0234  0.0392  0.2555
21826W        W38010  13.885   5.353   2.168  0.1230  0.1041  0.4024
21827W        W38011  10.969   9.616   4.099  0.1061  0.1994 -0.0237
21828W        W38012   2.968  13.120   3.394  0.1175  0.3869 -0.0161
21829W        W38013  12.660  17.953  13.415  0.0638 -0.1738  0.0771
21830W        W38014   7.151  12.867   2.857  0.1319  0.1164 -0.3979
21831W        W38015   6.695  17.076  11.839 -0.0882  0.2417  0.0100
21832W        W38016  10.820  17.921   3.337  0.1473 -0.0432  0.0785
21833W        W38017  16.447  18.727   0.493  0.1285  0.3302  0.2017
21834W        W38018   2.377  13.555   4.480  0.1702 -0.2275 -0.1958
21835W        W38019  11.866   5.728   1.048  0.0884 -0.0228 -0.0769
21836W        W38020   8.020  13.676   5.415  0.3639 -0.2419 -0.0253
21837W        W38021   3.522   2.287  14.059 -0.2465  0.1681 -0.5185
21838W        W38022   3.127  13.106   2.026 -0.1937 -0.0109  0.5700
21839W        W38023  15.625  13.027   0.392 -0.0685 -0.5693  0.0662
21840W        W38024   7.708   0.269   0.560 -0.1647  0.0047  0.2919
21841W        W38025  15.271   8.098  13.490 -0.1618  0.1263 -0.2385
21842W        W38026  12.181   8.134   5.620 -0.1049 -0.1165 -0.1178
21843W        W38027  15.350   1.271   0.459  0.1185  0.1336  0.1405
21844W        W38028   2.959   3.436  12.081  0.2749 -0.2681  0.0825
21845W        W38029   1.871   6.043  15.251  0.0359 -0.3678  0.0731
21846W        W38030  17.518  11.347  10.918  0.2021  0.1462  0.1425
21847W        W38031  14.831  11.282  11.898  0.1185 -0.0958 -0.1095
21848W        W38032   7.495   5.293   5.408  0.2093  0.1067 -0.1527
21849W        W38033   7.565   8.151   1.523  0.0183  0.0428  0.1733
21850W        W38034  17.873  10.213   2.406  0.0344 -0.0659 -0.2699
21851W        W38035  16.094   2.134   1.217 -0.1619  0.1537  0.1864
21852W        W38036  13.008   0.310  14.071 -0.0543  0.2110  0.2721
21853W        W38037   8.180  12.161   5.150  0.0400  0.3614  0.2359
21854W        W38038   5.414  15.395  10.275  0.0747 -0.2064  0.0006
21855W        W38039   9.548   7.720   1.891 -0.3567  0.1432  0.0159
21856W        W38040   3.219  17.377  14.891  0.0774  0.2033  0.1295
21857W        W38041   7.112   7.569  12.565 -0.2065  0.5223  0.0664
21858W        W38042   5.088   7.305   5.716  0.1220 -0.1258  0.0555
21859W        W38043  11.831  10.500  12.796  0.0934 -0.1607 -0.0231
21860W        W38044  11.178  18.530  14.992  0.3302 -0.1116  0.1097
21861W        W38045   9.503  13.931   0.089 -0.2934  0.0228 -0.0001
21862W        W38046  12.788   1.996   5.455  0.1812  0.1964 -0.3624
21863W        W38047   1.962   2.652  11.705 -0.1491 -0.0960  0.0680
21864W        W38048   9.120  10.181  14.671 -0.1797  0.2652 -0.0753
21865W        W38049  14.918  13.927   2.170 -0.2290  0.1249  0.6023
21866W        W38050   0.870  17.873  13.946  0.1581  0.0794 -0.2277
21867W        W38051   7.325  18.790   0.449 -0.0635 -0.2313 -0.2492
21868W        W38052  16.815  14.645   1.306  0.2071 -0.2342 -0.0723
21869W        W38053  10.472  11.621   0.686 -0.0505  0.1716 -0.1827
21870W        W38054  14.677  10.300  13.822  0.0655  0.3501 -0.4715
21871W        W38055  14.174   7.508  11.041  0.1200  0.0760  0.0122
21872W        W38056  12.116  12.808   3.251 -0.1934 -0.1990  0.1491
21873W        W38057   6.560   6.555   0.067  0.1771  0.0611  0.4645
21874W        W38058  11.219   7.374  11.960 -0.2617  0.0684  0.0765
21875W        W38059  16.983   5.250  10.838  0.1705 -0.1632  0.1255
21876W        W38060  10.659  17.337   3.840  0.4160 -0.1738  0.1244
21877W        W38061   0.246  10.008  15.464  0.0432 -0.0649 -0.0658
21878W        W38062  18.728  14.125   2.174  0.2381  0.3701 -0.1429
21879W        W38063  14.476  10.606   0.617  0.3671 -0.2256 -0.1651
21880W        W38064  10.058   5.601  15.033 -0.0424 -0.2617 -0.3750
21881W        W38065   3.184   6.942   5.636  0.1435 -0.1190  0.0091
21882W        W38066  12.182  14.450  11.614  0.1005 -0.0019  0.0576
21883W        W38067  17.770   7.817  14.298 -0.2257 -0.0786 -0.0063
21884W        W38068  13.897  16.341  14.116 -0.3622  0.0736 -0.0832
21885W        W38069   2.504  16.461  12.961  0.0301  0.0094  0.4084
21886W        W38070  13.967  15.572   3.017 -0.0401 -0.2566 -0.0869
21887W        W38071  17.301   8.024  13.381 -0.0557 -0.1068  0.2728
21888W        W38072  15.706  13.430   2.697 -0.3151  0.1755 -0.0323
21889W        W38073   1.040  10.031   0.453  0.1398  0.0283  0.4352
21890W        W38074  13.194  16.899   5.036  0.1491 -0.0698  0.1132
21891W        W38075   9.172   3.892   3.356  0.0188 -0.0956  0.0635
21892W        W38076  17.461   2.531  11.711 -0.0488 -0.0576 -0.1018
21893W        W38077  14.014   1.603  14.946 -0.2318 -0.3239  0.0516
21894W        W38078  17.658   4.420  13.773  0.0359  0.1273  0.3985
21895W        W38079  12.539   8.479   3.806 -0.0086 -0.0032 -0.0111
21896W        W38080   0.505  10.332   4.623  0.0184  0.0799  0.0379
21897W        W38081   8.038  18.085   3.396 -0.2134  0.3448  0.0436
21898W        W38082   3.486   4.153   0.563 -0.0232 -0.1642  0.2100
21899W        W38083   2.129   4.243  14.811 -0.0146 -0.0569  0.1320
21900W        W38084  16.477  16.203   0.227  0.0378 -0.1282  0.0602
21901W        W38085   4.868   3.483  11.980 -0.0974  0.0544 -0.2978
21902W        W38086   1.143   6.462   0.338 -0.1448 -0.2306  0.0248
21903W        W38087  13.509  10.899  13.313 -0.1712 -0.0604  0.2093
21904W        W38088  10.623   2.126   2.714 -0.2156 -0.3260  0.0819
21905W        W38089   5.503   9.965   3.123 -0.2214  0.0544  0.0676
21906W        W38090   2.902  14.757   2.115  0.1418 -0.0043 -0.1218
21907W        W38091   3.257  16.809  13.717 -0.1098  0.2338  0.0582
21908W        W38092   2.746   4.814   4.185  0.2772  0.2212  0.0910
21909W        W38093   3.172  17.070   4.512 -0.0627 -0.1639  0.3076
21910W        W38094  17.182   2.614  12.943  0.0123  0.0123  0.0409
21911W        W38095   9.209   8.226   4.007 -0.0567 -0.1075  0.0692
21912W        W38096  10.973  16.716   0.031  0.0283 -0.5224  0.0484
21913W        W38097  15.868  12.500  12.915  0.0177 -0.2555  0.1340
21914W        W38098   0.496  11.335   0.507  0.1685 -0.0530  0.1879
21915W        W38099  13.423  10.112   5.967  0.2227  0.0073 -0.0377
21916W        W38100   1.145  18.175  11.385 -0.1944 -0.2839 -0.1896
21917W        W38101   0.438   3.817   1.432  0.1097 -0.1812  0.1906
21918W        W38102   1.526  10.277   0.501  0.1262 -0.2632 -0.3613
21919W        W38103  10.373   9.232  11.407 -0.0630  0.1891 -0.4133
21920W        W38104  15.526   0.470   3.475 -0.2969 -0.2841 -0.0170
21921W        W38105  14.440   6.408  14.763 -0.1385 -0.2950 -0.0890
21922W        W38106  18.114   0.414   2.814 -0.2702  0.1842  0.2631
21923W        W38107   9.753   2.696   4.343  0.0866 -0.2366  0.0631
21924W        W38108  12.354   6.860  14.376  0.2739  0.1791  0.1178
21925W        W38109   6.671  10.924   5.494 -0.0292 -0.1352 -0.1071
21926W        W38110   9.668   9.457  15.050 -0.1274 -0.1138 -0.1813
21927W        W38111   2.655   8.294   1.551 -0.1500  0.1816 -0.1926
21928W        W38112  18.548   5.544  14.615  0.2139  0.1248 -0.1125
21929W        W38113  16.261   0.408  11.689  0.0465 -0.3072  0.0097
21930W        W38114   7.775   3.766   1.734  0.4093 -0.4508 -0.0336
21931W        W38115  13.201  17.103   1.240  0.2281  0.0520  0.1994
21932W        W38116  17.001   9.969  13.886  0.0748 -0.1664  0.1084
21933W        W38117   3.789  14.364  12.579 -0.1338 -0.1694  0.4040
21934W        W38118   2.818   1.993  15.469 -0.2029  0.3082 -0.2999
21935W        W38119  17.636  14.990   0.414  0.0857 -0.3165  0.1082
21936W        W38120   2.297   6.527   1.506  0.1793  0.0612  0.1861
21937W        W38121   0.433  11.682   3.173 -0.2127  0.0360 -0.2115
21938W        W38122   7.837  15.642   0.632 -0.0204 -0.1906  0.1434
21939W        W38123   9.916   3.318   5.913  0.0187  0.0502 -0.0747
21940W        W38124   0.500   8.105  12.242  0.1779 -0.2464 -0.0103
21941W        W38125   0.689  13.597   3.733 -0.0409 -0.0476  0.4145
21942W        W38126  14.836   9.969   2.428  0.2508 -0.2343  0.1482
21943W        W38127   2.761   3.965  12.156 -0.0815  0.2095 -0.1347
21944W        W38128  18.783   1.698   2.274 -0.2100 -0.2210 -0.0335
21945W        W38129   4.456   7.716   1.570 -0.1472 -0.0974  0.0505
21946W        W38130   1.075  15.505   0.619  0.0501 -0.0966 -0.1981
21947W        W38131  17.987   5.314  11.748  0.0848  0.0535  0.2824
21948W        W38132   1.386   6.720   2.722  0.0623 -0.0157 -0.3006
21949W        W38133  18.548   5.766   0.356  0.1502  0.0987 -0.0695
21950W        W38134  11.259   9.902  13.005 -0.0769  0.1685 -0.0410
21951W        W38135  11.372   3.008   0.045  0.2189 -0.3610 -0.0513
21952W        W38136  13.613   9.185  11.136 -0.1271  0.1892 -0.2529
21953W        W38137   3.216  17.609  11.334  0.4436  0.0455 -0.1286
21954W        W38138   7.586  10.388  10.149  0.0474 -0.2366 -0.4055
21955W        W38139  18.109   6.011   2.243 -0.1195 -0.1997  0.3723
21956W        W38140   9.803   2.063   1.184 -0.2953 -0.2333 -0.0921
21957W        W38141   0.964  17.038   4.834 -0.2412  0.1831 -0.2443
21958W        W38142  12.124  11.722  12.864 -0.0519  0.3345 -0.3456
21959W        W38143   6.510   4.259   3.247 -0.1702 -0.0190  0.1575
21960W        W38144   5.706   1.979   0.734  0.1711 -0.0664 -0.0674
21961W        W38145  10.686   6.592   4.391  0.0544 -0.0590  0.0373
21962W        W38146  12.462   4.999   3.002 -0.0407  0.0296  0.3329
21963W        W38147   4.378  13.722   1.200 -0.1380  0.3225 -0.0055
21964W        W38148  16.745  17.778   5.375 -0.0626 -0.0501 -0.1007
21965W        W38149  15.101   9.266   1.733  0.0202 -0.0839  0.0833
21966W        W38150  14.152   4.054  11.294  0.4389  0.0608  0.0545
21967W        W38151  17.049  11.920   1.665 -0.1894  0.2749 -0.2149
21968W        W38152   9.247   1.218   0.688  0.1149 -0.0290 -0.0288
21969W        W38153   1.991   3.397   4.419 -0.1629  0.3260 -0.2070
21970W        W38154   1.650  14.291   0.421 -0.0203 -0.2440  0.0324
21971W        W38155  17.973  15.707  15.306 -0.0686  0.3692 -0.0802
21972W        W38156   4.822   8.946  15.281  0.2223 -0.3114  0.0443
21973W        W38157   0.925   5.789   0.892  0.1957 -0.2529 -0.4392
21974W        W38158   9.225   8.823   1.116  0.0546 -0.3599  0.1108
21975W        W38159   5.199   0.820   1.478  0.3619  0.0690 -0.3909
21976W        W38160  12.397  15.552  15.490 -0.2246  0.0182 -0.1365
21977W        W38161  12.899   1.753  14.417  0.2056 -0.4055  0.0228
21978W        W38162  18.622   2.670  11.207  0.0316 -0.0443  0.0026
21979W        W38163   8.372  16.051  14.380  0.0456 -0.0701  0.2886
21980W        W38164  15.369  13.928  12.903 -0.1914  0.1235  0.1410
21981W        W38165   4.566  11.221  14.805  0.1075 -0.1748 -0.3334
21982W        W38166   8.645   7.973  13.665  0.3217  0.0179 -0.2772
21983W        W38167  16.988  17.027  10.955  0.0861  0.1919  0.2751
21984W        W38168   6.048   7.717   5.354 -0.2653 -0.0713 -0.1803
21985W        W38169  15.077   7.863  14.777 -0.1479  0.2403  0.2135
21986W        W38170   4.806  17.179  14.331  0.0212 -0.1309  0.1618
21987W        W38171  17.801  16.545   5.185 -0.0113 -0.0048  0.0157
21988W        W38172  10.547  18.251   1.684 -0.1839 -0.2449  0.0937
21989W        W38173  16.333   3.805   0.099 -0.1869  0.2143 -0.0312
21990W        W38174   8.403  12.538  10.987  0.1095  0.0688  0.1811
21991W        W38175   1.061   2.277   3.619 -0.0277 -0.0621 -0.1359
21992W        W38176   9.673  13.914   2.853 -0.1491  0.1524  0.3411
21993W        W38177  15.726  14.146  13.651 -0.0343  0.1385  0.0472
21994W        W38178   9.743  14.708  13.199 -0.2341  0.0278 -0.0648
21995W        W38179  15.100  10.008   3.802  0.0170  0.1105  0.2285
21996W        W38180  13.386   9.008  13.934 -0.3131 -0.2469  0.0389
21997W        W38181  16.258   0.503   1.766  0.0944  0.2572  0.0769
21998W        W38182   9.207  14.655   3.976 -0.1522  0.1740 -0.0280
21999W        W38183   5.363  14.268   2.034  0.0564  0.0646 -0.0526
22000W        W38184  12.875  12.847  10.163  0.0927 -0.1010 -0.0874
22001W        W38185   0.870  14.185   1.808 -0.1282 -0.1325 -0.0048
22002W        W38186  17.622  18.603   1.116 -0.3684  0.0531  0.0296
22003W        W38187   3.652   6.717   1.717  0.2249  0.0999  0.0705
22004W        W38188  17.387  15.816  13.666  0.0316  0.2009 -0.1559
22005W        W38189  15.629   8.460   0.958  0.2157  0.1567 -0.1868
22006W        W38190  14.835  10.891   1.789 -0.1712  0.0712 -0.3030
22007W        W38191  13.122  11.298  11.053 -0.3545 -0.2962  0.0631
22008W        W38192   2.811   7.514   1.045  0.0669 -0.1403 -0.0625
22009W        W38193  12.034  10.389   1.634  0.0462  0.1507  0.2944
22010W        W38194  10.287  15.948  12.856 -0.0264  0.3063  0.0758
22011W        W38195  14.696   9.901   1.201  0.0794 -0.1061 -0.1084
22012W        W38196   2.248  11.111   3.401 -0.0402  0.1514  0.1312
22013W        W38197  15.905  11.221  13.416  0.1770 -0.0994  0.1438
22014W        W38198   7.139   5.288  14.384  0.1525 -0.1931  0.1115
22015W        W38199  12.622  14.798  10.879  0.0415 -0.1449  0.1937
22016W        W38200   9.712   7.283  15.402  0.0266  0.4668 -0.1503
22017W        W38201   4.497   2.287   3.914 -0.2667 -0.1207 -0.2245
22018W        W38202   9.524   9.055   2.510  0.2382 -0.1218  0.1653
22019W        W38203   9.663   6.872  14.924 -0.0922 -0.0720 -0.3478
22020W        W38204  18.475  15.608  12.221  0.2608 -0.0011 -0.2088
22021W        W38205   9.906  14.226   4.302  0.4007 -0.1990  0.0877
22022W        W38206  17.121  14.448  11.840 -0.2699 -0.1533  0.1460
22023W        W38207   8.927  14.532   2.518 -0.1888  0.1627 -0.1060
22024W        W38208   9.170   2.637  13.362  0.3461  0.3132 -0.0593
22025W        W38209   6.590   9.134   0.999 -0.0856  0.3127  0.1677
22026W        W38210  18.330  18.330   2.215 -0.0726  0.2047  0.0047
22027W        W38211   2.972  15.298  11.150 -0.1232  0.0357 -0.0387
22028W        W38212  11.821  18.533   4.290  0.1153  0.0824 -0.0148
22029W        W38213  14.978   5.864   3.952 -0.1469 -0.1231  0.2721
22030W        W38214  14.997  13.524  11.185 -0.0558  0.0865  0.2245
22031W        W38215   6.294  18.349  11.296  0.0117  0.0661  0.3835
22032W        W38216  18.072   7.659   0.136 -0.0765 -0.1454  0.3400
22033W        W38217   9.989  11.445   3.954  0.1108  0.1824 -0.0401
22034W        W38218  15.683   0.733   3.082 -0.0606 -0.1979 -0.2446
22035W        W38219  11.078   0.146  13.556  0.3769 -0.0505 -0.2671
22036W        W38220  12.296   5.622  13.270 -0.1231 -0.0887  0.0943
22037W        W38221  18.411  10.361  13.634  0.1588  0.5271  0.2666
22038W        W38222   1.317  12.480  14.648  0.1916  0.1955 -0.0050
22039W        W38223  16.850  10.313   1.025  0.1122  0.2671  0.0392
22040W        W38224   1.323  12.757   3.731  0.3237 -0.2683  0.1129
22041W        W38225   7.420   4.146  13.008  0.1000 -0.0884 -0.0738
22042W        W38226   2.478  13.316  12.787 -0.2512 -0.1549  0.0094
22043W        W38227   7.111  11.689  15.476  0.2327 -0.2079  0.0467
22044W        W38228   4.736   8.059   1.278 -0.0171  0.1919 -0.0123
22045W        W38229   3.791  17.718  11.899  0.1072 -0.3028  0.0521
22046W        W38230  11.329   5.902  15.088 -0.0390 -0.1960  0.1354
22047W        W38231  17.322   6.064  11.743 -0.0213  0.1215 -0.0027
22048W        W38232  17.270  16.999   4.349 -0.0426 -0.1099  0.3081
22049W        W38233  18.386   9.908  11.660  0.0105 -0.1037  0.0615
22050W        W38234   6.795   9.713   0.961 -0.0125  0.2058  0.1381
22051W        W38235   4.267   9.902   1.094 -0.3819 -0.2100  0.1487
22052W        W38236   8.861   0.315  13.356 -0.2607  0.0936  0.1707
22053W        W38237   8.074   8.429   0.349 -0.0312 -0.0267 -0.2904
22054W        W38238   8.582   2.340  12.601 -0.1393  0.0789  0.0162
22055W        W38239   4.885   9.340   3.537 -0.0278  0.3730 -0.1418
22056W        W38240   2.139   0.697  11.911 -0.3589 -0.0966  0.0689
22057W        W38241  11.127   2.298  12.398  0.0102  0.3236  0.2082
22058W        W38242  14.759   4.794   1.062  0.3519  0.0542 -0.1896
22059W        W38243   4.133  17.221  14.057  0.0003 -0.1037 -0.1171
22060W        W38244  17.201   1.435  13.402 -0.0684 -0.1742 -0.1946
22061W        W38245   1.097  16.285   4.324 -0.0193 -0.0263  0.2458
22062W        W38246   4.316  15.839  12.499  0.1969 -0.0194 -0.5069
22063W        W38247  17.727  18.747   1.597  0.1434 -0.2045 -0.0155
22064W        W38248   2.870   9.970   4.073 -0.0947 -0.0314  0.1392
22065W        W38249   5.351   9.472  12.547 -0.1806 -0.1104  0.1030
22066W        W38250  16.888  18.262   1.263  0.0181  0.0311 -0.0618
22067W        W38251   2.474   6.968  14.198 -0.0264 -0.0882  0.1626
22068W        W38252   1.550   8.960   2.252 -0.0568 -0.2619 -0.0108
22069W        W38253  15.042   3.913  14.428  0.1609 -0.0097 -0.0008
22070W        W38254  13.224   2.192   4.699  0.0961 -0.1997 -0.2945
22071W        W38255   0.076  17.196   5.208 -0.5200 -0.1438 -0.2422
22072W        W38256  10.887   1.923  15.344  0.1432 -0.0230  0.1787
22073W        W38257  11.324  18.024   3.488  0.0601  0.1510  0.3644
22074W        W38258   7.431  16.266   2.024 -0.2522  0.0645  0.2184
22075W        W38259   7.973  10.115  15.359  0.0569  0.4255  0.0902
22076W        W38260   0.556  18.806  12.815  0.0355 -0.0738 -0.1078
22077W        W38261  10.062  17.453  11.172 -0.1849  0.1500  0.2574
22078W        W38262   8.261  11.563  14.893 -0.0520  0.3735  0.1885
22079W        W38263   5.370  17.887   1.623  0.0194 -0.2594  0.0228
22080W        W38264  10.769   7.857  11.507 -0.0873  0.1412 -0.1972
22081W        W38265   5.835   7.774   4.475  0.0255 -0.0484  0.0256
22082W        W38266  17.835  18.310  12.966 -0.0088  0.1945 -0.0431
22083W        W38267   3.972  12.564   5.576 -0.4072 -0.0006 -0.1483
22084W        W38268   0.281  15.112   0.254  0.1310 -0.2709  0.0565
22085W        W38269  13.272  10.772   4.487  0.1715  0.0214 -0.3025
22086W        W38270   3.594   6.937   1.227  0.2444  0.1291  0.1602
22087W        W38271  10.676  17.714   0.783  0.2041 -0.0041  0.0770
22088W        W38272  13.896  15.579  10.974  0.0771 -0.0220 -0.0920
22089W        W38273  18.314  17.390  11.013 -0.0688  0.0850  0.0128
22090W        W38274   6.717   7.958   3.082 -0.2416  0.2676  0.0965
22091W        W38275  10.899  13.476  13.653 -0.1263  0.3376  0.0531
22092W        W38276   6.363  10.560  14.553  0.0935 -0.0149  0.1603
22093W        W38277  18.112   2.025   1.243 -0.0782 -0.0659  0.0794
22094W        W38278   1.671   4.847   1.422  0.1351 -0.3122 -0.0941
22095W        W38279   4.854   1.419   1.711 -0.0475 -0.0442 -0.0269
22096W        W38280  15.617  13.355   9.688  0.1490 -0.0690  0.1195
22097W        W38281  12.357   9.859   1.423  0.1263 -0.2884 -0.0465
22098W        W38282  11.356  18.530  12.560 -0.5387  0.0748 -0.3459
22099W        W38283  18.149   0.741   1.163 -0.1734 -0.0969 -0.0002
22100W        W38284   4.608   6.804   3.487 -0.1306  0.0429  0.0537
22101W        W38285  14.826   0.712   4.863  0.0045 -0.0368  0.0773
22102W        W38286   8.121  16.803   5.451  0.3651  0.0721  0.3714
22103W        W38287  15.781   9.667  11.230  0.0755  0.1689 -0.0896
22104W        W38288  18.461  11.899   0.765  0.2040  0.2711 -0.0734
22105W        W38289   6.045   9.347   3.540  0.1786  0.3470  0.0470
22106W        W38290   4.607  14.041  11.899  0.0815 -0.3112  0.2586
22107W        W38291  15.806  16.056   4.736 -0.0096 -0.2410  0.2631
22108W        W38292   2.395   3.268  14.466  0.2794  0.0086 -0.1069
22109W        W38293   1.505   6.609   3.235 -0.2030 -0.0502  0.2756
22110W        W38294  13.969   1.668  10.731  0.0489  0.0156 -0.1306
22111W        W38295   3.089   5.777   2.985 -0.4471  0.2480 -0.1860
22112W        W38296   0.680   3.725  13.379  0.2337 -0.0190 -0.0658
22113W        W38297   7.518  13.272   2.510  0.2248 -0.1838 -0.1441
22114W        W38298   4.902   7.182   0.417  0.0924 -0.0274 -0.0731
22115W        W38299   7.374   5.982  12.609 -0.2462 -0.0904 -0.3346
22116W        W38300  16.654   3.761  13.946 -0.3393  0.0375 -0.0643
22117W        W38301  10.406  16.731  11.012  0.2702  0.0205 -0.2840
22118W        W38302  11.094   7.368   1.000  0.0181  0.0351  0.0656
22119W        W38303  10.005   0.661  15.527 -0.1248  0.1258 -0.2143
22120W        W38304  15.886  11.079   4.886  0.1093  0.1453 -0.0852
22121W        W38305  18.631  15.142   3.527  0.0773  0.1361 -0.0004
22122W        W38306   4.805  11.106   3.363  0.2261 -0.2302 -0.0057
22123W        W38307  18.778  10.803   1.648 -0.2310 -0.0310  0.1900
22124W        W38308   1.617   9.446   2.553 -0.1344 -0.1709 -0.1226
22125W        W38309  14.779   2.992   0.171  0.2278 -0.0886 -0.0504
22126W        W38310  12.713   2.380   0.183 -0.2726 -0.3350  0.2397
22127W        W38311   9.779  11.382   0.916 -0.0511  0.0024  0.0717
22128W        W38312  16.189  17.868   2.759  0.1290 -0.2145  0.1034
22129W        W38313  15.049  12.541  15.257  0.2655 -0.1403  0.1172
22130W        W38314  11.875  18.337   0.185 -0.2728  0.2232  0.1789
22131W        W38315  16.538  16.529   1.178  0.3638 -0.1158  0.1157
22132W        W38316   4.714   5.917  13.783  0.2727 -0.0030 -0.1565
22133W        W38317  17.921   8.778   3.854 -0.0286  0.1353 -0.0679
22134W        W38318   1.821   5.155   2.697 -0.0234  0.0285 -0.0185
22135W        W38319   8.262  15.651  15.411 -0.0439  0.1190 -0.0992
22136W        W38320  12.759   6.830   0.853  0.1290 -0.0394  0.0117
22137W        W38321  14.236   5.882   5.152 -0.1629 -0.0810 -0.0409
22138W        W38322  13.752  16.238   1.733  0.3347 -0.0357  0.2089
22139W        W38323   0.193  12.147  13.745 -0.0411 -0.1773 -0.3450
22140W        W38324   5.062  11.688  13.623  0.0264 -0.0473 -0.0759
22141W        W38325   4.672   5.066   3.198  0.1915 -0.1215  0.0797
22142W        W38326   9.624  12.091   2.200 -0.2444 -0.0401  0.0068
22143W        W38327   3.457   6.025   2.180  0.0098  0.0767 -0.0119
22144W        W38328   9.206  16.195   1.728  0.0739 -0.1774  0.0633
22145W        W38329   0.321  18.367  14.543  0.1713 -0.1790  0.1293
22146W        W38330  12.909   0.118   3.049 -0.0554  0.0895  0.0212
22147W        W38331   2.433   1.344   1.662 -0.0022 -0.3017  0.0338
22148W        W38332   1.650  17.176  10.830 -0.0636 -0.2156 -0.1003
22149W        W38333  15.316   0.568  11.881  0.2355 -0.2213  0.1081
22150W        W38334  18.591  17.879   0.251  0.1361  0.1445 -0.0106
22151W        W38335  13.787   3.018   0.243  0.0536  0.1593 -0.0754
22152W        W38336   9.959   0.923   4.035 -0.1142 -0.2699  0.1270
22153W        W38337   6.489   6.064   3.014 -0.2875  0.1714  0.0820
22154W        W38338   7.876  14.744   0.831 -0.0220 -0.2772 -0.0617
22155W        W38339  15.743   0.178   1.178 -0.0054 -0.0008 -0.0322
22156W        W38340  12.711   0.746  13.513  0.0111  0.1009 -0.1445
22157W        W38341  11.330   3.760   2.803 -0.1209  0.0565 -0.1122
22158W        W38342   1.786  11.975   2.081  0.0125  0.0904  0.0392
22159W        W38343  17.482   7.955   2.166  0.4297 -0.0174  0.0188
22160W        W38344   5.716   0.340  10.858  0.0197  0.1317 -0.1602
22161W        W38345  11.151   9.004   3.580 -0.1773  0.0343  0.2783
22162W        W38346   1.435  16.996  11.287 -0.0337  0.0232 -0.1452
22163W        W38347  13.243  14.120  14.810  0.1607 -0.1167  0.1848
22164W        W38348  12.022   9.737  11.892 -0.2302 -0.1900  0.0975
22165W        W38349  12.465   9.303  15.132  0.2297 -0.2665 -0.0014
22166W        W38350  15.400   2.585  12.448 -0.2358 -0.1990 -0.2659
22167W        W38351  14.065   5.297   0.416  0.0745  0.1307 -0.0576
22168W        W38352   5.684   4.820   1.280  0.4301  0.1897 -0.1534
22169W        W38353   4.856   1.451  12.118  0.0070 -0.3355  0.0195
22170W        W38354  15.911   1.114   2.096  0.0769  0.0170  0.2590
22171W        W38355  12.099   9.504   5.470  0.0473 -0.0418 -0.1008
22172W        W38356   8.715   1.474   1.396 -0.1792 -0.0513 -0.0902
22173W        W38357   9.306   9.817  12.162  0.3177 -0.3255 -0.1140
22174W        W38358  14.832   1.797  11.238  0.0586  0.0139 -0.0750
22175W        W38359   8.786  12.510   3.225 -0.1649 -0.0647 -0.3076
22176W        W38360  15.961   4.259   2.970  0.1013  0.3502 -0.1281
22177W        W38361  15.712   7.623  10.852 -0.0315 -0.3555 -0.0053
22178W        W38362   6.478  10.534  11.092 -0.1130 -0.0324  0.1775
22179W        W38363  16.714  14.266   1.851  0.0988 -0.2548  0.0758
22180W        W38364   8.172  10.968  15.077 -0.2332  0.3696 -0.5674
22181W        W38365  17.699  11.742   3.497 -0.2144  0.1858 -0.0747
22182W        W38366  14.827   8.570  10.527  0.1939  0.0417 -0.2508
22183W        W38367  11.917   5.124  12.389  0.3275  0.0015  0.1108
22184W        W38368   0.597  14.013   0.183 -0.2309  0.0250 -0.3828
22185W        W38369  16.294   6.024  14.254  0.0515 -0.0327  0.1890
22186W        W38370  13.856  17.867   0.321 -0.0132 -0.3814 -0.0702
22187W        W38371   3.598   5.782   4.626 -0.1252  0.2214  0.0046
22188W        W38372   4.962   8.527  14.919  0.1869 -0.1851  0.0082
22189W        W38373   4.468   1.615   0.547  0.1640 -0.0990  0.1269
22190W        W38374  12.239   5.629  15.439  0.1155  0.0053  0.0508
22191W        W38375   7.283   7.813   1.244 -0.0370  0.2460  0.6186
22192W        W38376  11.550   2.062  12.664  0.2156 -0.1791  0.1272
22193W        W38377  17.854  12.781   3.078  0.1833  0.1311 -0.2098
22194W        W38378   2.079   6.394   3.390 -0.2858  0.2275 -0.2399
22195W        W38379   4.314   7.556  15.325  0.3795 -0.3118 -0.0252
22196W        W38380   2.699   8.375   4.931 -0.0567  0.2268 -0.0114
22197W        W38381  18.551  10.825   3.540  0.0457  0.1662 -0.0008
22198W        W38382  12.403   4.795  12.179 -0.2958 -0.2806 -0.1670
22199W        W38383  14.760  17.727   6.164  0.0091  0.0143  0.2785
22200W        W38384  11.593  14.041  12.169  0.1973 -0.0097 -0.1966
22201W        W38385   0.474  18.472   2.107  0.1912 -0.2061  0.1192
22202W        W38386  18.361  11.389   2.813 -0.0265 -0.0101 -0.1217
22203W        W38387  10.617  17.686   2.948  0.0843 -0.2317  0.2093
22204W        W38388  14.241  12.073   1.216 -0.0206 -0.1231  0.2752
22205W        W38389  18.150  15.785   4.166 -0.3246  0.2401 -0.0400
22206W        W38390   5.688  15.269   1.546 -0.3209  0.1608  0.1912
22207W        W38391   3.544   7.720   3.090 -0.3476 -0.0484 -0.1517
22208W        W38392  11.845   8.221  12.810  0.1885  0.4783  0.0640
22209W        W38393  11.663   2.373  13.117 -0.0710  0.0597 -0.1615
22210W        W38394   4.902  13.550   2.250 -0.3002  0.1943  0.1347
22211W        W38395  14.445   1.484  11.098 -0.1056  0.0079 -0.0298
22212W        W38396   1.530   3.033  14.428  0.2564  0.0299 -0.4734
22213W        W38397   7.179  13.402  10.457  0.1472  0.0824  0.0743
22214W        W38398   5.627  12.227  10.699 -0.1077 -0.2287 -0.1231
22215W        W38399   9.544   7.110   2.727 -0.0852 -0.1268 -0.3010
22216W        W38400  11.033   9.500  12.792  0.0343  0.0131 -0.4127
22217W        W38401  18.826   1.334   0.849 -0.2091  0.0058  0.4231
22218W        W38402  17.793  10.399   3.856  0.0827 -0.5591  0.1225
22219W        W38403   0.741  15.618  14.187 -0.3110 -0.2532  0.2255
22220W        W38404   8.078  10.384  12.812  0.1940  0.1240  0.0362
22221W        W38405  13.292   6.552   0.244 -0.0625 -0.0200 -0.1923
22222W        W38406   2.744  16.099  14.267  0.2033  0.0667  0.0786
22223W        W38407  18.730  10.614   4.011 -0.1197  0.2450  0.1853
22224W        W38408   8.683   1.327  12.427 -0.0626 -0.0212  0.0453
22225W        W38409   3.584  14.071   4.958 -0.0634 -0.0950  0.0411
22226W        W38410   2.242   4.642   4.192 -0.0907 -0.1981  0.0638
22227W        W38411  14.684  16.426  10.921  0.0979  0.1386 -0.2698
22228W        W38412  10.069   7.583  11.172  0.1480 -0.2438 -0.2767
22229W        W38413   7.798  11.791  12.443 -0.2177 -0.2487  0.1229
22230W        W38414   2.087  15.516  13.835 -0.0382 -0.1654 -0.1277
22231W        W38415   2.595  10.096   0.612  0.0845 -0.0692  0.1039
22232W        W38416   6.625   2.639  14.786  0.2787  0.1111  0.2458
22233W        W38417  16.793  16.001  13.144 -0.0611 -0.0987 -0.1617
22234W        W38418  12.988  11.804   3.341  0.1718 -0.0516 -0.1591
22235W        W38419   9.569   0.037   3.420  0.0957  0.0021  0.3088
22236W        W38420   5.516  16.485  12.150 -0.2072 -0.3320 -0.0775
22237W        W38421  16.462  10.326  15.282 -0.0332  0.0545 -0.1152
22238W        W38422   1.508   9.840  11.013  0.1491  0.0034 -0.0647
22239W        W38423   4.348   0.246   4.717  0.1097  0.2292  0.0405
22240W        W38424   7.962  10.489  14.044  0.0031 -0.0890 -0.1524
22241W        W38425   5.579   8.532   3.218  0.1208  0.0598 -0.1696
22242W        W38426  16.911   6.626  13.774  0.0396  0.2032  0.1681
22243W        W38427  10.985  15.444  14.805  0.4491 -0.0699  0.2569
22244W        W38428   1.110   7.183   5.032 -0.0654 -0.2039 -0.1006
22245W        W38429   4.128   6.249   1.492  0.0521 -0.1019  0.1015
22246W        W38430   6.097  14.342  13.849 -0.5189 -0.1446 -0.0638
22247W        W38431   6.384  12.681  13.934 -0.4298  0.4385 -0.0152
22248W        W38432   6.616   9.177  11.252 -0.1311 -0.0161 -0.2317
22249W        W38433  16.680  15.850   2.624 -0.1736  0.0051 -0.2702
22250W        W38434   1.683  11.001  12.052 -0.0412  0.0510 -0.5004
22251W        W38435   1.754   9.184   9.902 -0.1684  0.2152 -0.4080
22252W        W38436   8.291   9.594  13.452 -0.0773  0.1641  0.0994
22253W        W38437   8.144  11.318   3.662  0.2324  0.0039 -0.1901
22254W        W38438   0.148   7.086   1.398 -0.2304  0.2309  0.1628
22255W        W38439  11.685   5.447  11.979 -0.1095  0.1682 -0.4630
22256W        W38440   3.407   5.961  15.270  0.1048 -0.0568 -0.0007
22257W        W38441  10.957  10.873  13.183  0.0648  0.1759 -0.0521
22258W        W38442   4.891  14.482  15.158 -0.0743 -0.1414  0.1844
22259W        W38443  11.950   3.115   0.429  0.1193  0.1984  0.0300
22260W        W38444   6.859   4.481   1.054  0.1737 -0.0180 -0.1053
22261W        W38445  10.121   8.867   0.347  0.1474 -0.0146 -0.0055
22262W        W38446  11.562   7.595   3.917 -0.0869  0.0214  0.2657
22263W        W38447  17.786  11.287   5.999  0.0039 -0.3865  0.3779
22264W        W38448  12.816   2.047  12.306  0.2421  0.0783 -0.2914
22265W        W38449   6.948   0.453   4.905 -0.1547 -0.3018 -0.0844
22266W        W38450   5.325  18.387   1.705  0.0112  0.2493 -0.0864
22267W        W38451   4.164   7.205   3.532 -0.2247 -0.1622  0.1985
22268W        W38452  16.060   9.919  15.094 -0.0678  0.4490 -0.0952
22269W        W38453   3.174   4.959  13.295  0.0648  0.1011  0.0709
22270W        W38454   6.690  17.482   2.544  0.2059  0.4579  0.2471
22271W        W38455   6.689   9.287   0.068  0.1643 -0.0436  0.1155
22272W        W38456   6.900   8.946  14.727 -0.0862  0.3022  0.2186
22273W        W38457  12.819   0.607  12.056 -0.0640  0.0253  0.1938
22274W        W38458   5.655   5.310   1.423 -0.0852  0.4594  0.0194
22275W        W38459   5.709  15.402   0.664  0.0702  0.0772 -0.0164
22276W        W38460  11.454   8.237   2.347 -0.4612  0.1583 -0.0549
22277W        W38461   2.011  17.468  11.058  0.1832  0.2381  0.2542
22278W        W38462   7.856  14.203   0.815 -0.2471 -0.0002  0.1656
22279W        W38463  15.787   6.176  15.055  0.3431  0.2144  0.1098
22280W        W38464  13.335  15.093   4.674 -0.0467  0.0340 -0.1771
22281W        W38465   5.229   9.245  15.313 -0.2473  0.4925 -0.0074
22282W        W38466  15.840  16.830   2.265  0.0222 -0.0977 -0.0643
22283W        W38467  17.598   6.220  12.601 -0.2641 -0.2764 -0.0593
22284W        W38468  11.344  18.824   4.495 -0.0957  0.1193 -0.0121
22285W        W38469   9.031  10.639   4.478 -0.0748  0.3572  0.0082
22286W        W38470   6.002  17.869  11.975 -0.0358 -0.0362 -0.0434
22287W        W38471   0.106  10.512  11.535  0.1128 -0.1793 -0.0144
22288W        W38472  13.156   9.846   1.494  0.1282  0.0452 -0.0111
22289W        W38473   2.344  11.557  15.219 -0.0397  0.0558 -0.2308
22290W        W38474  12.460   2.806   0.343  0.0184  0.1554 -0.0463
22291W        W38475   9.549   7.970   4.540 -0.4508 -0.1724 -0.0254
22292W        W38476  17.170  17.658  14.119 -0.2676  0.0242  0.2464
22293W        W38477   5.174   0.599   2.112 -0.0239 -0.0906  0.0014
22294W        W38478   2.468   3.111   4.658  0.1733  0.1841  0.3771
22295W        W38479   1.903   5.915   4.004 -0.1787  0.1059  0.3292
22296W        W38480   2.999   9.600   4.968 -0.3190 -0.2022 -0.1725
22297W        W38481   8.633   3.596  12.274 -0.1837  0.2663 -0.1642
22298W        W38482   7.971   4.640   3.663  0.1363 -0.1000 -0.3132
22299W        W38483   6.184   0.635  11.913 -0.0065  0.1859 -0.2826
22300W        W38484   7.131   9.779   1.297  0.1079 -0.1406  0.0647
22301W        W38485   1.970   8.875   3.108  0.2023 -0.1204 -0.2418
22302W        W38486   9.607   8.206   1.729 -0.3265  0.0100 -0.2393
22303W        W38487   2.856   1.716   3.948 -0.0269 -0.1736  0.2097
22304W        W38488  12.689  18.094   0.621  0.1802  0.0130 -0.1577
22305W        W38489  12.331   2.561   2.111  0.0830  0.0384  0.3256
22306W        W38490   9.201   1.897   4.264  0.0062 -0.0921 -0.0672
22307W        W38491  10.403   4.574   3.324  0.2643  0.1464 -0.1808
22308W        W38492   9.957  16.977  12.889  0.1172  0.0237  0.1283
22309W        W38493   5.302   8.700   3.579  0.4826 -0.0086  0.0858
22310W        W38494   6.518   1.678  15.256 -0.1796  0.1529  0.1816
22311W        W38495   8.365   6.939   0.350  0.0610  0.1462 -0.1056
22312W        W38496  16.347   9.578   4.421 -0.0346 -0.1271 -0.2466
22313W        W38497   9.414   4.509   4.670 -0.1272  0.0913  0.0780
22314W        W38498  14.130  10.547  13.067 -0.2494 -0.1390 -0.0352
22315W        W38499  16.984  11.905  12.171  0.0889 -0.3009 -0.0475
22316W        W38500  11.176   5.843   5.281 -0.3113 -0.0335  0.0975
22317W        W38501   2.701  16.908   4.467  0.0624  0.0876 -0.0114
22318W        W38502   0.706   7.006   0.525  0.3106 -0.1716  0.1044
22319W        W38503  16.435   7.041   4.391  0.1172  0.3837  0.1822
22320W        W38504   1.417  12.353  12.807 -0.1522  0.1743 -0.0511
22321W        W38505  10.692   9.507   3.304  0.0924 -0.3758 -0.0980
22322W        W38506   5.362   7.298  14.333 -0.0840  0.3133 -0.2210
22323W        W38507   2.043  17.917  14.615  0.0880  0.3426 -0.1136
22324W        W38508   1.839   4.802   3.726  0.0116  0.0770  0.1871
22325W        W38509  14.274  11.746   5.559 -0.0527 -0.0107 -0.1605
22326W        W38510  16.666  12.794  11.179 -0.2296  0.2936 -0.0748
22327W        W38511   5.892   4.332  13.038  0.0270  0.0575  0.1576
22328W        W38512  14.574  10.470   4.890 -0.0030  0.3133 -0.1506
22329W        W38513  15.757   9.519  15.017 -0.0704 -0.1320  0.0270
22330W        W38514  11.830   5.094   3.545  0.1051 -0.0501  0.2788
22331W        W38515   3.133   2.649  10.299  0.1054 -0.0857  0.1360
22332W        W38516   9.299   5.114  15.387 -0.3169 -0.1082  0.0699
22333W        W38517  11.002   6.918   1.185  0.5655 -0.4270 -0.2980
22334W        W38518  15.893  16.394  12.885 -0.1448  0.0512 -0.2156
22335W        W38519  13.901   9.347   1.438 -0.3057 -0.3653  0.2891
22336W        W38520   8.339   9.173   3.742  0.0045 -0.0750  0.1617
22337W        W38521   1.388   5.454   2.640  0.0280 -0.1667  0.0518
22338W        W38522  12.467  18.704  13.934  0.1587 -0.2515 -0.0700
22339W        W38523   9.437   7.441   3.111 -0.4240 -0.0773 -0.2235
22340W        W38524   6.984   9.898   0.534  0.1840  0.2343 -0.0029
22341W        W38525  14.401   0.230  12.728 -0.2092 -0.0612  0.0958
22342W        W38526   1.148  16.726   2.743  0.0094 -0.0662  0.0943
22343W        W38527   2.982   3.866   3.614 -0.0906  0.4042 -0.1791
22344W        W38528   1.966  14.317  12.215 -0.0088 -0.0579  0.3799
22345W        W38529  18.162   9.231   1.558 -0.0715  0.0145  0.0292
22346W        W38530  18.437  15.083   1.982  0.0587 -0.0481 -0.1068
22347W        W38531  15.723   3.884  13.843 -0.0986  0.1579 -0.0239
22348W        W38532   6.894   7.411  10.287  0.2337 -0.1043 -0.1030
22349W        W38533   3.511   9.134  11.334  0.2752 -0.1719  0.0479
22350W        W38534   5.156  12.884  14.417  0.1773 -0.2557  0.0682
22351W        W38535   3.158   8.666   5.254 -0.1395  0.0085  0.2623
22352W        W38536  15.941   7.257   2.091  0.2504 -0.0362 -0.4038
22353W        W38537  15.372   4.175  14.090  0.4146 -0.0701 -0.3229
22354W        W38538   1.032  14.696   2.139 -0.0313 -0.4019  0.1640
22355W        W38539  16.844  17.437   3.473 -0.0407 -0.1626  0.3316
22356W        W38540   0.892  16.872   1.665  0.1332 -0.2521 -0.2010
22357W        W38541   7.946  18.695  11.368 -0.1155 -0.0850 -0.1659
22358W        W38542  15.193   7.637  14.291  0.2635 -0.0382 -0.2402
22359W        W38543   1.510  10.660  13.760 -0.1429  0.0257  0.0796
22360W        W38544  17.550   9.753   2.620 -0.1859 -0.1857 -0.0447
22361W        W38545   4.336  10.962   3.658  0.1616  0.4380 -0.3019
22362W        W38546  11.499  11.013  12.555  0.0089 -0.0401  0.0813
22363W        W38547  17.281   3.357   3.359  0.0616  0.0383 -0.0112
22364W        W38548   3.233   1.826  13.886  0.1995  0.0550  0.3259
22365W        W38549   0.023  17.990  12.872  0.0230  0.0386  0.0219
22366W        W38550  13.510  11.940   0.565 -0.1628  0.3626 -0.0532
22367W        W38551  11.623  10.749   4.174 -0.1584 -0.1311  0.3095
22368W        W38552   8.675  10.728   0.849  0.3397 -0.3074  0.4231
22369W        W38553  14.307   8.573  11.039  0.1008  0.1744  0.0111
22370W        W38554   2.448  10.603  13.547 -0.1794  0.1063  0.1728
22371W        W38555   2.200  18.262   2.749 -0.1064 -0.2171  0.0713
22372W        W38556   7.106  10.375  12.310  0.0190  0.0157  0.0888
22373W        W38557  14.458   4.223   4.145 -0.1430  0.1343 -0.2327
22374W        W38558  10.148  10.664   3.775 -0.0727 -0.1092 -0.0904
22375W        W38559   6.040  17.291   1.505 -0.3623 -0.2064 -0.2356
22376W        W38560  10.685  14.060  11.627  0.0509  0.1206 -0.0463
22377W        W38561  14.723   7.730   2.737 -0.2188  0.1285  0.2265
22378W        W38562  10.981   8.853   1.943  0.0105  0.1362 -0.0408
22379W        W38563  12.636  11.857  12.905  0.2669  0.2512  0.4016
22380W        W38564  16.584  16.448   3.328  0.0394 -0.1837  0.0194
22381W        W38565   0.253   9.813  14.636 -0.1927 -0.0670 -0.0226
22382W        W38566  17.088  16.718  15.285  0.2134  0.2087 -0.3114
22383W        W38567   2.289  10.813  10.644  0.0410  0.3609 -0.1397
22384W        W38568   7.469   5.378   0.274 -0.1643 -0.0832 -0.2027
22385W        W38569  17.282   1.397   1.444 -0.0914  0.0380 -0.4023
22386W        W38570  10.753   6.979  11.525  0.1380 -0.2610  0.2203
22387W        W38571   6.815   3.984  14.753 -0.0571  0.2060 -0.1061
22388W        W38572  10.911  14.527   0.225  0.1546  0.0499  0.1146
22389W        W38573  17.365  15.831   4.922  0.2688  0.0561 -0.1114
22390W        W38574  11.882   5.996   4.124  0.2445  0.0874  0.3772
22391W        W38575   6.700   6.487  10.271 -0.0074 -0.0115 -0.0081
22392W        W38576  12.014  17.040  11.829  0.1678 -0.1985  0.4142
22393W        W38577  13.751   1.142  14.134  0.0828 -0.3587  0.2622
22394W        W38578   1.643   4.236   2.212 -0.0553 -0.0874  0.0465
22395W        W38579   4.073  13.306   0.673 -0.1928 -0.0542  0.1110
22396W        W38580  12.633  18.289  15.127  0.2943  0.2360 -0.2510
22397W        W38581   6.315  15.644  14.628 -0.0085  0.0825  0.2067
22398W        W38582  13.258  13.251  10.869 -0.3166 -0.0694  0.0659
22399W        W38583   1.470   3.633  13.425  0.0350 -0.0936  0.1955
22400W        W38584   0.349   0.077   4.148  0.0241  0.1215  0.0161
22401W        W38585   3.860  15.328   4.340  0.0988 -0.3256 -0.2472
22402W        W38586   7.843  14.274   3.788 -0.0993 -0.0685 -0.0284
22403W        W38587   2.229  16.347   0.693 -0.1518  0.0830  0.2094
22404W        W38588  10.505   3.153  14.272  0.2535 -0.1744  0.1871
22405W        W38589  13.412  18.711   4.668 -0.0594  0.0668 -0.2839
22406W        W38590  12.065   7.987  11.341  0.0156  0.0571  0.3635
22407W        W38591  15.357  13.394  13.019  0.1321  0.0447  0.1936
22408W        W38592   9.265  12.060   1.842  0.0419  0.1969  0.0779
22409W        W38593  13.627   1.847  11.294  0.2241 -0.2910 -0.0691
22410W        W38594   6.990   3.926  13.267 -0.2022  0.0150 -0.3349
22411W        W38595  18.760   1.228   0.124  0.0534 -0.1226  0.0494
22412W        W38596  10.907  15.925   2.593  0.1424  0.1625  0.2535
22413W        W38597  15.551   1.334   5.495  0.3842  0.0908 -0.2260
22414W        W38598  17.336   9.079   4.316  0.1397 -0.0932  0.1972
22415W        W38599  11.165  12.466   0.549 -0.1989 -0.0610  0.0830
22416W        W38600  16.690   7.193   1.922  0.0505  0.0321 -0.0391
22417W        W38601   1.303   4.530   0.592  0.0192 -0.0659  0.2037
22418W        W38602  12.088   5.202   2.240 -0.1849  0.1067 -0.0135
22419W        W38603   8.671   3.265  11.336  0.3226 -0.0692 -0.0375
22420W        W38604  16.372   3.196   3.275 -0.2429  0.4430  0.2243
22421W        W38605   6.786   1.291   0.476  0.0962  0.3942  0.0495
22422W        W38606   3.804   7.600   2.638  0.0382 -0.1064 -0.0900
22423W        W38607   5.465   3.715   2.052 -0.2856 -0.0110  0.1541
22424W        W38608   4.578   9.952   4.772  0.0403  0.0110  0.1705
22425W        W38609   8.697  10.297   9.593 -0.1090 -0.0942  0.1610
22426W        W38610  16.778  17.384   0.249  0.0835 -0.2000 -0.0450
22427W        W38611   0.066   9.357  13.931  0.0049  0.2377 -0.1553
22428W        W38612   5.769   4.332   5.131  0.0062 -0.0221 -0.1556
22429W        W38613   1.165  15.387  10.810 -0.0225 -0.0716  0.1051
22430W        W38614   7.282  13.953   5.323  0.1047  0.0598  0.0597
22431W        W38615  10.118   3.302  14.554  0.0665  0.3634 -0.0406
22432W        W38616  13.831  17.836   4.518 -0.0099  0.0908  0.1422
22433W        W38617   1.951   1.119  11.016 -0.0214 -0.4834 -0.1817
22434W        W38618   8.894  12.258   2.728 -0.1568 -0.0856  0.5233
22435W        W38619   2.721  13.675  10.707  0.3400  0.0715 -0.2103
22436W        W38620  15.769   3.776   4.737 -0.1886 -0.0215 -0.0545
22437W        W38621   8.594   3.229   2.846 -0.0607 -0.0331  0.1110
22438W        W38622  13.257  12.984  13.129 -0.0067 -0.0954  0.1836
22439W        W38623   6.058  11.024   3.749 -0.0424  0.2646 -0.1835
22440W        W38624  10.404  10.922   2.371  0.0410 -0.0018 -0.0548
22441W        W38625   0.439  13.174  12.654  0.4293 -0.0414 -0.0461
22442W        W38626  13.980  18.586   4.604  0.2515  0.0386  0.4100
22443W        W38627   7.643   6.691   4.802 -0.1117 -0.1503  0.1187
22444W        W38628  16.254   6.021  11.514  0.0913  0.2746 -0.4697
22445W        W38629   4.012   8.564   4.300 -0.0564  0.0675  0.4621
22446W        W38630  15.901   3.961   5.636 -0.1261  0.0567  0.2103
22447W        W38631  17.717  10.231   0.665  0.3218  0.0893  0.0408
22448W        W38632  15.310   1.297  11.245  0.0155 -0.1121  0.1388
22449W        W38633  10.263  11.808  14.485 -0.0439  0.2992 -0.1438
22450W        W38634  11.451  13.644  11.823 -0.0876 -0.0080  0.3495
22451W        W38635   3.097   8.733  14.340 -0.0547 -0.2002 -0.4054
22452W        W38636  13.966   7.747  13.743 -0.0588  0.0057 -0.0609
22453W        W38637   6.051  10.357  11.403 -0.1032 -0.0350 -0.1540
22454W        W38638  14.247  17.410   3.268  0.1163  0.2815 -0.1845
22455W        W38639   2.792  17.349   0.752 -0.0211  0.3990  0.1448
22456W        W38640   3.172  16.030   3.219  0.3756  0.3471  0.0146
22457W        W38641   9.745   0.494   0.484 -0.0752  0.0225 -0.2803
22458W        W38642   8.053   6.673  13.510 -0.2007 -0.0425  0.2422
22459W        W38643   6.655  15.054  13.829  0.2285  0.2287  0.2344
22460W        W38644   5.340  14.432  14.323 -0.0423 -0.0087  0.1792
22461W        W38645  15.860   6.708  12.055  0.0843 -0.2341  0.0369
22462W        W38646   4.500  14.794  15.247 -0.2436  0.1941 -0.4144
22463W        W38647   6.582   8.839  13.791 -0.0424  0.0783  0.1048
22464W        W38648   4.020  14.018   3.739 -0.0475 -0.2186  0.1752
22465W        W38649  16.362   2.787  12.458  0.1204  0.0267  0.2251
22466W        W38650   6.693   1.111  11.200  0.0079 -0.0214  0.1109
22467W        W38651   9.020  17.994   3.568  0.1396  0.0439 -0.2349
22468W        W38652   2.036   4.423  15.347  0.1739 -0.3729  0.0137
22469W        W38653  18.733  15.724   4.227  0.3061  0.0670 -0.0671
22470W        W38654  11.833  13.998   0.964 -0.0178  0.0894  0.0954
22471W        W38655  11.448   6.981   3.341 -0.4728 -0.1529  0.0305
22472W        W38656   0.376   3.025   5.206  0.0845  0.0924 -0.3010
22473W        W38657  16.570   5.611   1.686 -0.2951 -0.2020 -0.0264
22474W        W38658  12.115   0.734  13.034  0.1850  0.0815  0.2054
22475W        W38659  13.262  11.706  13.978  0.0951  0.3682  0.2279
22476W        W38660   5.308  17.527  15.112 -0.1894  0.0433  0.1011
22477W        W38661  13.622   7.856  11.119  0.2647  0.1094 -0.2763
22478W        W38662   6.730   7.127   1.257  0.1665  0.1416 -0.2978
22479W        W38663  13.017   1.488  13.916  0.3137 -0.0300 -0.0509
22480W        W38664  15.042   7.655   4.124 -0.1164 -0.1804  0.3680
22481W        W38665   6.056  18.813  14.719 -0.1995 -0.1723  0.1564
22482W        W38666  10.961  17.043   2.039  0.0717  0.0076  0.1945
22483W        W38667   1.969   6.606   1.887  0.1636  0.0747  0.3207
22484W        W38668   1.166  12.265   2.995 -0.3074  0.0887  0.0166
22485W        W38669   4.280  10.157   1.863 -0.1039 -0.1361  0.0013
22486W        W38670   5.500  12.444   1.946  0.3332 -0.0982  0.1401
22487W        W38671   6.385   5.098   3.023 -0.3061  0.1698  0.0980
22488W        W38672  10.434  15.243   5.330  0.0068  0.0892 -0.0298
22489W        W38673  14.418   3.305   0.044  0.0619  0.1015  0.0632
22490W        W38674   1.096   4.834   4.358  0.3072 -0.0510  0.3095
22491W        W38675   2.602  14.297   2.138  0.2672  0.1356 -0.5024
22492W        W38676   7.462   7.694  14.376 -0.0119  0.1470 -0.1242
22493W        W38677   7.167  14.176   3.280 -0.1822 -0.1006 -0.2852
22494W        W38678  17.259   1.541   5.017  0.2085  0.0451  0.1120
22495W        W38679   7.487   1.107   4.985 -0.3428 -0.0098 -0.0832
22496W        W38680   9.514   7.953   2.325  0.0688 -0.1423 -0.2618
22497W        W38681  14.824   6.781   0.233  0.0959  0.0535  0.1391
22498W        W38682   3.329  12.153   3.479 -0.2619 -0.2372  0.2306
22499W        W38683   5.715   1.435   2.301  0.0545 -0.0304  0.0627
22500W        W38684  11.355   7.146  13.489 -0.1073 -0.2821  0.0735
22501W        W38685   0.213  13.868  13.859 -0.2594 -0.3423  0.2331
22502W        W38686   7.870   7.048   3.939 -0.2145 -0.0696  0.0489
22503W        W38687  10.938  14.288  15.326 -0.3358  0.1867 -0.0086
22504W        W38688  12.824   7.903  15.400  0.0858 -0.1515 -0.3006
22505W        W38689  17.914   7.190   5.746  0.2116  0.0354 -0.0902
22506W        W38690  18.023  13.127   0.259  0.1594  0.1509 -0.3068
22507W        W38691  13.423   5.071  14.793 -0.1094 -0.2100 -0.0213
22508W        W38692  10.050   9.520   4.969 -0.0224 -0.1004  0.0921
22509W        W38693   5.125   5.682   5.204 -0.0715 -0.0630 -0.1228
22510W        W38694   1.732   4.897   3.165  0.0474  0.0044  0.0797
22511W        W38695   6.384   6.280  13.923 -0.2647 -0.0856  0.1700
22512W        W38696  11.142  16.551   3.939  0.0104 -0.1841  0.0732
22513W        W38697   2.445  13.911   0.424  0.0181  0.1591 -0.1676
22514W        W38698   2.377   2.310   2.969  0.0762 -0.1940 -0.0918
22515W        W38699  15.321  17.083   4.620 -0.1102 -0.1414  0.0864
22516W        W38700   7.701   6.091  11.242 -0.1194 -0.3169 -0.3058
22517W        W38701   8.870   0.131   2.036  0.2230  0.2041  0.1521
22518W        W38702   5.152  11.266  14.863  0.0876 -0.0972 -0.0848
22519W        W38703   0.364   4.241  15.335 -0.0947 -0.4454 -0.1779
22520W        W38704  18.686  13.861  14.672  0.0083 -0.1968 -0.1455
22521W        W38705   2.179  11.388   5.286  0.0153 -0.3455  0.0127
22522W        W38706  17.802   7.449  10.688 -0.0226 -0.0910 -0.1629
22523W        W38707  13.448   7.078   0.453  0.2243 -0.6945  0.0091
22524W        W38708  16.500  13.116   1.417 -0.1800  0.0217  0.2004
22525W        W38709  13.618  14.128   3.742  0.0983 -0.1925  0.1597
22526W        W38710  10.986  14.935  11.411 -0.0745  0.2033  0.0534
22527W        W38711   5.087   1.113  11.780  0.0010 -0.0352 -0.0501
22528W        W38712   9.747  16.083   4.642  0.0460  0.3942 -0.3331
22529W        W38713  14.190   7.791   4.402  0.2139 -0.0230  0.0292
22530W        W38714  15.325  14.324   4.645 -0.2205 -0.1146  0.2472
22531W        W38715  14.310  18.699   4.154 -0.0486 -0.2315 -0.0574
22532W        W38716  13.672  12.269  15.247 -0.0601  0.1692  0.2693
22533W        W38717  11.960  11.988  11.703  0.0824  0.0487  0.0066
22534W        W38718   6.911   5.677  11.400 -0.0780 -0.3143 -0.0700
22535W        W38719   0.959   4.268   1.178 -0.2107 -0.3848  0.0880
22536W        W38720   9.728   1.842   2.353 -0.3427 -0.1360  0.1653
22537W        W38721  14.412   6.789   0.533  0.1086 -0.0758 -0.2312
22538W        W38722   7.547   8.140   3.321  0.0274 -0.4526  0.0740
22539W        W38723  13.549   5.380  13.891 -0.0890  0.1682 -0.2474
22540W        W38724   5.903  18.177  10.997  0.0967 -0.1082 -0.0520
22541W        W38725   3.794  16.695  13.517  0.4138  0.2315  0.1963
22542W        W38726  14.589   5.529  10.654  0.2728  0.0514 -0.0057
22543W        W38727  16.532  13.874  14.438  0.0386  0.2207  0.1042
22544W        W38728   8.022  11.862  13.743  0.1031 -0.0653 -0.2367
22545W        W38729  16.466  13.725   3.582  0.0298 -0.0972 -0.2328
22546W        W38730  17.659   3.957   2.147 -0.0005 -0.0923 -0.2377
22547W        W38731   1.294  11.729  14.936 -0.1748 -0.0911 -0.0369
22548W        W38732   9.593  10.083  13.653  0.1624 -0.1979 -0.0015
22549W        W38733   4.983   2.298  13.294 -0.2864 -0.3818  0.0705
22550W        W38734  17.615  15.578  11.234  0.0036 -0.0731 -0.0737
22551W        W38735  17.405  10.358  11.061 -0.0702  0.1075  0.3004
22552W        W38736   6.648  14.618   3.753 -0.2520  0.1949 -0.0361
22553W        W38737   8.543   2.481  14.197 -0.0608  0.1516  0.0972
22554W        W38738   1.690   9.528   0.195  0.3033  0.1300  0.0676
22555W        W38739  16.601  11.966  11.771  0.1779  0.2562 -0.3196
22556W        W38740   6.056   7.008  11.934 -0.0523 -0.2553 -0.0080
22557W        W38741  14.429  11.911   3.013  0.0225  0.2752 -0.3808
22558W        W38742   3.444   7.130   5.165  0.0499 -0.2128  0.1916
22559W        W38743   1.946  11.045   3.836 -0.3795  0.3207  0.0724
22560W        W38744   4.051  17.679   1.873 -0.1158 -0.0694  0.2572
22561W        W38745   1.379  13.157  12.770 -0.0715 -0.0539 -0.0986
22562W        W38746  17.269  13.449  14.003  0.0391  0.0960  0.0621
22563W        W38747  18.728  12.273  15.038 -0.1294  0.1724 -0.0839
22564W        W38748   7.466  12.080   0.913  0.2551 -0.2077 -0.1414
22565W        W38749  17.282   8.959  11.480  0.1283  0.1116  0.1675
22566W        W38750   5.877   2.023  14.920 -0.1416  0.0176 -0.0350
22567W        W38751   6.174  15.410   1.555  0.2375 -0.0228  0.0751
22568W        W38752   8.935  16.687  14.775  0.1697 -0.0415  0.3227
22569W        W38753   9.387  12.705   4.436  0.1640  0.4058  0.3353
22570W        W38754   1.622   4.498   0.085  0.0860  0.2399 -0.0026
22571W        W38755   8.033   7.927   4.609  0.1943  0.1625 -0.0175
22572W        W38756  13.359  13.949   5.369  0.0234  0.3551 -0.0651
22573W        W38757  17.977  15.567  12.939  0.0379  0.1194 -0.2903
22574W        W38758   7.061   7.946   0.322  0.4430  0.0346  0.1974
22575W        W38759   3.845  17.254   4.017  0.2857 -0.3838 -0.2913
22576W        W38760  18.292   3.989  10.748  0.1545  0.1199  0.2025
22577W        W38761   4.043   5.880   4.290  0.1475  0.2557 -0.0495
22578W        W38762   6.550   2.604   1.468 -0.2837 -0.0335 -0.0219
22579W        W38763   8.012  12.521   3.012 -0.0917  0.0372 -0.2920
22580W        W38764   5.218  12.603  12.051 -0.2477 -0.1455 -0.0356
22581W        W38765   6.922  16.510   1.900  0.0142  0.0255 -0.1333
22582W        W38766  18.306  16.109  12.076 -0.0078  0.0512 -0.1407
22583W        W38767  17.855  15.905   1.299 -0.0036  0.3249 -0.0313
22584W        W38768   1.674   7.446   1.072 -0.0725  0.2315  0.2931
22585W        W38769   4.628  10.618   3.490  0.2264 -0.0445 -0.1167
22586W        W38770  15.777   4.802   2.164  0.0195  0.0001 -0.2531
22587W        W38771   1.901   9.038   2.654  0.0787  0.1608 -0.0350
22588W        W38772  15.696   5.038  15.000 -0.0473  0.3015 -0.2815
22589W        W38773  17.216  10.751   3.923  0.2997  0.1560 -0.0889
22590W        W38774   0.660   9.633  13.235  0.1746 -0.0780 -0.0220
22591W        W38775   6.423   3.589   5.167  0.0471  0.3720  0.0690
22592W        W38776  15.859   7.064  14.416  0.0418  0.0181 -0.0736
22593W        W38777   1.872  17.095  13.046 -0.0362  0.4655  0.0898
22594W        W38778  12.786   2.092   3.533 -0.1900 -0.2660  0.1686
22595W        W38779  11.594   8.626   1.476 -0.1515  0.2394  0.1351
22596W        W38780  18.013  16.739   4.730  0.2604  0.2378 -0.1919
22597W        W38781  16.733   4.809  14.368 -0.1479 -0.0759 -0.1151
22598W        W38782   2.173   6.898  10.781 -0.0708 -0.0781  0.2683
22599W        W38783  12.240   4.440   2.090  0.2615  0.3672 -0.0435
22600W        W38784  16.334  14.882   4.684  0.0500 -0.1078  0.1134
22601W        W38785   7.793   4.482   2.133  0.2244 -0.0409 -0.2791
22602W        W38786   4.876   7.446  12.938 -0.1329  0.1911  0.1251
22603W        W38787  16.236   5.059   0.056  0.0328  0.2669 -0.1323
22604W        W38788  10.561  14.700   5.143  0.0819  0.1284 -0.4238
22605W        W38789   4.293   8.921   3.520  0.1064  0.0721 -0.0661
22606W        W38790   4.926  12.098   2.689 -0.2155  0.2523  0.1759
22607W        W38791   1.882   3.922  12.990  0.3076 -0.0451  0.0275
22608W        W38792   6.682   4.429  14.100  0.3463 -0.1003  0.3629
22609W        W38793   6.618   1.949   2.310 -0.0486  0.0444 -0.0151
22610W        W38794   3.857   7.806  15.440  0.0701 -0.0946  0.1196
22611W        W38795   4.049  10.611   2.155  0.1324  0.3696  0.0605
22612W        W38796  14.692  13.491  13.396  0.0160  0.1239  0.0488
22613W        W38797   8.426   8.609  15.364 -0.2113  0.2574 -0.0323
22614W        W38798  12.865  17.225   9.806  0.4559  0.0944  0.2011
22615W        W38799   2.705   1.242   9.728  0.1942 -0.1741 -0.2534
22616W        W38800   6.911  11.528   1.170 -0.1622 -0.0630 -0.2868
22617W        W38801   9.646   3.948  11.238 -0.2576 -0.1253  0.0212
22618W        W38802   2.046   9.265   4.367 -0.1006 -0.1413  0.0100
22619W        W38803   3.366  11.908  13.791 -0.1514 -0.0758  0.1297
22620W        W38804   9.588   6.976   1.245 -0.0345  0.2163 -0.1361
22621W        W38805  11.854   6.290  11.358 -0.2738 -0.2631  0.1212
22622W        W38806  12.284  12.141  12.633  0.0480 -0.0110  0.2079
22623W        W38807  14.731  14.445   0.654  0.0773 -0.1188 -0.0045
22624W        W38808  12.762  16.544  11.062  0.1558 -0.1797 -0.0885
22625W        W38809   5.213   2.728   3.652 -0.0195 -0.0118  0.3467
22626W        W38810   4.022  15.487   3.823 -0.2265 -0.3413  0.2467
22627W        W38811   6.887  10.751  10.860 -0.1869  0.0579 -0.0989
22628W        W38812   4.240   3.963  14.063  0.2403  0.1476 -0.2558
22629W        W38813  15.308   5.412   3.023  0.2749  0.0717  0.1055
22630W        W38814   5.565   1.927  12.539 -0.1058 -0.4748  0.1366
22631W        W38815  12.084  14.432   0.799  0.1370 -0.2580 -0.0701
22632W        W38816   5.235  15.453   4.424  0.1365  0.2858 -0.0585
22633W        W38817  18.077   4.159  13.679  0.1383  0.0649  0.0799
22634W        W38818   7.272   9.148   1.662  0.1322  0.0622  0.2059
22635W        W38819   0.020   0.282   0.922 -0.0709 -0.2538  0.3227
22636W        W38820  17.572  14.486   3.355  0.1127  0.1329 -0.1076
22637W        W38821   2.807   6.830  11.934  0.1553 -0.3036  0.0652
22638W        W38822   4.794   0.037  12.670 -0.0910 -0.4966 -0.0060
22639W        W38823   5.638  10.844  11.736 -0.0126  0.0311  0.0555
22640W        W38824  13.176   3.716   0.630 -0.3010  0.1094 -0.0083
22641W        W38825   8.101   4.396  14.175  0.3063  0.0173  0.2038
22642W        W38826   6.181   2.812   3.419 -0.0218 -0.3028  0.6462
22643W        W38827  10.442  15.504   1.262  0.0590 -0.2468 -0.0260
22644W        W38828   0.247  15.987   0.557 -0.1521  0.2656 -0.0463
22645W        W38829  18.194  17.067   4.199 -0.1829 -0.2032 -0.2361
22646W        W38830   9.543   5.449   1.875  0.3003 -0.0243 -0.1244
22647W        W38831   1.420  18.438  14.407  0.0470  0.0588  0.2861
22648W        W38832  14.456   6.609   2.084  0.1741 -0.0291 -0.0520
22649W        W38833   5.764   6.765  13.228  0.0421  0.2467 -0.2605
22650W        W38834   1.346  12.114  15.259 -0.0277  0.4366  0.0445
22651W        W38835  10.308   7.527  10.441 -0.0124 -0.3480  0.2772
22652W        W38836   7.895   5.507   1.966 -0.0501  0.0666  0.0986
22653W        W38837   4.572  18.422  13.882 -0.2130  0.2654  0.3878
22654W        W38838  15.211  14.744   0.608 -0.2516 -0.0950 -0.0578
22655W        W38839   3.460   2.401   2.841  0.2333  0.2608 -0.3162
22656W        W38840   7.956  17.138  13.648 -0.1643 -0.0874 -0.0642
22657W        W38841   6.254  17.674  10.801 -0.5279  0.2338  0.3510
22658W        W38842  11.632  10.873   0.260  0.1709 -0.1474 -0.1387
22659W        W38843   3.893  13.472   1.813  0.2170 -0.0710  0.2631
22660W        W38844   8.860   1.901   5.709 -0.1480  0.0213 -0.2398
22661W        W38845   6.641   1.679   1.219  0.0044 -0.1123  0.2393
22662W        W38846   6.018   6.946  14.747 -0.1949 -0.2177 -0.2680
22663W        W38847  18.315   5.335   3.725 -0.5235  0.3264 -0.0541
22664W        W38848  15.434  12.646   5.062  0.1165 -0.0727 -0.0336
22665W        W38849  10.154   3.150  11.100  0.0212  0.2371  0.0369
22666W        W38850  12.907   7.963  13.922 -0.0721 -0.4685 -0.1737
22667W        W38851   5.043   3.925  12.100  0.1319 -0.0323  0.4234
22668W        W38852   4.203  14.131   0.854 -0.2591 -0.1430 -0.0236
22669W        W38853   1.395  18.765  10.866  0.1716 -0.2163  0.1112
22670W        W38854   3.595  14.715  15.536 -0.0020 -0.2681 -0.2308
22671W        W38855  16.246   8.694  15.119  0.0835  0.1160 -0.1191
22672W        W38856   6.732  10.769   4.663 -0.0612 -0.1244  0.0515
22673W        W38857   0.597   0.381  15.234 -0.2172 -0.0644  0.0883
22674W        W38858   5.384  13.711   1.436  0.3699 -0.0428  0.0823
22675W        W38859  13.379  17.284  13.053  0.3195  0.0625 -0.1095
22676W        W38860   4.596   3.316  12.706 -0.0483  0.1617  0.3175
22677W        W38861   6.387  14.513  14.767 -0.0886  0.3883  0.1234
22678W        W38862   0.047  17.001   0.803  0.3424 -0.3720  0.0780
22679W        W38863  11.345   3.266  13.268  0.1420  0.0782 -0.0552
22680W        W38864  14.052   8.534   2.160 -0.0939 -0.1605 -0.0134
22681W        W38865  12.903   8.330  11.669  0.0503 -0.4796  0.2585
22682W        W38866  16.275   2.709   0.629  0.1616  0.2758 -0.0700
22683W        W38867   7.273  11.762   4.336 -0.2380 -0.1864  0.1230
22684W        W38868  17.077  18.581  12.769 -0.1445  0.1089  0.3219
22685W        W38869  17.633  16.707  11.672  0.1653 -0.0143 -0.0569
22686W        W38870  16.185  15.387   4.590 -0.1513  0.1228 -0.1349
22687W        W38871   2.557  17.318   3.127 -0.1325 -0.1200 -0.2651
22688W        W38872  16.113   2.471   2.469 -0.1890  0.1490 -0.0133
22689W        W38873   2.501   0.149   3.191  0.0065 -0.0144  0.2261
22690W        W38874   8.731  14.939   2.912 -0.0516  0.0464 -0.4410
22691W        W38875  12.679  15.986   2.765 -0.0126 -0.0169 -0.3134
22692W        W38876  12.972   0.207   3.557 -0.2681 -0.2294 -0.0730
22693W        W38877   9.549  18.528   1.004  0.1510 -0.2306 -0.0330
22694W        W38878  16.645   0.937   4.166 -0.2403 -0.0798 -0.0290
22695W        W38879  16.923  14.289   2.468  0.0174  0.0680  0.0093
22696W        W38880  15.534   4.037   2.693  0.0654 -0.2224 -0.1132
22697W        W38881   9.404   9.277  13.012  0.2931  0.2456 -0.3188
22698W        W38882   5.305  11.756   2.510 -0.1149 -0.1743 -0.0519
22699W        W38883   0.466  17.126  14.321 -0.0702  0.2781 -0.3371
22700W        W38884  11.252   1.103   4.885  0.0881 -0.0955 -0.0321
22701W        W38885   4.428   7.615   3.659  0.1076  0.1128  0.1869
22702W        W38886  11.021   8.891  10.861  0.1394  0.0279  0.2154
22703W        W38887   3.072  14.354   2.422  0.0711 -0.0582 -0.3380
22704W        W38888  17.579   3.561   3.719 -0.2378 -0.3659  0.1248
22705W        W38889  16.636  10.085  11.669 -0.0089  0.0365  0.1364
22706W        W38890   4.402   1.450  14.084  0.3012 -0.1993 -0.0169
22707W        W38891   6.730   4.927   0.383 -0.2963  0.1005 -0.1493
22708W        W38892   9.930   5.833  11.383  0.0852 -0.0668 -0.2666
22709W        W38893   6.245   9.091  15.439 -0.1105  0.2325 -0.1247
22710W        W38894   5.988   5.679  11.555  0.3051 -0.0787  0.0888
22711W        W38895   9.255  18.562  13.169 -0.1355  0.4091  0.4125
22712W        W38896   8.673  12.519  14.801 -0.0093  0.1557 -0.1191
22713W        W38897  12.662  17.759   4.776  0.0577  0.0112  0.0490
22714W        W38898  15.941   7.602   3.091 -0.0451  0.1253  0.0849
22715W        W38899  12.105  12.282   0.385 -0.0099 -0.3426 -0.2011
22716W        W38900   1.242   2.475   0.273  0.0503 -0.1806 -0.0993
22717W        W38901  15.011  16.101  14.367  0.0865 -0.0798 -0.3235
22718W        W38902   0.116  13.119  14.584  0.1985 -0.0163  0.1559
22719W        W38903  12.329  15.697  11.735 -0.1883 -0.3071 -0.3122
22720W        W38904  16.631  18.537  12.445  0.2489  0.0067 -0.2132
22721W        W38905  16.461   7.016  10.937 -0.0065  0.0316  0.4854
22722W        W38906   0.406  14.681   3.156  0.0709  0.1551  0.0323
22723W        W38907  16.855   2.767   1.607 -0.0109 -0.1283  0.1273
22724W        W38908   1.492  11.406   1.961  0.0314  0.1839  0.2140
22725W        W38909  11.246   7.977   0.933 -0.2845  0.1666  0.3152
22726W        W38910   2.290  16.229   5.142 -0.0802 -0.2305  0.0875
22727W        W38911   6.479  17.879   2.922 -0.0897 -0.1144  0.1058
22728W        W38912   4.461  16.019   0.512 -0.2550  0.1327 -0.0012
22729W        W38913   7.912  16.864   2.715 -0.3437  0.0316  0.0374
22730W        W38914   1.102  16.391  13.008  0.2978 -0.0388 -0.0953
22731W        W38915   1.711  13.442   4.405  0.1498  0.0122  0.3095
22732W        W38916   7.893   5.860   1.405  0.2995 -0.0595 -0.3486
22733W        W38917  14.334   5.903  10.977  0.0530  0.2046  0.2683
22734W        W38918  17.329  10.892  11.013  0.0011  0.0858  0.1188
22735W        W38919   2.534  12.080   1.172  0.0767  0.1068 -0.1614
22736W        W38920   0.935  16.470  10.121  0.0408 -0.2717  0.1557
22737W        W38921   2.905  13.815   3.834  0.2982  0.1043 -0.0448
22738W        W38922  16.494   8.498   1.643  0.2092  0.0497 -0.2579
22739W        W38923   6.540   1.184  14.074 -0.0555 -0.3200 -0.3503
22740W        W38924  14.833  18.082  11.079  0.2592  0.0932 -0.2318
22741W        W38925  17.839   4.854  11.036 -0.1288 -0.0892 -0.0414
22742W        W38926  17.490   1.105   2.801  0.2551  0.0505  0.1381
22743W        W38927   3.392  18.840   5.309 -0.0767  0.0342  0.0530
22744W        W38928   5.566  10.323   5.692 -0.1499  0.0391 -0.3778
22745W        W38929   4.749   4.272   0.303  0.0622  0.0805 -0.1230
22746W        W38930   6.361   4.351   2.232  0.0543  0.1250 -0.2019
22747W        W38931  13.819   7.995   1.231 -0.2688  0.2731 -0.1175
22748W        W38932  15.833   6.174   5.212 -0.4128  0.1516 -0.0670
22749W        W38933   4.114   8.797   1.557  0.1295  0.3107 -0.2589
22750W        W38934  11.922   7.393   1.440  0.1886  0.2435 -0.0095
22751W        W38935   8.715   6.992  13.927 -0.1823  0.2386  0.1116
22752W        W38936   4.630   5.111  12.736 -0.0760  0.1774 -0.3531
22753W        W38937   9.231   2.335   3.448 -0.0642 -0.0638 -0.2032
22754W        W38938   3.434   5.076  11.311  0.6638 -0.3935  0.0933
22755W        W38939  12.191  17.752  10.664 -0.3786  0.2059  0.0039
22756W        W38940   3.043   5.004   0.926  0.0768  0.0294 -0.0563
22757W        W38941  10.841   0.289  13.112  0.1525 -0.1741 -0.2368
22758W        W38942   3.066   1.606   0.193 -0.2395 -0.5070  0.1305
22759W        W38943   8.070  17.604   5.931  0.1616 -0.0782  0.0631
22760W        W38944  17.478   7.196  13.549  0.2681  0.3519 -0.4396
22761W        W38945   5.704   3.852   5.475  0.0532 -0.0135  0.0434
22762W        W38946  17.641   1.065   0.478  0.2698 -0.3127 -0.1894
22763W        W38947  10.815  10.090  14.319  0.3040 -0.2164  0.2443
22764W        W38948  15.249  17.998  11.509  0.0385 -0.0450 -0.1648
22765W        W38949   3.576   3.806  15.394 -0.1231  0.0857 -0.3370
22766W        W38950  12.399  16.897   4.560 -0.3793 -0.0703  0.1143
22767W        W38951   6.729   8.266  10.869  0.1257  0.1861 -0.0741
22768W        W38952   1.042  18.392   5.094  0.0188 -0.2037 -0.0701
22769W        W38953   3.192   3.201   5.305  0.1677 -0.0775  0.0717
22770W        W38954   5.282  14.616   4.146 -0.0335  0.2103  0.0293
22771W        W38955   6.882   8.356  13.077  0.3049  0.2365  0.2565
22772W        W38956   4.217  17.336   5.331 -0.1213  0.0901  0.1043
22773W        W38957   6.112   0.644   5.123  0.3077  0.0294 -0.0823
22774W        W38958  10.647   7.310  10.757 -0.0527  0.1096  0.4238
22775W        W38959  11.488   4.541  14.232  0.0359 -0.0036  0.0573
22776W        W38960  18.593  11.771  12.939  0.0345  0.0466  0.3803
22777W        W38961   8.585  17.534  11.252 -0.0532 -0.2765  0.1697
22778W        W38962  15.172   7.977   3.294 -0.0883 -0.1745  0.0129
22779W        W38963  14.014   8.923   3.353  0.0238 -0.0064 -0.0034
22780W        W38964  10.067  17.013   0.157  0.1262 -0.1508 -0.0394
22781W        W38965  14.136   5.630   2.512  0.1921 -0.0829  0.4047
22782W        W38966   9.757  17.419   4.790  0.1908  0.0553  0.1660
22783W        W38967   8.683  15.277  11.310  0.0768  0.3292  0.1314
22784W        W38968   8.516   7.494  15.321 -0.2546 -0.3767 -0.0304
22785W        W38969  17.573   1.226  12.837  0.0672  0.0741  0.0305
22786W        W38970   4.651   7.880  14.506  0.1205  0.0427 -0.2180
22787W        W38971   5.479  18.627  12.737 -0.1732  0.0377 -0.0547
22788W        W38972   2.188   0.381   1.709  0.0250  0.2063  0.0863
22789W        W38973  18.525  12.311   3.567 -0.1754 -0.0395  0.4701
22790W        W38974   5.497  18.354   2.191  0.1424 -0.0294 -0.3005
22791W        W38975  11.418  16.350   1.399  0.0736  0.1082  0.1157
22792W        W38976  13.593   7.074  15.203 -0.4012  0.0343 -0.1752
22793W        W38977  18.572  17.830   3.753 -0.0357 -0.1071  0.0847
22794W        W38978  11.402   9.215   4.062 -0.2904  0.1031  0.1409
22795W        W38979  15.497  14.686  14.349  0.0528 -0.5002 -0.2616
22796W        W38980  15.291   4.867   4.594 -0.2178 -0.1066  0.3219
22797W        W38981  14.901   1.152   1.217 -0.0982  0.2977  0.2022
22798W        W38982  16.120  16.853  14.323  0.1706  0.2093  0.0153
22799W        W38983  13.711   2.402   4.813  0.3063 -0.2937 -0.0506
22800W        W38984   7.371  18.379   1.551 -0.1769  0.0878  0.2265
22801W        W38985   7.241   6.260  15.242  0.0591  0.0926 -0.0302
22802W        W38986   2.003   6.488  15.118  0.0044 -0.1336  0.0861
22803W        W38987   3.358  11.514   4.801  0.0123 -0.1082 -0.1814
22804W        W38988   6.206  13.255   5.062  0.0744  0.3834  0.1118
22805W        W38989   5.906   5.411  12.427 -0.0842 -0.0361 -0.0275
22806W        W38990  15.139   4.457  13.731 -0.0035  0.0058 -0.5874
22807W        W38991  15.876   9.595  12.969 -0.0555  0.0667  0.1825
22808W        W38992  14.969   9.477   1.351 -0.4398 -0.0720  0.0928
22809W        W38993  13.802   4.243   4.656  0.3691  0.2345 -0.1474
22810W        W38994  11.868  13.096  12.428 -0.0922  0.1881 -0.0444
22811W        W38995   2.413  15.575   0.584  0.0923  0.0473  0.2588
22812W        W38996   1.373  17.451   1.361 -0.1484 -0.1921  0.5454
22813W        W38997   6.422  10.110  13.894 -0.2275 -0.1115 -0.0776
22814W        W38998   2.091   5.370   1.815 -0.1988 -0.0158 -0.0642
22815W        W38999   6.047   2.707  13.844 -0.0950 -0.1641 -0.3663
22816W        W39000   3.904  17.845   0.526  0.0589  0.0728  0.1093
22817W        W39001  17.650   0.761   4.815 -0.1885 -0.4153  0.1783
22818W        W39002  16.140   6.737  13.660 -0.0874  0.2683 -0.2672
22819W        W39003  12.693  11.915   1.630  0.1591 -0.1628  0.5189
22820W        W39004   0.200   9.181   1.045 -0.2926 -0.0387  0.0277
22821W        W39005   0.497  10.070   2.782 -0.0736 -0.1752 -0.1692
22822W        W39006   5.784  16.277  15.079 -0.3366  0.1542 -0.1261
22823W        W39007  12.627   3.960   2.072  0.0519 -0.1234  0.2155
22824W        W39008  16.735   8.917  12.815 -0.1732  0.1044  0.1774
22825W        W39009   3.552  15.823   3.999  0.3349 -0.0707 -0.1447
22826W        W39010  10.390   5.168  11.511 -0.3054 -0.0816  0.0849
22827W        W39011   1.746  16.079   0.521  0.2384  0.0903 -0.2956
22828W        W39012   1.921  13.626   1.079  0.0898 -0.1100 -0.0268
22829W        W39013  16.528  15.847  11.336  0.3197 -0.1410 -0.0560
22830W        W39014   1.909  11.037  11.420 -0.1415 -0.2126  0.1737
22831W        W39015   0.262  16.170   2.700  0.1927 -0.1608  0.1333
22832W        W39016   7.629   0.593   4.173 -0.0425  0.0141  0.1187
22833W        W39017   5.750   4.703  14.717 -0.0819 -0.1010 -0.3787
22834W        W39018  16.164   3.643  14.123  0.0064 -0.0729  0.2869
22835W        W39019  16.998   8.516  15.277  0.0404 -0.2226 -0.2537
22836W        W39020   2.155   9.015   3.893  0.0967  0.1459 -0.0030
22837W        W39021  17.737  16.592   4.340  0.3769 -0.2173 -0.0161
22838W        W39022  13.614   1.372   4.453 -0.3783 -0.1662  0.3541
22839W        W39023  12.065  10.685   3.365  0.2926 -0.0265  0.1336
22840W        W39024   5.989   8.230   5.375  0.2627  0.1275 -0.0578
22841W        W39025   5.498  10.908  14.451 -0.2669  0.1646 -0.0067
22842W        W39026  12.121   9.019  13.995 -0.0829  0.2792  0.0682
22843W        W39027  15.686  17.387  14.777 -0.0810  0.0773  0.1483
22844W        W39028   2.499   1.788   3.616  0.0031  0.0169  0.2459
22845W        W39029   1.002   9.489  14.975  0.2891 -0.2301 -0.0783
22846W        W39030  10.707  13.089   4.386  0.1148 -0.1671 -0.1634
22847W        W39031   9.767  10.551  12.752 -0.0786  0.1451  0.3200
22848W        W39032   8.182  13.844   0.510  0.2482 -0.0298 -0.1301
22849W        W39033  17.955   9.718  10.749 -0.0268  0.2304  0.0953
22850W        W39034  17.548   8.238  14.459 -0.1211  0.1392 -0.1783
22851W        W39035  15.131  16.627   0.504  0.2002 -0.1034  0.4558
22852W        W39036  16.394   4.122   2.827  0.2978  0.1734  0.0101
22853W        W39037  13.542   5.623  11.902  0.3754  0.2610  0.0760
22854W        W39038  10.150   4.568  10.847  0.2542 -0.0824  0.0651
22855W        W39039   5.210   4.995  14.989  0.2870 -0.0189  0.2670
22856W        W39040   9.939   5.524  13.701 -0.1445  0.2697  0.0060
22857W        W39041   7.630   8.365  13.014  0.2489  0.1550  0.0418
22858W        W39042  11.794   6.653   3.412 -0.0108 -0.0613  0.2684
22859W        W39043   5.299   8.342   0.268 -0.2048 -0.0327 -0.4232
22860W        W39044   2.571  16.603  11.197  0.2318 -0.0082 -0.0277
22861W        W39045   5.735  14.437  15.393  0.1699 -0.0224 -0.2107
22862W        W39046   4.821   6.758  15.012  0.1591 -0.0832 -0.0654
22863W        W39047  14.721  17.256   0.688 -0.0988  0.3926 -0.0565
22864W        W39048   0.242  11.373   2.132  0.1906 -0.2221  0.1138
22865W        W39049   9.577   4.523  13.688 -0.2087 -0.2394  0.2702
22866W        W39050  14.856  18.314  15.285  0.3819 -0.2875  0.0683
22867W        W39051  12.368   6.100   3.904  0.0184  0.0507 -0.4701
22868W        W39052   0.131   7.953  14.623  0.0496 -0.3240 -0.0516
22869W        W39053  14.074  14.800  11.367  0.0141 -0.2518 -0.0828
22870W        W39054   1.950  15.488   5.456  0.0583 -0.0522  0.0805
22871W        W39055  10.089  17.427  13.778 -0.1608  0.0397  0.1480
22872W        W39056   7.052   8.899   1.204 -0.0633 -0.3547 -0.0540
22873W        W39057  18.044   7.161   2.225 -0.0428 -0.0220 -0.1353
22874W        W39058  11.729  17.879  13.312 -0.1387  0.0595  0.0460
22875W        W39059   8.512   8.889   1.956  0.0659 -0.0691  0.5429
22876W        W39060   9.760   3.653  13.561 -0.3362  0.3023  0.2306
22877W        W39061   3.245   6.615   1.449 -0.1802  0.0948 -0.0292
22878W        W39062  14.544   4.487  13.020  0.1030  0.2403 -0.1381
22879W        W39063   1.157  18.472  11.808  0.0598  0.4112 -0.0035
22880W        W39064   0.282  16.049   4.282 -0.1129 -0.0530 -0.2043
22881W        W39065   8.585  14.710   1.680  0.1361 -0.0510 -0.1302
22882W        W39066  11.839  12.364  11.370 -0.0399 -0.4845  0.2079
22883W        W39067  13.903  10.185  14.432  0.2188 -0.0622  0.0310
22884W        W39068   2.846   8.967   3.576 -0.0859  0.1550 -0.0433
22885W        W39069   1.954   7.944  13.761  0.0084  0.2675 -0.0622
22886W        W39070  12.986  16.757   1.604  0.1555 -0.0680  0.1091
22887W        W39071  16.263  18.616   2.230  0.0383  0.0316  0.0495
22888W        W39072   8.321  13.650   5.017 -0.0194 -0.1022  0.0025
22889W        W39073  11.980   2.775  11.362  0.2398  0.0387 -0.1437
22890W        W39074  18.575   2.387  13.816  0.1873  0.2526  0.1482
22891W        W39075  14.494   7.723   1.875  0.3014  0.4148 -0.0304
22892W        W39076   6.140   5.072  14.602  0.1379  0.0847  0.0142
22893W        W39077   8.605   0.467  14.250 -0.0812 -0.4614 -0.0109
22894W        W39078   8.899  17.517   3.185 -0.4044  0.0114  0.0028
22895W        W39079   2.930   1.075   1.953 -0.0159  0.0162 -0.0061
22896W        W39080  17.028  12.056  15.307 -0.0798  0.2345  0.0201
22897W        W39081   7.422  10.040   4.306  0.0399 -0.2025  0.0463
22898W        W39082  15.857   1.441  13.648 -0.2175  0.1682 -0.2952
22899W        W39083   9.076  16.013  12.248  0.0469  0.0636  0.1184
22900W        W39084   3.293   8.580   0.399 -0.0051  0.0568  0.0044
22901W        W39085   2.294   5.681  10.977  0.1545  0.0420  0.4629
22902W        W39086   4.387   3.458  11.725 -0.1674 -0.1582 -0.3065
22903W        W39087  15.442   1.408   3.484  0.0710  0.1083 -0.2045
22904W        W39088   4.862   6.283  12.032  0.1517 -0.1596  0.0121
22905W        W39089   1.134   1.490  11.994  0.1472 -0.1119 -0.0537
22906W        W39090  17.021  11.852  11.453 -0.0855  0.1601 -0.3537
22907W        W39091  10.778   0.699   2.373  0.0093 -0.0237  0.5347
22908W        W39092   2.184   0.559   4.827 -0.0628  0.1326  0.2800
22909W        W39093   0.501  18.851   2.908 -0.2096 -0.4421  0.2404
22910W        W39094   4.279   3.170   4.554 -0.3026 -0.3210 -0.1471
22911W        W39095  13.071   8.932   2.962  0.2099  0.2014 -0.1029
22912W        W39096  17.709   0.939  11.626 -0.1275 -0.0247  0.1317
22913W        W39097   3.893   6.228   4.712  0.1051  0.1523 -0.0510
22914W        W39098   3.232  15.238  14.408  0.0035  0.0352 -0.1149
22915W        W39099  10.492   4.710   4.109 -0.1016  0.0704  0.3356
22916W        W39100   2.185  14.709  15.352  0.1391 -0.0036 -0.1953
22917W        W39101  10.543  10.587  11.366  0.1079 -0.2383  0.2160
22918W        W39102   0.964   2.103  11.019 -0.0621  0.1488  0.0810
22919W        W39103  17.022   9.693   2.604 -0.3457  0.0984 -0.1372
22920W        W39104  10.491  18.177  13.265  0.0263  0.2382  0.2457
22921W        W39105   5.647  18.561  11.644 -0.0785 -0.1819  0.4002
22922W        W39106  15.593  14.688   4.910  0.1611 -0.2491 -0.0111
22923W        W39107   8.435  13.574  13.277 -0.1558  0.0072 -0.0219
22924W        W39108   0.919   6.417  11.728 -0.0042 -0.1977  0.2857
22925W        W39109   5.802  18.505   3.091 -0.1311  0.2767 -0.4284
22926W        W39110  17.597   2.921   2.754  0.0282  0.0926  0.0892
22927W        W39111   8.459  18.334  13.760  0.0282  0.4006 -0.1189
22928W        W39112   6.599   0.844   5.008 -0.3805 -0.1318  0.2397
22929W        W39113   6.138   7.956   0.169  0.3348  0.0891 -0.0503
22930W        W39114   1.424   7.279  11.177  0.3302 -0.2134  0.2045
22931W        W39115   9.859  12.966  15.254 -0.1447  0.1532 -0.1444
22932W        W39116  18.800  10.420  15.390 -0.0649 -0.1637  0.0123
22933W        W39117   1.785  10.300   2.367  0.3157  0.0149 -0.1115
22934W        W39118  18.431   8.212  14.422 -0.0960  0.0440  0.2045
22935W        W39119  13.450   2.409  14.482  0.0444 -0.0414  0.1401
22936W        W39120   8.125   9.551   2.731 -0.4098 -0.0553  0.0237
22937W        W39121  15.005  14.561   2.753  0.2719  0.1827 -0.1923
22938W        W39122  10.359   5.529  13.316  0.0248  0.0185  0.0989
22939W        W39123  14.545  14.022   1.845  0.0702  0.1862 -0.1595
22940W        W39124  13.209  11.117  11.535  0.4936  0.3700 -0.0781
22941W        W39125  18.440  16.747   1.152  0.0260 -0.2646  0.2699
22942W        W39126   9.648  11.476   1.376 -0.1173 -0.2539 -0.2304
22943W        W39127  18.826   9.108  14.429 -0.3880  0.0471  0.0884
22944W        W39128   2.593  10.859   4.830  0.0658  0.3153 -0.0639
22945W        W39129   2.610   3.754   9.683 -0.2928  0.3352  0.1122
22946W        W39130  16.895   3.107   3.502 -0.1531  0.5318  0.1925
22947W        W39131  11.810  16.243  11.004 -0.2570 -0.1225 -0.1427
22948W        W39132   1.094   2.441   1.109  0.4327  0.1097  0.0413
22949W        W39133   2.476  14.885   3.322 -0.2302  0.0766  0.1251
22950W        W39134  18.317   6.528   2.549 -0.1134 -0.2774  0.2368
22951W        W39135   6.833  11.539  12.272  0.3491 -0.0683  0.0320
22952W        W39136  18.601   7.763   2.585 -0.0578 -0.2143 -0.0517
22953W        W39137  16.436   5.352   2.655 -0.0748 -0.3628  0.2140
22954W        W39138   0.194  17.568   0.556  0.0839  0.0540 -0.1040
22955W        W39139  12.718   5.697   0.218 -0.3103  0.1202  0.0823
22956W        W39140  16.301  13.876   3.064 -0.1283 -0.0693  0.2441
22957W        W39141  12.662   5.587   1.717 -0.2450 -0.1570  0.1693
22958W        W39142  11.024  11.353  15.536  0.1993  0.2380  0.1935
22959W        W39143   4.524   6.452  12.508  0.0592 -0.2510 -0.1715
22960W        W39144  13.494  17.568  12.575  0.1737 -0.0145  0.2242
22961W        W39145   2.973  18.586  10.944  0.3146  0.2062 -0.1042
22962W        W39146  10.585   5.230   4.730  0.0464  0.0218 -0.0701
22963W        W39147   4.400   7.668  11.041 -0.0491 -0.2758 -0.0877
22964W        W39148   3.784   3.391  10.528 -0.0511  0.1454  0.0616
22965W        W39149  13.960   1.490  11.303 -0.0777 -0.0215 -0.1039
22966W        W39150   2.684  12.458  11.527  0.2475 -0.2053  0.0603
22967W        W39151  15.264   4.949   2.200 -0.4177  0.0427 -0.1814
22968W        W39152   9.918   3.196   2.474 -0.1339 -0.0066  0.3337
22969W        W39153   2.665   7.416   1.885 -0.2510 -0.0510 -0.0208
22970W        W39154   7.429  11.977  13.994 -0.0366  0.1671  0.2151
22971W        W39155  11.467   8.183   1.368 -0.0073 -0.0611  0.0235
22972W        W39156   1.063  11.499   4.076  0.0071  0.1907 -0.3390
22973W        W39157  16.329   1.514  13.928  0.3344 -0.0065 -0.1675
22974W        W39158   2.234   4.082  11.792  0.1318 -0.2267 -0.2360
22975W        W39159  12.986   5.155  14.476  0.2025  0.2557 -0.1940
22976W        W39160   4.194  13.285  11.642 -0.0564  0.3096  0.0269
22977W        W39161   2.207   2.216  12.568 -0.1789 -0.0013 -0.2143
22978W        W39162  12.589   7.797  12.714 -0.0863  0.2559  0.2575
22979W        W39163   9.959  18.633  11.720  0.1446 -0.1765 -0.0704
22980W        W39164   3.134  12.049  12.224  0.1574  0.1573  0.0234
22981W        W39165   3.417  18.461   3.837  0.2691 -0.0249  0.0695
22982W        W39166  16.204  13.779  13.544 -0.1132  0.0582  0.0548
22983W        W39167  16.273  17.884   0.570 -0.2346 -0.0377  0.4778
22984W        W39168   3.472  11.395   2.568  0.3664  0.0335 -0.0074
22985W        W39169  15.456   1.795   2.206  0.0169 -0.2577  0.0522
22986W        W39170   7.503  17.714   0.244 -0.1472 -0.2108 -0.0932
22987W        W39171  14.093  13.201   4.234  0.0505 -0.1812 -0.1412
22988W        W39172   0.206  10.766   2.420 -0.1109 -0.0242 -0.2927
22989W        W39173   7.944   8.722   0.799  0.3707 -0.0894 -0.4200
22990W        W39174   4.445   4.623   1.387 -0.0881  0.1438 -0.2804
22991W        W39175  12.785   4.724   0.283 -0.1804 -0.1298  0.1084
22992W        W39176   0.389   0.236   4.657  0.2621 -0.0650  0.2264
22993W        W39177   5.508   9.380   4.223  0.1137  0.1046  0.0340
22994W        W39178   0.958   4.932   3.187  0.0337  0.3244  0.1432
22995W        W39179   4.178   2.608   0.684 -0.2047 -0.4037  0.0984
22996W        W39180   6.106   5.057   1.531  0.1395 -0.1312 -0.0944
22997W        W39181   2.196  11.577   3.152 -0.0660  0.1019  0.0546
22998W        W39182   2.907   4.481  13.167  0.0813 -0.0411  0.1894
22999W        W39183   4.312  12.435  13.014  0.0985  0.0413  0.2159
23000W        W39184  17.073   0.323   5.306  0.2386 -0.2291  0.2618
23001W        W39185   7.631  17.978  15.382  0.0584 -0.1411 -0.0440
23002W        W39186  10.508  14.804   0.354  0.2131 -0.1015  0.0308
23003W        W39187   6.272  12.444   3.972  0.0014  0.0410 -0.0579
23004W        W39188  12.430  10.012   2.693  0.0508 -0.0119  0.1247
23005W        W39189   5.187   1.295  11.298  0.1073  0.0555 -0.2068
23006W        W39190   1.078   6.449   3.617 -0.2099  0.0030  0.3011
23007W        W39191   8.435  15.325   5.255 -0.0996 -0.0688 -0.3169
23008W        W39192   9.062   2.610  12.307 -0.0698 -0.0612 -0.1139
23009W        W39193  13.497   5.928  13.872  0.2503 -0.1252 -0.2766
23010W        W39194  10.230   1.387   0.224 -0.1142  0.0428  0.1925
23011W        W39195  12.746  14.125   4.703 -0.2914 -0.1591  0.0039
23012W        W39196   6.176   8.183   4.620  0.1180 -0.0512  0.1175
23013W        W39197   9.186   1.401  11.475 -0.0671  0.1594  0.3029
23014W        W39198  13.372   5.212   3.401  0.0809  0.4290 -0.0868
23015W        W39199  14.440  13.923   0.811 -0.1360  0.0788  0.0963
23016W        W39200  15.585  14.052   3.794 -0.2995  0.0108  0.4209
23017W        W39201   8.643   7.997   2.253 -0.0231 -0.1305 -0.2970
23018W        W39202  13.446  13.385  11.331  0.1386  0.1837  0.1238
23019W        W39203   7.324   2.557   1.497  0.2178  0.0936 -0.0705
23020W        W39204  17.202   3.948  14.186 -0.3840  0.1867  0.3220
23021W        W39205   0.311   8.153   4.555 -0.0230  0.0541  0.0546
23022W        W39206  16.087  12.034  12.939  0.1037  0.0162  0.1136
23023W        W39207   8.101  13.625  11.571  0.1936 -0.0793  0.0401
23024W        W39208   3.644  15.775   5.379 -0.1235  0.3059 -0.0682
23025W        W39209   8.989   6.413  15.495  0.2991 -0.1361 -0.0222
23026W        W39210   1.402   3.171  12.720 -0.0969 -0.0217 -0.2230
23027W        W39211   6.628   0.003  13.406  0.0881 -0.0295 -0.0873
23028W        W39212  17.531  13.207   3.877  0.2424 -0.2870 -0.0041
23029W        W39213  14.324  11.132  14.832  0.1066 -0.2735  0.1158
23030W        W39214   4.995   2.158  11.926  0.3300  0.0072  0.2103
23031W        W39215   9.930   6.231  14.325 -0.3918  0.0047 -0.1275
23032W        W39216   5.818  16.912  13.358 -0.3622  0.3455  0.1615
23033W        W39217   5.021  16.663   1.170 -0.3314  0.1072 -0.2499
23034W        W39218   8.237  17.957   2.661  0.0364  0.0906  0.2636
23035W        W39219  16.759   4.123   3.192 -0.2144 -0.0066 -0.1282
23036W        W39220   4.178  11.994   4.148  0.3578 -0.1036 -0.0282
23037W        W39221  11.348  16.509  12.171  0.0101  0.2996  0.1784
23038W        W39222   4.110  18.683  14.212 -0.2400 -0.0714 -0.0712
23039W        W39223   2.079   3.669   0.137 -0.0320 -0.1794 -0.1231
23040W        W39224   0.493  11.019   5.263  0.0018 -0.1354  0.0385
23041W        W39225   5.267  10.613  11.999  0.1041 -0.0383  0.0191
23042W        W39226   8.873  17.400   1.925  0.0454 -0.1909  0.1980
23043W        W39227  15.270   1.115  14.446 -0.0390 -0.1452 -0.0922
23044W        W39228  12.470  11.633   4.811 -0.0369 -0.0919 -0.1381
23045W        W39229  17.988   3.171  14.433  0.3590  0.0116 -0.0850
23046W        W39230  12.209  13.327  14.913  0.0005  0.0323 -0.1467
23047W        W39231  12.008   9.338  14.904 -0.1203 -0.0711  0.2691
23048W        W39232  10.830   7.691   3.449 -0.1694  0.1913  0.0177
23049W        W39233  16.613   1.832  12.645  0.1157  0.0867  0.0334
23050W        W39234   0.900   8.407   2.901  0.1965 -0.1984 -0.1261
23051W        W39235   1.352  10.259  14.812  0.0208  0.0511 -0.2578
23052W        W39236  16.397   0.598   0.727 -0.1334 -0.1510  0.1231
23053W        W39237  10.996  14.122  14.376 -0.1427 -0.1432  0.1465
23054W        W39238   7.059  11.234   0.159 -0.0574 -0.2441  0.0280
23055W        W39239  10.220   0.191   0.427 -0.0710 -0.2640 -0.2633
23056W        W39240  16.845   4.641  11.559  0.1771 -0.2121 -0.2779
23057W        W39241   5.785  17.772  15.147 -0.0483  0.2645 -0.2452
23058W        W39242   8.430  16.567   4.091 -0.1742 -0.0876  0.1047
23059W        W39243  15.135   8.148   4.024 -0.0317 -0.3339  0.1823
23060W        W39244   6.764  16.546   3.459 -0.3328  0.0559 -0.0710
23061W        W39245  10.783   3.635   1.078  0.1022 -0.1079 -0.0155
23062W        W39246  15.040   1.022   3.449  0.0088 -0.1929 -0.0584
23063W        W39247  14.196   6.989  10.241 -0.0576  0.0343 -0.0876
23064W        W39248   0.985  13.738   4.564  0.0987 -0.0284 -0.0487
23065W        W39249   8.781  15.064  12.195 -0.0322 -0.2880 -0.1969
23066W        W39250   7.444   2.777   1.971 -0.2183 -0.3602  0.2163
23067W        W39251   9.046  17.199  12.648 -0.3345 -0.3307  0.2163
23068W        W39252   1.883   0.684  11.460 -0.1208 -0.2894 -0.1553
23069W        W39253   9.148  11.776  11.542 -0.6003  0.1543 -0.2024
23070W        W39254   6.163  12.154  13.321 -0.2132 -0.1939 -0.3775
23071W        W39255  16.922  13.660   0.238 -0.0316  0.2152 -0.0751
23072W        W39256   5.050   7.207  12.455  0.1341  0.2094 -0.0364
23073W        W39257  10.379  15.923  15.336  0.3232 -0.1651  0.0921
23074W        W39258   1.363  14.217  15.521  0.1656 -0.0995 -0.0676
23075W        W39259   3.652   0.160   2.925  0.1030  0.1474 -0.3792
23076W        W39260   4.307  17.276   3.286  0.1732  0.2173  0.0455
23077W        W39261   1.333   4.808   3.505 -0.1165 -0.1372 -0.0891
23078W        W39262  14.510   8.205   0.910 -0.1194  0.2148  0.1257
23079W        W39263   7.034   4.626  12.455 -0.3650  0.0599  0.1214
23080W        W39264   6.430   0.945  11.634 -0.0408  0.2348  0.1336
23081W        W39265  17.273   4.321  12.838  0.2374  0.3527 -0.0130
23082W        W39266   1.619  11.911  14.484 -0.1707  0.0764 -0.0237
23083W        W39267   6.963  15.970   2.691  0.2352  0.0538  0.0786
23084W        W39268   0.089  13.708   3.996  0.1777 -0.0343  0.0166
23085W        W39269  15.272   8.529  13.994  0.3083 -0.1859  0.0173
23086W        W39270  10.440   3.095   4.628  0.1914 -0.1661 -0.0007
23087W        W39271  12.720   5.358  11.468  0.1269 -0.0827 -0.1031
23088W        W39272   9.943   4.801  12.111 -0.2169 -0.2918  0.1594
23089W        W39273   5.526   2.466  14.000 -0.0602 -0.1595 -0.0545
23090W        W39274   4.763  12.623  14.645  0.0166 -0.3306 -0.1452
23091W        W39275   0.355   0.754  14.348 -0.0905  0.2117  0.1535
23092W        W39276  15.707   8.694  12.704  0.1883  0.0895  0.0250
23093W        W39277  13.243   7.909  12.990  0.0066 -0.1241 -0.0659
23094W        W39278  13.090   3.449  11.892 -0.1435 -0.0148  0.0849
23095W        W39279   4.861   9.876   5.259  0.0803 -0.1242 -0.1138
23096W        W39280  11.710   2.744  15.277  0.1405 -0.2063 -0.0953
23097W        W39281   6.546   5.809  13.769 -0.2260  0.0814 -0.1467
23098W        W39282   1.340  16.407   2.393  0.0082  0.2652  0.0812
23099W        W39283   1.843  13.507  11.086  0.1759 -0.0255 -0.0053
23100W        W39284  12.983  11.369   5.220  0.1535 -0.0119  0.1536
23101W        W39285  10.171   9.392   0.208  0.0199 -0.1945 -0.0151
23102W        W39286   2.046   6.008  10.628  0.1845 -0.1091 -0.2869
23103W        W39287  12.587  12.342  10.174 -0.3043  0.1582  0.2448
23104W        W39288   0.333  11.505  13.538  0.2329  0.1013  0.0781
23105W        W39289   7.720  10.573  15.260  0.1721  0.0880 -0.0187
23106W        W39290   3.265   8.583  12.633 -0.0157  0.5676 -0.2130
23107W        W39291   9.951   2.877   4.826 -0.1995  0.3609 -0.3848
23108W        W39292   5.744   8.981   3.439  0.0181  0.0285 -0.0984
23109W        W39293   4.132   2.090  12.281 -0.0119 -0.1348  0.1014
23110W        W39294   3.455   2.491   4.764  0.3510  0.0179 -0.3004
23111W        W39295   8.260  13.160   3.553  0.0432  0.0485 -0.2037
23112W        W39296   7.012  18.386  12.196  0.2157 -0.0467 -0.1829
23113W        W39297  13.365  15.883   1.905  0.1642 -0.2584 -0.4791
23114W        W39298   8.395   6.155   2.381 -0.0535 -0.3002 -0.0470
23115W        W39299   1.728  10.906   0.740  0.0459  0.0998 -0.0171
23116W        W39300  11.764   6.822  14.120  0.0723  0.0211  0.3082
23117W        W39301  11.755  14.230   4.143  0.1886 -0.1677 -0.0117
23118W        W39302   9.859  12.966   4.341  0.2293  0.1860  0.0272
23119W        W39303   9.745  15.334  14.853  0.3567 -0.0799 -0.1760
23120W        W39304   7.822  12.420   4.536 -0.1969  0.0099  0.1503
23121W        W39305  10.230   9.291   4.546  0.0823  0.0854 -0.1416
23122W        W39306   7.813  18.635   2.461 -0.2235  0.3589  0.1219
23123W        W39307   9.839   2.943  13.503  0.1736  0.0528  0.1704
23124W        W39308  17.094   6.881  12.144  0.2178 -0.0664  0.1011
23125W        W39309   3.264   5.263  11.753 -0.0894 -0.0344  0.0710
23126W        W39310   1.056   2.853  14.995 -0.0696 -0.0731  0.2993
23127W        W39311  10.815   7.054   2.492  0.0271  0.1827  0.3804
23128W        W39312   4.401   2.159   1.851 -0.0961  0.1873 -0.0277
23129W        W39313   9.991   7.987   5.043 -0.1391  0.2477 -0.1832
23130W        W39314   1.950   5.192   2.263  0.5316 -0.2110  0.1390
23131W        W39315   4.201  17.535   1.444  0.3745 -0.0485 -0.0697
23132W        W39316  13.789  17.936  12.954  0.0009 -0.1642  0.3330
23133W        W39317   7.163  11.213  11.450 -0.2004  0.0958  0.1559
23134W        W39318  15.606   6.932  14.002  0.2750 -0.1511 -0.0173
23135W        W39319   6.439   9.882  13.326 -0.0134 -0.1537  0.2988
23136W        W39320   2.004  14.245   2.871  0.1129  0.0671 -0.4841
23137W        W39321  17.063  17.083  14.897  0.2933 -0.0196 -0.0909
23138W        W39322   0.230   6.601   0.357 -0.1296  0.1852  0.0786
23139W        W39323  18.261  13.691   5.388  0.4697 -0.0410 -0.3301
23140W        W39324   1.921  13.058  13.997 -0.2652  0.0192  0.1464
23141W        W39325  16.796   8.800  14.273  0.1584  0.2019 -0.2894
23142W        W39326  10.993  18.217  13.267  0.2843  0.0412  0.0002
23143W        W39327  18.692   7.544  14.621 -0.1512  0.1018 -0.1092
23144W        W39328   2.141   3.513   0.586  0.0762 -0.3259  0.1517
23145W        W39329   5.994   4.612  12.628 -0.0517 -0.2808  0.0596
23146W        W39330  14.681   5.426  13.370  0.1742  0.3415 -0.1060
23147W        W39331   5.212   7.456   0.837  0.0779  0.0643 -0.1636
23148W        W39332  12.477  17.600   2.339 -0.3106 -0.0747 -0.2389
23149W        W39333   8.917   2.278  15.145 -0.2653  0.0841 -0.4354
23150W        W39334   7.363   5.140   2.793 -0.0275 -0.2513 -0.2346
23151W        W39335   0.547  15.549  12.358 -0.2999  0.0715 -0.1332
23152W        W39336   7.827  18.387   2.993 -0.1084  0.1121  0.1253
23153W        W39337   3.062   7.408   4.010 -0.3266  0.0150 -0.1578
23154W        W39338  18.498   5.829   1.985  0.1983 -0.0671  0.2282
23155W        W39339   7.817  15.963  11.384 -0.2983  0.3037 -0.4144
23156W        W39340  15.414  11.839  13.905 -0.1030  0.1270 -0.1870
23157W        W39341  10.929  14.421  11.285 -0.1013  0.0033 -0.1610
23158W        W39342  11.740   9.925  13.217  0.5162  0.1179  0.0354
23159W        W39343   8.265  14.356   0.442  0.1854 -0.2297  0.0023
23160W        W39344   3.644  15.255  12.876 -0.1867 -0.0269  0.0229
23161W        W39345  10.713  18.794   5.076  0.2839  0.1141  0.0282
23162W        W39346   7.169  15.278  14.043 -0.1180  0.2676  0.2268
23163W        W39347   1.402  16.620   3.433 -0.0902 -0.2305 -0.0499
23164W        W39348   6.593   9.966   4.171 -0.3702 -0.1440  0.0949
23165W        W39349   3.245   6.860  15.429  0.2079 -0.0923  0.1286
23166W        W39350  15.755  14.101   4.495  0.2306  0.0836  0.0751
23167W        W39351   4.473  16.060   4.095 -0.3048  0.0238  0.1058
23168W        W39352   0.555  12.291   4.309 -0.1607  0.0379  0.4251
23169W        W39353  15.838  15.109  10.899  0.1602 -0.1422  0.0408
23170W        W39354  17.754  16.275  13.399  0.1195  0.2333 -0.1256
23171W        W39355  10.967   5.578  14.557 -0.2499  0.0115 -0.3195
23172W        W39356   9.476   8.610  15.114  0.1377 -0.1053 -0.2218
23173W        W39357   7.687   5.581  12.689 -0.1859  0.1476  0.0468
23174W        W39358  17.767   7.756   3.734 -0.0908  0.0610 -0.1594
23175W        W39359  15.683   8.256   2.370  0.3330  0.1470  0.0669
23176W        W39360  13.087   6.892   1.639 -0.1874 -0.0339 -0.0396
23177W        W39361   5.608  13.052  13.688  0.3458  0.2014  0.2414
23178W        W39362  11.901  10.782   4.952 -0.1245 -0.0712 -0.0080
23179W        W39363  18.164   7.505  11.088 -0.1220 -0.0909  0.5840
23180W        W39364  10.512   8.489   3.253  0.0335 -0.0108 -0.1587
23181W        W39365  10.005   4.964  11.126 -0.0007 -0.1728  0.0450
23182W        W39366   3.175   1.037  13.215  0.1431 -0.1556  0.2286
23183W        W39367  13.829   3.041  14.431  0.2706 -0.0876  0.0033
23184W        W39368  18.383  11.438   4.220  0.4510 -0.0906 -0.0756
23185W        W39369   7.268  18.196   0.137 -0.0290 -0.1302  0.1721
23186W        W39370  18.209   8.124  12.238 -0.2854  0.1144 -0.0533
23187W        W39371  10.721   8.823  11.501 -0.0119  0.0751  0.0953
23188W        W39372   7.398  10.570   3.438 -0.0334 -0.2187 -0.2933
23189W        W39373  12.762  15.230   2.142  0.0439  0.0063  0.0176
23190W        W39374  15.691  14.587  12.471 -0.0168 -0.1301 -0.2624
23191W        W39375  17.708   3.265   3.080  0.1717  0.2428  0.2765
23192W        W39376   3.018   1.328   2.864 -0.1632  0.0206  0.0081
23193W        W39377   0.121   8.612  13.083  0.2552  0.1150 -0.0511
23194W        W39378  10.731   3.096  11.152 -0.1845 -0.1032  0.0624
23195W        W39379  10.529  18.200   2.226 -0.0196 -0.2617  0.0384
23196W        W39380  13.862   2.978  12.014  0.1096 -0.1159 -0.0242
23197W        W39381  10.613   9.099   0.124 -0.3841 -0.1336 -0.2025
23198W        W39382  15.178  16.455   3.617  0.0773  0.0582  0.0180
23199W        W39383   8.996   2.215  14.660  0.3740 -0.0125  0.1439
23200W        W39384  18.451   3.274  14.057  0.2862  0.0020 -0.1853
23201W        W39385  11.456  14.926   0.022 -0.0608 -0.0380  0.0988
23202W        W39386   4.592  17.330   0.491  0.2479 -0.1460 -0.2783
23203W        W39387  18.730  13.462   1.254  0.0323 -0.2980 -0.1333
23204W        W39388   7.222  16.513   4.730 -0.1924 -0.0108  0.1643
23205W        W39389  12.392   3.137   3.493 -0.1712  0.1208  0.2379
23206W        W39390  16.918  12.105  14.808  0.0722 -0.0715 -0.0024
23207W        W39391   9.301   5.527   2.980 -0.0145  0.5481  0.0725
23208W        W39392   1.335  13.638   4.176  0.1127 -0.0516 -0.0394
23209W        W39393  12.659   3.415   1.293 -0.0579 -0.0608 -0.2538
23210W        W39394  17.022  12.454   3.814  0.0765  0.1136 -0.2212
23211W        W39395  13.658   5.376   3.861 -0.1166  0.1406  0.0711
23212W        W39396   5.028   7.936  15.212 -0.2882 -0.1040  0.2071
23213W        W39397   6.503  11.660   0.879  0.2590 -0.0780 -0.0483
23214W        W39398   6.435   9.536   4.377  0.0408 -0.1000  0.1185
23215W        W39399   6.345   0.181  12.962 -0.1582  0.3356  0.3640
23216W        W39400  13.413  15.456   3.031 -0.0245  0.2277 -0.2914
23217W        W39401   6.790   5.714  14.621 -0.0001 -0.1572  0.0324
23218W        W39402   4.578  10.481  13.374  0.1769 -0.4092  0.1818
23219W        W39403  16.975  17.805  12.418 -0.0922 -0.1296  0.1937
23220W        W39404   4.731  15.280  13.459 -0.0728 -0.4188 -0.0383
23221W        W39405   0.828   5.445  15.032  0.2301  0.1571  0.2953
23222W        W39406  10.235  15.383   0.830  0.0916 -0.3994 -0.0425
23223W        W39407  17.979  14.862   1.730  0.6003  0.0101  0.0580
23224W        W39408  10.922   7.743   3.961 -0.1335  0.0408  0.0720
23225W        W39409   2.163   0.922  14.842  0.0223 -0.0841  0.0302
23226W        W39410   5.091  14.257  10.976  0.1788  0.1920  0.1675
23227W        W39411  12.983   3.878  15.167 -0.1709 -0.1329  0.0021
23228W        W39412   9.318  16.552  11.706  0.0324  0.3310 -0.2063
23229W        W39413  10.315   5.654   1.690  0.4307 -0.0624  0.0948
23230W        W39414  15.668   0.832  11.623  0.2223  0.4668  0.0853
23231W        W39415   9.114  14.098   4.508  0.1509 -0.0227  0.0697
23232W        W39416   5.444  13.811   3.330  0.1354  0.2108 -0.1807
23233W        W39417   4.741  16.408  12.548 -0.0309  0.2605  0.2781
23234W        W39418   9.250  10.291   0.463  0.0272  0.1333 -0.0654
23235W        W39419   5.472   4.229  12.271 -0.1488 -0.1567 -0.2507
23236W        W39420   8.628   9.176  12.650  0.0002 -0.0645 -0.0061
23237W        W39421   0.682  10.023   2.328  0.4796  0.1602 -0.1198
23238W        W39422  17.461   9.510   1.317  0.2222 -0.1723  0.3045
23239W        W39423   5.538   1.019  12.372 -0.2847 -0.3131  0.2693
23240W        W39424   0.220  11.629   2.588  0.0826 -0.1404 -0.2259
23241W        W39425  10.423  12.751  11.731 -0.0966 -0.0550 -0.0013
23242W        W39426  10.221   8.556  14.721  0.0692  0.1375 -0.1332
23243W        W39427  15.516  13.332  14.127  0.0087 -0.0631  0.0720
23244W        W39428  10.213   8.406   0.076 -0.1085 -0.0501 -0.0325
23245W        W39429   6.368  12.527   2.438  0.3582 -0.1931  0.0465
23246W        W39430   0.040  11.616  11.363 -0.0000  0.0598 -0.3156
23247W        W39431   2.862  15.064  13.442  0.4902  0.2172 -0.4730
23248W        W39432  11.306  10.147   2.873  0.0268 -0.0588  0.0112
23249W        W39433  14.376   9.765   2.712  0.2191  0.0696 -0.0515
23250W        W39434  11.408  14.331   3.124 -0.1139 -0.2410  0.2680
23251W        W39435  13.698   2.300  12.518 -0.0501 -0.0399  0.0558
23252W        W39436  15.539  17.262  11.825  0.2447 -0.1643 -0.0631
23253W        W39437  16.310  12.969   4.604 -0.1621 -0.1466 -0.2827
23254W        W39438   9.906  18.785  12.194  0.0317 -0.1457  0.1502
23255W        W39439   3.772  14.428  11.781  0.3007  0.1155  0.0311
23256W        W39440  12.140   6.620  11.765 -0.1876 -0.2977 -0.1709
23257W        W39441  17.178   2.360   2.444  0.0417 -0.2223 -0.0162
23258W        W39442   6.070  18.825  11.420 -0.2610 -0.0079 -0.3719
23259W        W39443   3.033   3.947   0.649  0.0142 -0.1816 -0.0718
23260W        W39444   5.334  16.533   2.415 -0.3914 -0.0610  0.3109
23261W        W39445   1.752  12.490  12.214 -0.0016  0.0270  0.0816
23262W        W39446   7.152   9.558  15.451 -0.1147  0.0811  0.1044
23263W        W39447   8.686  12.615   2.306 -0.3258 -0.1307 -0.0147
23264W        W39448   9.108  18.139  14.463 -0.1821  0.2708 -0.0030
23265W        W39449   3.642  17.099  13.847  0.0335 -0.0507 -0.1656
23266W        W39450  12.278   3.558   4.466 -0.1966  0.0951 -0.1170
23267W        W39451  14.369   8.334  14.461 -0.1200  0.0082  0.1025
23268W        W39452   6.124  10.791  13.021  0.0140  0.0936  0.1488
23269W        W39453   1.394  11.004   2.992 -0.2059 -0.0012  0.1935
23270W        W39454   6.683  15.855   5.314  0.1664  0.2328  0.2027
23271W        W39455   1.511  15.669   5.171 -0.0893  0.1057  0.2192
23272W        W39456   8.184   7.935   4.024  0.0852 -0.1893  0.1057
23273W        W39457  10.475  13.387   2.861 -0.1251  0.1444  0.0993
23274W        W39458   2.295   7.255   3.411  0.4800  0.1191 -0.1070
23275W        W39459  14.306  11.514  11.415 -0.0859 -0.3512  0.1989
23276W        W39460   6.731   8.332  11.857 -0.2417  0.0477 -0.2207
23277W        W39461   7.497  10.091  11.281  0.5241  0.1496 -0.0071
23278W        W39462  14.468  16.996   5.639  0.0379  0.1049 -0.0856
23279W        W39463   8.933   0.556   4.012  0.0783  0.2212 -0.0551
23280W        W39464  10.180   4.898   3.716 -0.1220  0.0153 -0.0399
23281W        W39465  10.861   5.562   1.850  0.0813 -0.1631  0.1432
23282W        W39466  12.775  11.820  14.255 -0.1630  0.0237  0.0309
23283W        W39467  13.529   2.190  14.024 -0.1830 -0.0109 -0.0396
23284W        W39468  15.483  16.864   0.281 -0.2487 -0.0812 -0.1410
23285W        W39469  17.143  14.319  12.388 -0.2911 -0.1917  0.1637
23286W        W39470   2.118  13.721   2.770 -0.0503  0.0883  0.0611
23287W        W39471  15.074   4.450  10.864 -0.1573 -0.0338  0.1071
23288W        W39472  15.183   0.211   2.798  0.1629 -0.3867 -0.1884
23289W        W39473  14.322   6.663   0.108 -0.1016  0.1862  0.0138
23290W        W39474   0.826   5.628   9.745 -0.2613  0.0635 -0.3676
23291W        W39475   4.393  16.248  13.087 -0.1558  0.0710  0.2777
23292W        W39476  17.064  18.581   4.261 -0.3222  0.0385 -0.0663
23293W        W39477   7.471  14.505   0.510 -0.1296  0.0015 -0.1035
23294W        W39478   5.176   8.115   2.720  0.0005  0.2328 -0.0464
23295W        W39479   9.342   8.135   0.098 -0.1915  0.1121  0.1692
23296W        W39480   7.769  13.962  14.538  0.1613 -0.0745 -0.1679
23297W        W39481  10.916   3.134   1.962  0.0857 -0.1593 -0.1289
23298W        W39482  13.883   2.559  14.349  0.1397  0.0984 -0.2669
23299W        W39483   2.915   2.530   4.673 -0.1284  0.2706 -0.1899
23300W        W39484  10.486   3.961   1.499 -0.1099 -0.0305  0.0692
23301W        W39485  10.191   9.971   1.448  0.2511  0.1848  0.1961
23302W        W39486   4.495  16.390   2.933  0.1434  0.1253  0.0115
23303W        W39487   7.487   4.535   3.511  0.1494 -0.1706 -0.1639
23304W        W39488  15.481  17.216   2.357 -0.1662 -0.0204  0.2036
23305W        W39489  16.197  14.027   4.743 -0.0764 -0.1262 -0.0052
23306W        W39490   7.969   9.238  13.375  0.0255  0.1135  0.3766
23307W        W39491  13.884  16.778   0.914 -0.3338 -0.2971 -0.1439
23308W        W39492   0.611   8.554   1.230 -0.2992 -0.0523  0.3751
23309W        W39493   0.621  12.645  13.995 -0.0168 -0.1189  0.2278
23310W        W39494  12.517   1.427  15.502 -0.1946 -0.0601 -0.3120
23311W        W39495   0.001   1.771   3.275 -0.1985  0.0716 -0.0114
23312W        W39496  18.713   7.493   0.821 -0.0426  0.1831  0.0933
23313W        W39497   4.362  10.290   3.829 -0.0045 -0.1470 -0.1902
23314W        W39498  10.268   4.188  11.154 -0.0934  0.1376  0.3903
23315W        W39499  17.303   8.690   2.760  0.2274 -0.1859  0.0307
23316W        W39500   6.266   5.320   2.537  0.0265 -0.0167  0.3603
23317W        W39501  12.308  12.678  15.407 -0.1926 -0.0477 -0.1540
23318W        W39502  13.061  17.370  10.923  0.2207  0.1745 -0.1068
23319W        W39503   8.013  11.798   1.155  0.0556  0.0599  0.0271
23320W        W39504  12.371   7.625  11.256  0.1306 -0.2377  0.0407
23321W        W39505   0.514  11.938   1.146  0.0252  0.0957  0.1113
23322W        W39506   2.140   7.734  11.676 -0.0409 -0.4066 -0.0889
23323W        W39507  10.778   1.988   3.152 -0.2956 -0.5177  0.0309
23324W        W39508   2.792  11.491  10.078  0.2641 -0.0959 -0.1168
23325W        W39509   3.067  13.615  12.211  0.0376  0.0626  0.3059
23326W        W39510   7.912  17.009   2.210  0.2466 -0.2789  0.0212
23327W        W39511  18.647  16.624  14.786  0.2282  0.1217  0.0502
23328W        W39512  11.039   6.259  13.385 -0.3270  0.1021 -0.1070
23329W        W39513   3.992   7.301  12.640  0.0336  0.1018 -0.0218
23330W        W39514   0.020   0.483  14.061  0.1475 -0.1172  0.0649
23331W        W39515   4.247  16.926   2.273  0.1358  0.0131 -0.1638
23332W        W39516   2.185   0.868   1.667 -0.0678  0.0252 -0.0976
23333W        W39517   3.740  11.217   0.352  0.0271  0.0460 -0.1477
23334W        W39518   7.889  16.695   3.333 -0.1123  0.0175 -0.0491
23335W        W39519  10.782  12.142   4.821  0.0085 -0.2009  0.2307
23336W        W39520   2.987   2.450  11.090 -0.2262  0.1667  0.0003
23337W        W39521  11.134  15.381  12.600  0.1867  0.1249  0.1497
23338W        W39522   7.274   5.175  12.815 -0.0196  0.0465  0.2388
23339W        W39523   1.335  16.582   3.936 -0.0876 -0.0142  0.1427
23340W        W39524  18.391   0.282   2.054  0.0254 -0.0514 -0.1179
23341W        W39525   1.519   4.985   0.148  0.3551  0.0664  0.0613
23342W        W39526  11.346   7.747  11.646 -0.0311 -0.0161 -0.2110
23343W        W39527  11.438   4.931  11.329  0.1095  0.0155  0.0651
23344W        W39528   0.724  15.543   3.158  0.0642  0.2783 -0.3138
23345W        W39529  14.588   0.113   3.451 -0.0661 -0.0360 -0.0620
23346W        W39530   6.189   4.123   3.941 -0.0740  0.0835  0.0213
23347W        W39531   5.216   3.312  14.869  0.2459 -0.2682 -0.0891
23348W        W39532  18.002  16.782   3.067 -0.1452 -0.2346  0.3496
23349W        W39533   6.806   9.244  12.460 -0.1062 -0.0124  0.0772
23350W        W39534  11.889  13.212   3.589 -0.0382 -0.1515  0.2965
23351W        W39535  11.945  13.531   1.985  0.0586 -0.0929 -0.3510
23352W        W39536  14.895   2.268   1.812 -0.0558  0.0985 -0.3230
23353W        W39537   6.221   7.420   2.373 -0.1618  0.2232  0.4211
23354W        W39538  12.120   2.106  14.130 -0.0945  0.0336 -0.0355
23355W        W39539   0.853  17.406  11.884  0.0062 -0.0312 -0.0140
23356W        W39540   0.206  10.436   0.757 -0.1974 -0.0584 -0.1181
23357W        W39541   9.898  15.068   5.752 -0.3680 -0.1458  0.1505
23358W        W39542  10.736  18.503   3.756  0.3351 -0.0346 -0.1562
23359W        W39543  15.599   2.561  10.854  0.0588 -0.0423  0.0967
23360W        W39544  15.783   7.757   2.646 -0.1482  0.1649  0.1815
23361W        W39545   1.430   2.741   5.866 -0.1241 -0.0830 -0.0136
23362W        W39546  14.371  18.168  15.173  0.3893  0.1030  0.2390
23363W        W39547   0.767   7.869  10.554  0.1196 -0.2796  0.1081
23364W        W39548  15.715   1.480   4.927  0.2786 -0.1525 -0.0434
23365W        W39549  11.048   8.224   0.516 -0.1436 -0.2601  0.1141
23366W        W39550   6.369   5.364  14.967 -0.0845 -0.1996  0.0011
23367W        W39551   7.132   9.642  13.474  0.0607 -0.0353 -0.0156
23368W        W39552   5.933  13.894  14.075  0.2521 -0.0350 -0.0631
23369W        W39553   5.780  16.015  13.703 -0.4108  0.2376  0.1023
23370W        W39554   1.949  18.190  12.022 -0.1748 -0.0070  0.0018
23371W        W39555  11.701  12.822  14.026 -0.0547 -0.0256  0.0778
23372W        W39556  10.355  12.412  13.391 -0.1886 -0.2861  0.0393
23373W        W39557   9.658  11.606   2.650 -0.1325 -0.0844  0.2311
23374W        W39558  14.954  11.012  11.096  0.2269 -0.0716  0.2196
23375W        W39559   2.244  17.392  13.142 -0.1078 -0.2420 -0.0740
23376W        W39560  18.057   9.976   2.863  0.0515 -0.0691 -0.0374
23377W        W39561  14.439   7.909   4.829 -0.2964 -0.0045 -0.0015
23378W        W39562  12.001  16.115  11.607  0.0732  0.0252 -0.1941
23379W        W39563   9.282  15.204   0.019  0.2023  0.2086  0.0762
23380W        W39564   3.614  16.278  12.062  0.2369 -0.2802  0.0243
23381W        W39565  15.342  17.801  10.982 -0.3326 -0.1268  0.1182
23382W        W39566   5.617   9.051  12.248 -0.2510 -0.2901 -0.2284
23383W        W39567   6.396   9.985  12.165 -0.0451  0.0225 -0.1094
23384W        W39568  15.499   9.915   2.778 -0.0826  0.4101  0.1117
23385W        W39569   7.166  15.136   1.802  0.2920  0.0690  0.2497
23386W        W39570  15.137   2.820   0.552 -0.0735  0.0784 -0.1558
23387W        W39571  17.417   0.288   5.801  0.1586 -0.0986 -0.3604
23388W        W39572  10.511   8.292   2.422  0.3286  0.2546  0.0653
23389W        W39573   4.018  14.595  12.191 -0.2648 -0.2288  0.2786
23390W        W39574   5.672   0.681   1.787 -0.2591 -0.0205  0.0146
23391W        W39575   1.395  16.725  10.902  0.0244  0.2631 -0.4380
23392W        W39576   1.326  17.609   5.364 -0.3574 -0.1600  0.0323
23393W        W39577   8.659  10.889  15.055  0.2766 -0.0816 -0.0579
23394W        W39578  16.838   7.532   2.237  0.1279  0.0191 -0.3351
23395W        W39579   2.690  15.518   0.098 -0.1955  0.0926 -0.2730
23396W        W39580   1.006   9.649  11.228  0.1443 -0.0284 -0.0179
23397W        W39581   6.796  15.027  11.458 -0.0737 -0.0355 -0.0705
23398W        W39582  16.524  10.849   3.327 -0.1534  0.0157  0.2268
23399W        W39583   7.070  12.028   2.370  0.3548  0.0535  0.1133
23400W        W39584  10.073   6.120   5.372 -0.1385 -0.0906  0.1192
23401W        W39585   9.109   3.769  12.150 -0.0785 -0.2227  0.0444
23402W        W39586  15.298   6.685  11.331  0.1016 -0.3722  0.0716
23403W        W39587  10.907  14.315   3.029  0.2174 -0.3704 -0.2184
23404W        W39588   6.037   5.170   2.124  0.0690 -0.0064 -0.2089
23405W        W39589  13.651  15.997   4.111  0.0896  0.0283 -0.1395
23406W        W39590  13.660  12.965  12.091 -0.2154  0.2078 -0.0126
23407W        W39591   9.081   7.054   1.653 -0.2090 -0.1274  0.1118
23408W        W39592  12.941   0.119  15.359 -0.1015  0.1948 -0.1248
23409W        W39593  18.816  13.559  15.327 -0.3059 -0.1545  0.0227
23410W        W39594   4.072  13.095   2.553 -0.0902 -0.2300 -0.1497
23411W        W39595   3.250   7.390   5.753  0.1729 -0.4654  0.1166
23412W        W39596  18.619  15.838  13.637 -0.1997  0.1259  0.3100
23413W        W39597   6.919  12.547  10.845 -0.1038 -0.0360  0.4654
23414W        W39598   4.863  13.488   0.856  0.1147  0.2243  0.1069
23415W        W39599   9.522   4.714  15.514 -0.1830  0.0753  0.1366
23416W        W39600  16.865  10.381  11.153  0.0152  0.0376  0.2220
23417W        W39601   1.454  11.334   4.439 -0.1693  0.1662 -0.1773
23418W        W39602  15.185  18.486  11.212 -0.0997  0.1281 -0.0602
23419W        W39603  14.877   0.602   1.136  0.3275 -0.0323 -0.3601
23420W        W39604  12.140   1.993   5.679 -0.2058  0.2344 -0.0031
23421W        W39605   9.815   7.851  11.799  0.2093 -0.0416 -0.0639
23422W        W39606   0.829  11.598  10.523 -0.2352  0.2024  0.1730
23423W        W39607   5.862  13.475   4.797 -0.0138 -0.1296  0.0168
23424W        W39608   3.833  11.641  11.071  0.2530 -0.0684 -0.0308
23425W        W39609   3.429  16.324  13.564 -0.1921  0.1160 -0.0276
23426W        W39610  10.696  11.433  13.829  0.3419  0.0830 -0.1524
23427W        W39611   8.476   2.665  11.454 -0.0541 -0.0880  0.1303
23428W        W39612   0.517   7.084  10.051 -0.1912  0.3563  0.1386
23429W        W39613  17.776   6.313  11.472  0.2366  0.0641  0.2793
23430W        W39614  11.552  13.083   4.974 -0.1053 -0.1909  0.0680
23431W        W39615  18.566   8.956  11.840  0.1221 -0.0313 -0.0629
23432W        W39616   5.494   8.282  12.768 -0.2131  0.4337 -0.0835
23433W        W39617  12.745   3.500   2.321 -0.0642 -0.1176  0.3748
23434W        W39618   6.805   5.663   3.333 -0.1163  0.1343  0.1507
23435W        W39619  10.642   7.343   3.874 -0.1419  0.2812 -0.0952
23436W        W39620  13.516  12.793   4.193 -0.1931 -0.2259  0.2168
23437W        W39621  13.468   1.694   4.104  0.3429 -0.2817 -0.0252
23438W        W39622   0.766  10.787   1.083 -0.1540  0.1029 -0.2416
23439W        W39623  14.346  16.360   4.679 -0.0334  0.1359  0.0921
23440W        W39624  12.461  11.387   4.381 -0.1702  0.2160  0.1040
23441W        W39625  11.746   2.077   0.189  0.0227  0.0699 -0.1005
23442W        W39626  18.495   8.015   3.032  0.2245  0.2027  0.1472
23443W        W39627   2.904  12.392   3.540  0.0353 -0.1992 -0.0309
23444W        W39628  17.686   6.922  11.969  0.3573 -0.1379 -0.1950
23445W        W39629   1.599   6.104  14.693 -0.0707 -0.0466  0.0235
23446W        W39630   4.645   2.913   0.855  0.0927 -0.0912 -0.1568
23447W        W39631   9.829   1.024   2.020  0.1792 -0.0904 -0.0059
23448W        W39632   4.815   6.889  11.007  0.0972  0.1468 -0.0626
23449W        W39633  16.036   0.221  14.186 -0.0155  0.1251 -0.0306
23450W        W39634  11.162   1.600  13.322  0.0728  0.2100  0.2261
23451W        W39635  15.353   1.093   3.090 -0.2100 -0.0897  0.1536
23452W        W39636   5.439  10.955  10.294 -0.4016  0.0244 -0.0253
23453W        W39637   1.233   7.334   1.368 -0.2416 -0.3744  0.0101
23454W        W39638   9.367  13.546   3.081 -0.1417 -0.2589  0.0202
23455W        W39639  12.250  10.721   3.912 -0.2050  0.1288 -0.0162
23456W        W39640   8.029  10.289  11.431 -0.2664 -0.0195  0.3510
23457W        W39641  14.713   3.521   3.131  0.3258 -0.0452  0.0876
23458W        W39642   4.908  17.980  13.265  0.2313 -0.1944  0.2024
23459W        W39643   3.417  12.273  15.046  0.0676 -0.1205  0.3169
23460W        W39644  11.955   6.164   1.306 -0.0404 -0.2255  0.1664
23461W        W39645  11.008   6.077  12.203  0.1455 -0.0836  0.0412
23462W        W39646  17.676   8.334  14.969 -0.0559  0.3753 -0.1658
23463W        W39647  10.003   0.421   5.427  0.0839  0.1374  0.0710
23464W        W39648  10.050   4.235   4.840 -0.2635  0.1898  0.1341
23465W        W39649  16.260  16.949   2.629  0.0797  0.0038  0.0169
23466W        W39650  11.675  18.574  15.094 -0.4043 -0.2689 -0.0814
23467W        W39651  18.051   9.098   0.977 -0.3536  0.1728 -0.1389
23468W        W39652   4.963  13.801  12.094  0.3174  0.0428  0.0142
23469W        W39653  10.419   5.699  13.786  0.0045  0.0030  0.2460
23470W        W39654  17.564  18.505  10.880 -0.0913  0.2856 -0.0184
23471W        W39655  18.763  10.496  14.863 -0.2936  0.0179 -0.3042
23472W        W39656   3.980  12.279   2.728 -0.0021  0.3258 -0.0794
23473W        W39657  10.984  11.503  12.053  0.3890 -0.0336  0.0560
23474W        W39658   2.959  14.887   6.210 -0.3696  0.1570  0.1281
23475W        W39659  18.634   0.469   1.334  0.2343  0.3379  0.1155
23476W        W39660  11.458   8.235   5.090 -0.2104 -0.1043  0.2802
23477W        W39661  18.706   8.379   4.596  0.0582 -0.3031 -0.2045
23478W        W39662   1.532   5.241  11.818 -0.0723 -0.0616  0.1520
23479W        W39663  17.490  18.842  11.911  0.1596  0.2986 -0.1289
23480W        W39664  17.145   6.748   4.329  0.0473  0.0446 -0.1328
23481W        W39665   3.844   9.767   2.451 -0.0048 -0.0293  0.1065
23482W        W39666  13.790   1.643   1.111  0.2722 -0.1282  0.0517
23483W        W39667   4.625  10.415   3.029  0.2674  0.1711  0.1510
23484W        W39668  13.922  18.319   0.062 -0.0109  0.1872  0.1847
23485W        W39669   5.039  16.406   2.897  0.0930  0.0566  0.0922
23486W        W39670   5.757   9.272   2.029 -0.0506  0.1144 -0.2094
23487W        W39671   3.221   0.905  10.444 -0.0839  0.1962  0.0179
23488W        W39672  17.717  11.056   5.488  0.0081  0.2835  0.1367
23489W        W39673   6.579  14.500  13.819  0.1737 -0.1102  0.2292
23490W        W39674   0.496  18.450  13.640 -0.0519  0.0476  0.1425
23491W        W39675   4.396  10.354  15.295  0.2034  0.1601 -0.2088
23492W        W39676   3.990  17.188  11.653  0.0415  0.0704 -0.0904
23493W        W39677  14.015  11.628   3.112 -0.2460  0.3143  0.0823
23494W        W39678  16.357   7.963   0.244 -0.0449  0.0023 -0.1197
23495W        W39679  16.288  16.817  12.769  0.3134 -0.0030  0.0434
23496W        W39680  17.586   2.216  13.763 -0.0359 -0.0325  0.0358
23497W        W39681  10.967   9.523  15.035  0.2055  0.2109  0.0030
23498W        W39682  15.835   0.411  11.395 -0.1924  0.1937 -0.0255
23499W        W39683  10.011   5.454  10.922 -0.0233  0.0568  0.0097
23500W        W39684   1.132  14.744  15.313 -0.0507  0.0282 -0.2619
23501W        W39685   1.338  17.956  10.977 -0.0257 -0.0502 -0.3631
23502W        W39686  16.911  11.785   4.809  0.0225  0.1625  0.1345
23503W        W39687  16.003  11.574   0.560 -0.0897 -0.2392  0.3033
23504W        W39688   3.851  17.498  13.406 -0.1734 -0.2971 -0.0515
23505W        W39689  14.356   8.209   0.396 -0.3196  0.3013 -0.1512
23506W        W39690   2.856   9.822   2.757 -0.1647  0.0296  0.0958
23507W        W39691  13.349   6.169   4.437 -0.3110  0.0177 -0.5141
23508W        W39692   7.710   7.932  10.124 -0.0277 -0.2334  0.2755
23509W        W39693   0.891   2.538   2.444 -0.2294 -0.2060 -0.0384
23510W        W39694  12.547  11.389   1.597 -0.1950 -0.0465 -0.2425
23511W        W39695  14.532  11.713  14.149  0.0050  0.1416 -0.0661
23512W        W39696  16.700  16.639  10.846  0.0885  0.0694  0.1629
23513W        W39697   0.727  11.094  12.559 -0.1847 -0.1896 -0.0288
23514W        W39698   3.744  13.197  14.913  0.1776 -0.0798  0.0488
23515W        W39699  10.392   8.873  14.338 -0.1576  0.0648 -0.3704
23516W        W39700   4.992  17.449   0.808  0.0522 -0.2529  0.1995
23517W        W39701  15.922  11.897   2.994  0.2789 -0.1502 -0.0332
23518W        W39702  17.316   7.317  15.348  0.1107  0.0953 -0.2638
23519W        W39703  13.451   7.485  11.858  0.4261  0.0314  0.0280
23520W        W39704  10.760  11.871   2.974 -0.1760 -0.0848  0.1190
23521W        W39705  11.877   4.773  11.346 -0.0692  0.1055 -0.1952
23522W        W39706   9.455   3.498   1.501 -0.1650  0.4843  0.0506
23523W        W39707  14.482   1.278   0.041 -0.1356  0.1317 -0.0393
23524W        W39708   7.662   8.751   4.618  0.0466  0.1335  0.0207
23525W        W39709   2.264   9.883   0.127  0.0869 -0.3623  0.0727
23526W        W39710   1.976  17.006   5.017 -0.2088  0.2682 -0.0594
23527W        W39711   2.278  15.954   0.328  0.0715  0.0558  0.2977
23528W        W39712  14.383   8.802   1.839 -0.0971 -0.3798 -0.1306
23529W        W39713  11.127   6.718  13.187  0.0405  0.4104  0.1440
23530W        W39714   7.049   8.099   4.843 -0.1269  0.0291  0.1498
23531W        W39715   8.079   7.747   0.041  0.1347  0.0357 -0.1901
23532W        W39716  17.366  13.362  12.171 -0.1611 -0.0740 -0.3612
23533W        W39717   9.091  17.473  13.254  0.1041  0.1318  0.1767
23534W        W39718  17.288   6.330  13.543  0.1506 -0.1291 -0.2297
23535W        W39719   5.357  14.602   5.490  0.1096  0.1045  0.0725
23536W        W39720   2.328  17.745   2.890 -0.1737  0.0826 -0.1131
23537W        W39721   5.287   1.446  12.542 -0.1049 -0.2632  0.1382
23538W        W39722   0.372   9.790   4.662 -0.0542 -0.1949  0.1160
23539W        W39723   2.774  14.117  15.376 -0.1494 -0.1796  0.2839
23540W        W39724  10.131  11.148   0.699  0.1680 -0.3565 -0.1591
23541W        W39725   0.590   8.582   4.485 -0.1383 -0.1168  0.0026
23542W        W39726   9.372   6.775   3.779 -0.0477 -0.1124  0.2572
23543W        W39727   7.048   7.179  11.680  0.0471  0.2243 -0.1836
23544W        W39728  11.061  11.046   5.992 -0.0612  0.1544 -0.1313
23545W        W39729   9.508   1.247   3.933  0.1272 -0.1144 -0.1012
23546W        W39730   8.501   0.902  11.527 -0.0789 -0.2602  0.3877
23547W        W39731  13.562  15.381  11.981  0.3825  0.2753 -0.1022
23548W        W39732  10.262   8.485  13.596 -0.4613  0.0528 -0.3159
23549W        W39733   4.454   1.606   2.674 -0.1425  0.1885  0.3806
23550W        W39734  16.049   3.283  12.908 -0.0149  0.1292  0.0743
23551W        W39735   5.684  12.880  13.111 -0.2077  0.0201  0.2521
23552W        W39736  16.751  12.202   0.132 -0.0824 -0.4539 -0.3180
23553W        W39737   2.730  10.577  10.906 -0.3439 -0.4067 -0.2990
23554W        W39738  15.832   7.739   4.853  0.2163  0.0958  0.1569
23555W        W39739  11.097  17.052   3.845  0.3004  0.1492  0.0053
23556W        W39740   1.714  10.776   4.348  0.0826 -0.0691 -0.1210
23557W        W39741   2.620   9.927  15.237  0.1313 -0.1391 -0.0153
23558W        W39742  12.128  11.000  10.029 -0.3098  0.1817 -0.1923
23559W        W39743  13.162   0.626   2.348  0.0534 -0.1236  0.0635
23560W        W39744   7.084   0.082   2.444 -0.2960 -0.1083  0.0102
23561W        W39745  14.108   5.089  12.412  0.4606 -0.0489 -0.3416
23562W        W39746   8.285   9.113  11.931  0.1375  0.0891  0.0154
23563W        W39747  10.862   3.492   5.529  0.1276 -0.1534  0.0506
23564W        W39748   2.662   2.177   3.949  0.0404 -0.2947 -0.2185
23565W        W39749   0.524   2.601  14.135 -0.1707  0.3066  0.0646
23566W        W39750   7.658   0.789  13.909 -0.1858 -0.2303  0.1798
23567W        W39751  10.704  11.999  13.894 -0.0923  0.0579 -0.3428
23568W        W39752  11.714   5.935  14.790 -0.0828 -0.0840 -0.3045
23569W        W39753  10.458   5.021  10.999  0.2559 -0.1433 -0.1122
23570W        W39754  17.875   0.544  11.153 -0.1363  0.0177  0.2375
23571W        W39755  14.974   2.276   0.001 -0.2198 -0.0015  0.1349
23572W        W39756  11.524   9.481   5.698 -0.1745 -0.0914  0.0566
23573W        W39757  11.337  13.771   4.744 -0.0321  0.1219 -0.0421
23574W        W39758  11.694   0.377   2.948 -0.2891  0.0717  0.1426
23575W        W39759   9.677  14.302  14.177  0.0575 -0.0551 -0.3975
23576W        W39760  15.539  14.716   4.379 -0.0670 -0.0683 -0.1497
23577W        W39761   7.429  15.763   3.579  0.1053 -0.0010  0.0188
23578W        W39762   0.921  15.583  12.016 -0.1862 -0.0877  0.0054
23579W        W39763  18.630   0.841  13.836  0.0508 -0.0174  0.0990
23580W        W39764   6.238   8.982  10.211 -0.0004  0.1215 -0.0151
23581W        W39765  15.739  10.343   0.964 -0.3162  0.0490  0.0923
23582W        W39766  12.169  11.836   3.325 -0.0500 -0.0125  0.2083
23583W        W39767   9.700   8.533  14.307  0.3592 -0.0532  0.1273
23584W        W39768   3.561   6.590   4.967 -0.1538  0.0917  0.1790
23585W        W39769   0.930   5.305   1.020  0.2109 -0.1683  0.4196
23586W        W39770   9.699   4.194  11.736  0.1935 -0.2639 -0.1463
23587W        W39771  12.163  11.940   5.612  0.4383 -0.0667 -0.2091
23588W        W39772   4.321  17.505   2.336  0.0771  0.2596  0.0279
23589W        W39773   0.937  11.586  14.169 -0.0279  0.1255 -0.0355
23590W        W39774   3.893   9.246  13.408 -0.1842  0.2180 -0.0140
23591W        W39775  17.338  12.795   1.222 -0.3383  0.0040  0.1955
23592W        W39776  18.269  17.552  12.346 -0.1162 -0.2254  0.3456
23593W        W39777   5.949  15.692  14.141 -0.2053  0.0016 -0.0506
23594W        W39778  14.568  10.383  12.915  0.1420  0.1256 -0.1463
23595W        W39779  15.666  15.347   2.680 -0.1338 -0.0907  0.0808
23596W        W39780   6.324   2.095  15.520 -0.1782  0.3319  0.3314
23597W        W39781  16.458  17.778   0.115  0.1796 -0.1382  0.1360
23598W        W39782   6.491  13.772   1.373 -0.0458  0.1502  0.1000
23599W        W39783   5.481  15.257  14.185  0.0297  0.1555 -0.1738
23600W        W39784   6.567   9.723   2.374  0.0184  0.2346 -0.2640
23601W        W39785   5.835   5.713  14.604 -0.0192  0.2214  0.0796
23602W        W39786  12.561  12.469   3.074 -0.3798 -0.0808  0.0426
23603W        W39787   1.761   2.343  14.984  0.3546 -0.1246  0.1025
23604W        W39788  14.600  18.544  13.293 -0.2646 -0.0855  0.0750
23605W        W39789   0.064  14.176  11.801  0.2188 -0.0073  0.5541
23606W        W39790   2.786   5.994  12.417 -0.3286 -0.1900 -0.0356
23607W        W39791  14.273   6.451   1.452 -0.1238 -0.1049 -0.1080
23608W        W39792   0.723   3.607   0.564  0.0389 -0.0719  0.0783
23609W        W39793   3.583  16.554  14.490 -0.0543  0.2523 -0.1016
23610W        W39794   2.974  17.798   4.030  0.1076  0.1907 -0.0755
23611W        W39795  10.202   6.887   4.096  0.3745  0.2891 -0.0750
23612W        W39796  11.370   2.241  11.422 -0.0397 -0.0606  0.0331
23613W        W39797   5.538  18.207   2.818  0.4685 -0.1513  0.2749
23614W        W39798  15.856  11.825   3.547 -0.3423  0.2522 -0.2671
23615W        W39799   3.558  14.581  14.552 -0.1646  0.0278  0.1375
23616W        W39800  17.442   9.268  12.736  0.1382  0.1997  0.0382
23617W        W39801  12.873  11.976   2.408  0.1451 -0.1472 -0.0521
23618W        W39802   7.183  14.160   0.720  0.0187 -0.1161  0.0004
23619W        W39803  17.815   7.695  11.377  0.1479  0.0080  0.2331
23620W        W39804  11.664   0.117  12.100 -0.2204 -0.0222 -0.1348
23621W        W39805   2.054  10.189  15.016 -0.2609  0.2362  0.0115
23622W        W39806  17.746  13.080   1.199  0.0907  0.1235 -0.2199
23623W        W39807   4.192  15.561   2.109 -0.0880 -0.0552  0.0607
23624W        W39808   0.339   2.748   1.474  0.1954  0.0609 -0.0182
23625W        W39809   7.215   6.237  10.811  0.0917 -0.1242  0.0596
23626W        W39810  14.990  17.000   2.449 -0.1573 -0.0714 -0.0186
23627W        W39811   3.287  11.349  11.408 -0.1742 -0.0748 -0.3309
23628W        W39812   0.070   2.124   2.309  0.3458 -0.0803  0.1893
23629W        W39813  18.020   5.531  13.008 -0.0742  0.0134  0.2608
23630W        W39814   2.014  13.598   4.968 -0.0963 -0.0330 -0.2897
23631W        W39815   0.949   2.806   3.384  0.1306 -0.2329  0.0032
23632W        W39816  18.675  11.823  14.823 -0.0689  0.1460 -0.4062
23633W        W39817  13.915   8.696   4.170 -0.3157 -0.1451 -0.1747
23634W        W39818  14.261  13.160   2.440  0.1414  0.1685 -0.1303
23635W        W39819  17.732   7.436   5.220 -0.2565  0.1228  0.4807
23636W        W39820   2.090   2.187  12.086  0.0543 -0.0475 -0.0181
23637W        W39821   4.765   8.828   4.854 -0.0529 -0.0490  0.0556
23638W        W39822  10.940  12.862  13.654 -0.3629  0.0275  0.3306
23639W        W39823  11.055  10.405   1.856 -0.0604 -0.1668  0.0724
23640W        W39824  14.949  13.691   0.680 -0.1163  0.1089 -0.2017
23641W        W39825  15.417   4.930   0.429  0.1456 -0.1211 -0.0626
23642W        W39826   7.800   8.529   3.389 -0.5120 -0.1069  0.5484
23643W        W39827  12.084  15.662  13.800 -0.1631 -0.0892 -0.2393
23644W        W39828   0.463  13.332  15.344 -0.0613  0.4524  0.2079
23645W        W39829   9.119  17.072  14.572  0.3389 -0.1207  0.1567
23646W        W39830   2.430   8.709   1.381  0.0179  0.3191  0.0479
23647W        W39831   6.077  11.357   9.637  0.2306  0.0110  0.0418
23648W        W39832  17.510  17.674   3.391 -0.3317  0.0635 -0.3235
23649W        W39833  17.412  12.825  11.578 -0.1802  0.0463 -0.0454
23650W        W39834  16.547   2.693   4.144 -0.1361 -0.1829 -0.1875
23651W        W39835   3.293   3.745  14.060 -0.2989 -0.1440 -0.2726
23652W        W39836  18.203  10.269  14.047 -0.2157  0.0108  0.1770
23653W        W39837  11.427  11.462  11.106 -0.1570 -0.0005 -0.0320
23654W        W39838   9.033   9.163   2.467  0.0491  0.1786  0.0464
23655W        W39839   7.543   9.719   2.949 -0.1321 -0.1536  0.0277
23656W        W39840   6.140  16.469  11.631 -0.2602 -0.0892 -0.0906
23657W        W39841  10.810  10.619  15.053 -0.0359 -0.1761  0.1202
23658W        W39842   6.526  17.942   5.457  0.3665  0.0646 -0.1383
23659W        W39843   6.843  10.611   2.143  0.1882  0.1512  0.1954
23660W        W39844   9.887   1.329  14.359 -0.1773  0.1141 -0.1123
23661W        W39845  17.338   8.668   4.585  0.1146 -0.2058 -0.1613
23662W        W39846   8.712   9.402  11.132  0.0195 -0.0013  0.0147
23663W        W39847  17.590   3.405   5.106 -0.2024 -0.0525  0.1858
23664W        W39848   3.232  17.135   0.571  0.2989  0.1702  0.1515
23665W        W39849   3.992  16.745   0.030 -0.0203 -0.3321 -0.1141
23666W        W39850  15.851  10.775  10.731  0.1494  0.1532  0.3947
23667W        W39851   3.794  12.298  11.800 -0.0024  0.1709 -0.1406
23668W        W39852   3.420   5.730  11.406 -0.1752 -0.1950 -0.1312
23669W        W39853   4.617  14.788   2.091  0.3239 -0.2389 -0.1167
23670W        W39854   1.430  10.852  11.280  0.0706 -0.3213 -0.2062
23671W        W39855   0.232  12.352   3.940  0.0446  0.2223  0.1540
23672W        W39856   1.553   4.056   3.225 -0.4360 -0.0173  0.3574
23673W        W39857  11.909  14.498  13.379 -0.0435  0.0004  0.0398
23674W        W39858   4.945   6.132  11.187  0.1940 -0.0581 -0.1782
23675W        W39859  17.139   7.399   4.113  0.0525 -0.1390 -0.3589
23676W        W39860   2.165   1.030   3.945 -0.0896 -0.4263  0.1608
23677W        W39861  15.460  15.117   0.826  0.1141  0.3735 -0.0672
23678W        W39862   7.211  15.701  15.086  0.2164  0.3442 -0.0914
23679W        W39863  14.087   1.867  12.956 -0.4820  0.0656 -0.2808
23680W        W39864  18.719   0.842   2.804  0.3204 -0.0081 -0.0705
23681W        W39865   7.644  17.171   0.593  0.3429 -0.1978 -0.1447
23682W        W39866   2.362   7.114   5.446 -0.2535 -0.1207 -0.2781
23683W        W39867   4.638   3.853  12.790 -0.3917 -0.1371 -0.0442
23684W        W39868  11.901   8.121  14.693  0.3792 -0.0245 -0.2197
23685W        W39869  12.822  16.976   0.932  0.1729  0.0206  0.0514
23686W        W39870   1.756   8.840  14.824  0.2250  0.1211  0.3077
23687W        W39871  17.071  12.882  13.390 -0.0560 -0.0144 -0.3372
23688W        W39872  10.768  14.573   5.676  0.3272  0.0524 -0.0477
23689W        W39873   8.432   9.110   0.004  0.2151 -0.0888 -0.0748
23690W        W39874   0.154  11.062  13.489 -0.0779  0.0822  0.1201
23691W        W39875   0.038   3.890   2.832 -0.1033  0.2405  0.0729
23692W        W39876   6.045  17.281  14.290  0.0228  0.0914 -0.0423
23693W        W39877  13.058   8.499  12.722 -0.2273 -0.2501 -0.2608
23694W        W39878   9.450   4.758   3.095  0.1866  0.1048 -0.0793
23695W        W39879   1.827  14.820  14.877 -0.0197 -0.0054  0.2441
23696W        W39880  14.393  10.159   0.827 -0.0930 -0.2365  0.0784
23697W        W39881  12.119  11.655   1.469 -0.0860 -0.0595  0.0581
23698W        W39882   3.753  14.400   3.398 -0.0887 -0.0315  0.0642
23699W        W39883   0.396   7.303  13.979  0.1228  0.0844  0.0002
23700W        W39884   8.739   3.480   3.955 -0.2293  0.1528 -0.1079
23701W        W39885   4.379  15.850  14.784  0.0057  0.2193  0.2192
23702W        W39886   4.758   0.545   4.596 -0.0574 -0.3142  0.1062
23703W        W39887  16.795  15.402   0.007 -0.3164 -0.3125 -0.1452
23704W        W39888   4.486  15.787   1.646  0.0304 -0.2907 -0.0338
23705W        W39889   8.454   8.279  11.380 -0.0722  0.1798 -0.2062
23706W        W39890   9.650   7.654   3.972  0.2765  0.0646  0.1850
23707W        W39891  18.061  17.926   2.580  0.2817  0.2278  0.1712
23708W        W39892   0.913  13.179  11.256 -0.2537  0.1383  0.3005
23709W        W39893  13.599   0.229  11.694  0.0788  0.0845  0.1784
23710W        W39894  13.255   8.212   4.412  0.0747  0.1624  0.1924
23711W        W39895   7.866   2.495   1.306 -0.0510 -0.0080 -0.0719
23712W        W39896   0.364   0.212  11.956 -0.2164 -0.0262  0.0068
23713W        W39897   4.306  12.555   5.207 -0.3160 -0.0076 -0.1848
23714W        W39898   7.354  14.985   0.804 -0.0988 -0.1853  0.0965
23715W        W39899   0.880  16.385   2.554 -0.0082  0.1139 -0.3604
23716W        W39900   4.139   5.726  12.517 -0.2379  0.1354 -0.1746
23717W        W39901   4.297   6.469  14.382 -0.2089 -0.0959  0.1184
23718W        W39902  16.761   0.290  10.964  0.0263  0.2238  0.0264
23719W        W39903  16.705  18.271  11.620 -0.0185 -0.0936 -0.0695
23720W        W39904  11.262  15.527  14.017  0.1241  0.1367 -0.2067
23721W        W39905   8.190  16.549   0.788  0.0379 -0.2597 -0.0046
23722W        W39906  17.289   1.647   4.095 -0.0810 -0.0938 -0.3506
23723W        W39907  18.305  10.808   5.695  0.1689 -0.1668 -0.0237
23724W        W39908  16.523   2.209   4.205 -0.2771  0.2090  0.1007
23725W        W39909  13.683  16.349   0.088  0.2201  0.1151  0.1491
23726W        W39910   9.303  18.353   3.165  0.0052  0.2543  0.0244
23727W        W39911   6.104   4.473   1.766  0.1874  0.0430 -0.0345
23728W        W39912  16.526   6.861  15.223 -0.0149 -0.0108  0.1894
23729W        W39913   9.452  17.838  11.849 -0.2557 -0.1220  0.0031
23730W        W39914  15.916   2.335   0.750 -0.2056  0.0962  0.2840
23731W        W39915   9.534  14.584   4.895 -0.4611  0.2149 -0.2352
23732W        W39916   4.597   1.886  11.620  0.1884  0.0467  0.1553
23733W        W39917   7.064   5.631   4.538  0.1307  0.2057 -0.0849
23734W        W39918  12.202   0.795   3.871  0.2375 -0.1027 -0.0582
23735W        W39919  12.304  13.939   1.085  0.1363  0.1055  0.2298
23736W        W39920  18.479   7.206  13.434  0.2982  0.0101 -0.0780
23737W        W39921   4.215   4.056   2.129 -0.1724 -0.1548 -0.1019
23738W        W39922  12.331   1.484  11.239  0.6601 -0.2273 -0.1845
23739W        W39923  18.250  15.531   2.075  0.3367 -0.4163 -0.0664
23740W        W39924   9.037  10.938  14.689  0.2706 -0.0064  0.0435
23741W        W39925   7.248   3.785  14.948 -0.0062 -0.0369  0.2268
23742W        W39926   1.501   9.905   2.270  0.0887  0.1249 -0.1171
23743W        W39927   2.961   1.922   3.357  0.1383 -0.2921 -0.1093
23744W        W39928   2.333  15.090   3.759 -0.1211 -0.1542  0.1166
23745W        W39929   4.772  15.764  14.552 -0.1371 -0.2840 -0.1333
23746W        W39930   5.607   6.948  11.663  0.1375 -0.1766 -0.2408
23747W        W39931   2.998  14.527   5.510  0.1809  0.0431  0.1710
23748W        W39932   3.647  12.026  10.859  0.1139 -0.1535  0.1208
23749W        W39933   2.939  10.621   2.950 -0.0697 -0.0623 -0.1249
23750W        W39934  11.718   5.825  14.201  0.2955  0.2801 -0.2077
23751W        W39935  10.796   8.361  13.763 -0.1165 -0.0850 -0.1830
23752W        W39936   8.252  10.362   3.276  0.0137  0.3332 -0.0719
23753W        W39937   4.750  15.056  12.348  0.1826 -0.2016  0.1289
23754W        W39938   1.295   7.701  15.274  0.1088  0.1567  0.2909
23755W        W39939  15.579   0.782  11.100  0.1029  0.0765  0.1134
23756W        W39940   5.883   3.333  12.252  0.3466 -0.0016  0.1181
23757W        W39941   1.014  10.951  14.921  0.1281 -0.0009  0.0466
23758W        W39942  10.858   2.696  13.087  0.0777  0.4230 -0.0089
23759W        W39943   8.098   4.143   1.922 -0.1123  0.1150 -0.0915
23760W        W39944  10.965   1.356  12.858 -0.1289 -0.1333 -0.0443
23761W        W39945   2.715   9.200   5.030 -0.0996 -0.2358  0.0707
23762W        W39946  11.142  12.815   3.093  0.0469  0.0157  0.1815
23763W        W39947  10.865   2.962   2.941  0.2579  0.1583  0.0257
23764W        W39948  10.407  11.614   4.889 -0.2965 -0.0989 -0.0812
23765W        W39949  13.453   5.536  11.186 -0.1938 -0.1858  0.3048
23766W        W39950   8.501   5.817   1.039  0.1435 -0.0203 -0.1749
23767W        W39951   2.535  12.139   5.061 -0.0169 -0.0064 -0.0740
23768W        W39952  14.604  13.100   0.127 -0.1775  0.1937  0.3325
23769W        W39953   0.717   3.200   2.620 -0.1022 -0.1180  0.0826
23770W        W39954   3.287  12.350   3.957  0.1519 -0.0835 -0.2018
23771W        W39955   4.186  10.447   3.283  0.1376  0.2348  0.1047
23772W        W39956   7.135   1.963  11.245  0.1039  0.0956  0.4477
23773W        W39957   0.260   5.026  13.645 -0.3729  0.1265 -0.0736
23774W        W39958  13.785  17.518   3.100  0.3136  0.0322 -0.0624
23775W        W39959  12.549  17.510  14.259 -0.0416  0.2044 -0.1219
23776W        W39960  12.374  15.341   1.239  0.1245 -0.0494  0.0998
23777W        W39961   5.474   0.808  14.739 -0.1552 -0.0398 -0.3415
23778W        W39962   3.254   3.400   2.445  0.1132 -0.1155  0.4011
23779W        W39963   3.790   6.039   0.606 -0.1509 -0.0270 -0.2584
23780W        W39964  14.459   4.799   0.162  0.0681 -0.0415 -0.0104
23781W        W39965  13.677  10.086  13.100 -0.0914 -0.1418  0.1398
23782W        W39966   6.306   4.755  13.059  0.1876  0.2292 -0.0038
23783W        W39967  16.752  11.630   3.904  0.0358  0.0259  0.0078
23784W        W39968  13.782  14.047  11.785 -0.1184 -0.4444 -0.2035
23785W        W39969  10.534   8.810  12.530 -0.5437 -0.1873 -0.2406
23786W        W39970  18.060  15.131  12.718  0.1287 -0.1089 -0.3570
23787W        W39971  17.139   6.374   4.687  0.0722 -0.1634  0.0261
23788W        W39972   5.752  15.325  13.753  0.2902  0.0578  0.3094
23789W        W39973   7.035   5.483   5.087  0.1786  0.0029 -0.2716
23790W        W39974   7.803   6.183  12.830 -0.1560 -0.0700 -0.1470
23791W        W39975   4.150   3.849   2.625 -0.0314 -0.0586 -0.0544
23792W        W39976  14.508   6.755  15.201  0.3243 -0.2812  0.2199
23793W        W39977  14.226  15.849  11.294 -0.3076 -0.1178 -0.2403
23794W        W39978   3.191   8.356   4.227  0.0559  0.1744  0.2027
23795W        W39979  12.162  16.631  14.930  0.0490 -0.0869 -0.1610
23796W        W39980   1.639   8.196  15.246  0.2258  0.3497  0.0193
23797W        W39981  15.928  11.165   0.254  0.2423 -0.2259 -0.2457
23798W        W39982   0.007  12.580   2.543  0.2597  0.1162 -0.0898
23799W        W39983   3.708   0.229  14.376  0.0698 -0.3358 -0.3682
23800W        W39984   2.042  16.564   3.054  0.0046 -0.0619 -0.1356
23801W        W39985   4.540  16.514  11.260  0.0899 -0.0871  0.2269
23802W        W39986   5.750  17.229   0.744 -0.0259  0.1425  0.1331
23803W        W39987   6.466   9.128   9.744 -0.0632 -0.0373 -0.0564
23804W        W39988   2.546  11.717  13.571 -0.1992  0.2302  0.2342
23805W        W39989   5.289   7.346  13.789 -0.1614  0.0710 -0.1493
23806W        W39990  15.094  10.271  12.860  0.0361 -0.0360  0.3064
23807W        W39991   8.145  11.332   2.519 -0.3619  0.0041  0.2143
23808W        W39992   0.386  10.879   0.699  0.2559  0.0872 -0.2668
23809W        W39993  10.172  10.546  12.508 -0.1589 -0.1657  0.0194
23810W        W39994   9.087   1.214  15.124  0.2983 -0.2070  0.1893
23811W        W39995  16.058  17.484   0.772 -0.1273  0.1360  0.4090
23812W        W39996   2.616   4.296   1.386  0.0112 -0.2360  0.3705
23813W        W39997  12.197   9.572   3.569  0.1103 -0.0449 -0.0977
23814W        W39998   7.106   3.068   2.240 -0.0905 -0.3323  0.2011
23815W        W39999   2.628  13.958   6.152 -0.0997  0.0420 -0.1642
23816W        W40000   3.629  17.532  12.365 -0.2149  0.0176  0.1970
23817W        W40001   8.742  11.796  13.586 -0.1112 -0.4248  0.3420
23818W        W40002  17.368  13.960   1.108 -0.2009 -0.0173  0.2510
23819W        W40003  10.263   3.576   3.233  0.0404 -0.1082 -0.1431
23820W        W40004  14.629   2.594  15.399 -0.1021 -0.0617  0.4334
23821W        W40005   9.014  15.497  10.673 -0.0835 -0.1185  0.1710
23822W        W40006   1.275  14.540   1.160  0.1391 -0.2770  0.1655
23823W        W40007   4.642   2.980  10.884 -0.2606  0.0597 -0.3179
23824W        W40008   0.168   9.087   5.199 -0.1294  0.0845 -0.2723
23825W        W40009  18.730   9.657   4.279  0.0124  0.1410 -0.2262
23826W        W40010  15.832   5.411   1.501 -0.1286 -0.0508  0.1415
23827W        W40011  11.134   0.602  12.681 -0.0004  0.0314  0.2281
23828W        W40012  12.914  13.238   2.917 -0.0377 -0.0612 -0.2368
23829W        W40013   8.969   2.911  11.518 -0.2770 -0.1038  0.0117
23830W        W40014   7.420  12.441  10.760 -0.1808 -0.0257  0.1293
23831W        W40015   2.385   6.618  13.202  0.2333 -0.0293  0.1953
23832W        W40016  16.434   0.251   3.062 -0.0099  0.0688  0.2251
23833W        W40017  18.685  15.281  11.264  0.0248 -0.2209 -0.0188
23834W        W40018   7.411   4.580  12.020 -0.1006  0.0374  0.1079
23835W        W40019  15.796   4.338  13.560 -0.2257 -0.1934  0.4938
23836W        W40020   9.868  15.999  11.423  0.0199 -0.0060 -0.1197
23837W        W40021  14.046   0.203   5.182 -0.2871  0.2602  0.0253
23838W        W40022  16.760   0.990   0.887 -0.0542  0.0354  0.2339
23839W        W40023  10.593  18.823  12.866 -0.3006  0.0609  0.1857
23840W        W40024  13.426  16.976  12.588  0.0199 -0.1819  0.0264
23841W        W40025   6.657  10.291   0.342  0.1235 -0.1090  0.0085
23842W        W40026   5.902  18.679   0.541 -0.0064  0.1437 -0.1378
23843W        W40027  12.167  11.517  10.591  0.0128 -0.1082  0.0586
23844W        W40028   7.123  14.408   3.818 -0.0101 -0.2419 -0.4594
23845W        W40029  17.095   8.323   4.335  0.2424  0.2879 -0.0093
23846W        W40030   1.103   9.698   3.548 -0.0798  0.1043 -0.0119
23847W        W40031   5.382  12.250  10.233 -0.0357 -0.0731 -0.1762
23848W        W40032   5.395   0.388  13.058 -0.1211 -0.5932  0.1377
23849W        W40033  14.710  14.991   3.601 -0.2229  0.0953  0.3173
23850W        W40034   8.757   7.642  12.273  0.0461  0.1537 -0.0938
23851W        W40035  17.404   2.845  11.317  0.0275 -0.1704  0.1502
23852W        W40036  13.791  12.880  12.547 -0.1921  0.0613  0.0460
23853W        W40037   6.523  13.593  12.365  0.1302 -0.0465 -0.0906
23854W        W40038   4.783  10.189  10.742 -0.1078  0.2046 -0.1485
23855W        W40039  18.748  14.903   0.522  0.2151 -0.1837  0.1884
23856W        W40040  14.911  11.542   2.822 -0.1140 -0.1279 -0.0276
23857W        W40041  10.332   8.739  12.990  0.1029  0.1155 -0.2006
23858W        W40042   1.169   8.337  15.397 -0.1952 -0.2346 -0.1921
23859W        W40043   9.205  12.047   4.175  0.1936 -0.0126 -0.1581
23860W        W40044   2.100  17.723  11.514 -0.0123 -0.1435  0.0476
23861W        W40045   0.455   1.529  12.737  0.0612 -0.1081 -0.2284
23862W        W40046   6.810  10.929  13.723 -0.2767  0.0394 -0.2749
23863W        W40047  17.114  17.095   2.646 -0.1357  0.0368 -0.1349
23864W        W40048   3.139  11.233   1.121  0.0914 -0.3088 -0.0675
23865W        W40049   3.518  11.191  12.359 -0.4341  0.0751  0.1430
23866W        W40050   2.952  18.357  12.058  0.0442  0.1814 -0.3099
23867W        W40051  17.695   7.273   3.452 -0.0165 -0.1857  0.1194
23868W        W40052   9.273  11.983   2.733  0.2786  0.3401  0.0318
23869W        W40053   1.070   7.839   2.078 -0.1714 -0.0054 -0.0518
23870W        W40054   7.656   2.804   3.318 -0.0338  0.1052 -0.5629
23871W        W40055   4.998  11.393   2.642  0.2271 -0.1191 -0.1622
23872W        W40056   7.628   0.389  12.051 -0.2572 -0.3828 -0.0946
23873W        W40057   1.783  10.489   4.991  0.2877 -0.2925 -0.1934
23874W        W40058   3.526   1.726   4.996 -0.0882 -0.1120 -0.3090
23875W        W40059   6.950  10.467  13.895  0.0228  0.1735  0.0898
23876W        W40060  16.480  17.053  14.018  0.1435 -0.0617 -0.0306
23877W        W40061  12.620   2.693  11.889 -0.1422  0.0644 -0.1954
23878W        W40062   5.588  13.158   2.654 -0.2692 -0.2174  0.0847
23879W        W40063   0.645  17.285   1.608  0.2146 -0.2348 -0.1997
23880W        W40064   2.917  14.708   4.378  0.2121  0.0129  0.1010
23881W        W40065   2.386   9.336   1.227  0.0916  0.0155 -0.1190
23882W        W40066   1.925  11.135   0.179  0.1046  0.1646 -0.1433
23883W        W40067  17.678   6.695  14.298  0.1687 -0.1985  0.1326
23884W        W40068   1.977  15.900   1.755 -0.0012 -0.3547 -0.0724
23885W        W40069   7.747   6.300  10.731  0.0994  0.0125 -0.2171
23886W        W40070  14.989  13.445   0.240  0.0962 -0.1617  0.0886
23887W        W40071  15.694   0.071   4.010 -0.0529 -0.0335  0.0761
23888W        W40072  18.793   6.744  14.648  0.0484  0.1907 -0.0635
23889W        W40073  11.509  13.523   3.464  0.1802  0.1925 -0.3909
23890W        W40074  12.362  14.197   3.495  0.1059 -0.0137 -0.1223
23891W        W40075   8.733   3.239  15.402 -0.0125  0.2235  0.4117
23892W        W40076  10.994  10.529  13.563 -0.0113  0.2926 -0.4317
23893W        W40077  17.368   2.086  15.324 -0.1526 -0.1004  0.0220
23894W        W40078  10.285   7.845   5.468  0.3146 -0.1108  0.4821
23895W        W40079   9.584   1.032   4.375 -0.4051  0.0528  0.0454
23896W        W40080  11.493  13.787   0.245 -0.1053  0.1234  0.4540
23897W        W40081   5.494   8.926   2.866  0.0713 -0.0670  0.1631
23898W        W40082   0.596  16.875   0.807 -0.1380 -0.1851 -0.4330
23899W        W40083  12.589  15.768  12.308 -0.2303 -0.1570  0.3398
23900W        W40084  15.813   7.330  13.742  0.0770 -0.3340 -0.2486
23901W        W40085   5.300  16.290  12.730  0.3185  0.0385  0.1586
23902W        W40086   3.907  12.774  11.578 -0.0357  0.0564  0.0709
23903W        W40087  16.414  10.323   5.152  0.0360  0.0098 -0.1992
23904W        W40088  17.494   5.751  15.160  0.1328  0.0191  0.2205
23905W        W40089   6.849   5.103   1.712 -0.2247  0.1957  0.1393
23906W        W40090  13.914  14.457   2.069 -0.1386 -0.0542 -0.1315
23907W        W40091   5.293   0.859   5.325  0.1263  0.2774 -0.1148
23908W        W40092   2.879  14.282   2.905 -0.0456  0.2800  0.1686
23909W        W40093  15.040   3.363   5.320  0.1430  0.0081  0.0576
23910W        W40094   5.039  18.810  14.495 -0.1218  0.4564 -0.0461
23911W        W40095   4.585  15.757  13.521 -0.0167 -0.4087  0.2230
23912W        W40096   0.220   5.377   3.447  0.1924  0.2883 -0.0668
23913W        W40097  13.950   7.848   9.985  0.0703 -0.1244 -0.0135
23914W        W40098   3.398  17.216   3.746 -0.1753 -0.1664 -0.0334
23915W        W40099  16.992   0.515  14.532  0.3443  0.2005  0.0704
23916W        W40100   6.406  10.159   0.935  0.1338 -0.0295  0.1307
23917W        W40101  11.763  11.932   4.216 -0.2427  0.6368 -0.1433
23918W        W40102   3.980  15.473  14.744  0.1822  0.0521  0.0236
23919W        W40103  14.598  13.335  11.717 -0.1486  0.2651 -0.2946
23920W        W40104   1.485   3.781  13.882  0.0298 -0.1064  0.2215
23921W        W40105  10.020   1.566   3.265 -0.1858 -0.1305 -0.4434
23922W        W40106  14.810  12.494   3.493  0.2072  0.1722  0.1517
23923W        W40107   8.379  13.642  12.035 -0.2652 -0.3165 -0.1603
23924W        W40108   2.050  17.215  13.612  0.0526 -0.1868  0.0235
23925W        W40109   2.030   5.650   2.603  0.0359 -0.1473  0.0979
23926W        W40110  11.727  14.194  12.712 -0.0852  0.0077 -0.0989
23927W        W40111   2.015   8.461  11.741  0.2305 -0.0438  0.0074
23928W        W40112  18.135   9.137  13.307 -0.1179 -0.0341 -0.2380
23929W        W40113   9.761   5.734   4.589  0.0828 -0.0716 -0.0463
23930W        W40114  13.018  17.807  11.267  0.2008 -0.1014  0.0670
23931W        W40115   4.194  12.755   0.569 -0.1982 -0.1849 -0.3336
23932W        W40116  17.165   0.103  12.433  0.2132  0.2282  0.0984
23933W        W40117  10.482   2.636  13.535  0.0129 -0.0491 -0.1096
23934W        W40118   0.113   6.019   1.186 -0.1414 -0.2956  0.2129
23935W        W40119   4.002   4.578   3.327 -0.0026 -0.0824 -0.4383
23936W        W40120   5.649   4.001   0.317 -0.2403 -0.1574  0.2902
23937W        W40121   7.139   4.433  13.368 -0.0499 -0.0468  0.1664
23938W        W40122   1.810  14.099   1.397 -0.1025  0.1789  0.0187
23939W        W40123   9.983   0.933  13.470  0.0950  0.1381 -0.0062
23940W        W40124  15.182  15.004  11.181  0.1324 -0.1913  0.1060
23941W        W40125   0.521   0.477  12.938  0.1406 -0.2607  0.1393
23942W        W40126   4.838  12.918   3.866 -0.0346 -0.1969 -0.0095
23943W        W40127   8.183   8.925   4.937  0.0986  0.2110 -0.2245
23944W        W40128   2.604   7.211  11.680  0.1421  0.0955  0.1119
23945W        W40129  13.066   0.334  13.550 -0.0780  0.1575  0.1644
23946W        W40130  18.550   0.785  11.603  0.3262 -0.1624  0.0672
23947W        W40131   0.723   6.676   0.154  0.0892  0.1476 -0.0917
23948W        W40132  15.143   7.817  11.941 -0.1971  0.0485  0.2805
23949W        W40133   2.722   7.482   3.350  0.1639 -0.0281  0.2120
23950W        W40134   0.930   5.468  14.303  0.0391  0.1576  0.0411
23951W        W40135   2.989  10.350  10.232  0.0484  0.1716 -0.1031
23952W        W40136  13.876   1.971   2.649 -0.2117  0.4940  0.1884
23953W        W40137   0.314   8.309   0.738  0.2391  0.0180 -0.1944
23954W        W40138   1.574   2.750  13.090  0.0731 -0.0489 -0.2459
23955W        W40139  15.551  18.548   1.244  0.0082  0.3835 -0.0648
23956W        W40140   7.895  17.713  11.985 -0.0925  0.0761 -0.3983
23957W        W40141  15.031   3.194  14.368 -0.0252 -0.0777 -0.3417
23958W        W40142   5.560   6.727  15.525 -0.1922 -0.0307 -0.0229
23959W        W40143  15.551  13.154   1.837 -0.0703  0.1221 -0.0377
23960W        W40144   3.398   9.785   5.383 -0.2028  0.1154  0.1181
23961W        W40145   0.262  10.147   2.023  0.2009  0.0795  0.3340
23962W        W40146   2.266  14.171  11.695  0.3088 -0.1962 -0.0306
23963W        W40147  13.593  18.365   5.565 -0.0997 -0.0533  0.1672
23964W        W40148  12.224   2.142   4.304 -0.1218  0.0950 -0.1483
23965W        W40149   1.079   9.724   2.575 -0.2419 -0.0234 -0.1749
23966W        W40150   6.067   0.804   0.910 -0.1910  0.1525  0.1910
23967W        W40151   0.036   1.786  14.851  0.4043 -0.0232  0.1593
23968W        W40152   6.058   2.326   0.779 -0.0317  0.2934 -0.6483
23969W        W40153   8.267  15.676   0.355 -0.1074 -0.1760  0.0972
23970W        W40154   9.226  12.361  11.198  0.0206 -0.1940 -0.1557
23971W        W40155   8.283  14.969   3.802 -0.0612  0.1328 -0.1100
23972W        W40156   2.064  11.385   0.683  0.1857 -0.0020  0.1771
23973W        W40157   4.216   7.416   5.463  0.0655 -0.1783  0.3615
23974W        W40158  18.749  16.124   4.508  0.2217  0.4673 -0.1437
23975W        W40159  13.021  13.164  14.336 -0.1899 -0.0360 -0.1815
23976W        W40160   3.585   6.753   5.438  0.0191  0.5763  0.0489
23977W        W40161   0.466  14.211  12.948 -0.3904  0.0673  0.1562
23978W        W40162  14.789  14.673   3.181  0.3976 -0.1217 -0.1885
23979W        W40163   4.148  10.921   2.586  0.1816 -0.0343 -0.0105
23980W        W40164   9.746   9.703   1.548 -0.0834 -0.1097 -0.2417
23981W        W40165  15.756  17.322   5.515  0.0504 -0.0885  0.0366
23982W        W40166   1.846   4.108  12.522 -0.1936 -0.2067  0.2456
23983W        W40167   1.961   1.861   4.356  0.1066  0.0642  0.1721
23984W        W40168   4.744   7.487  11.383  0.2378  0.1081 -0.3148
23985W        W40169  10.038   7.429  12.624 -0.2118 -0.2486  0.1114
23986W        W40170  17.775   4.612   4.279 -0.0156 -0.0543  0.0286
23987W        W40171  12.401  15.167   2.910 -0.1564  0.0677 -0.0393
23988W        W40172  12.741   5.615   3.149  0.0472 -0.0544 -0.3229
23989W        W40173  10.052  13.737   4.230 -0.4946 -0.0437 -0.1429
23990W        W40174   5.287  16.861   2.060 -0.5082  0.0165  0.0824
23991W        W40175   8.567  16.815   0.547  0.0341 -0.2090  0.2219
23992W        W40176   7.884   0.929   3.195  0.1229 -0.1180  0.1862
23993W        W40177   5.921  13.136  11.922  0.0529 -0.0305 -0.2581
23994W        W40178  14.747   0.172  10.636  0.0812 -0.1213 -0.1753
23995W        W40179   1.245   2.419  11.750 -0.1040 -0.0265  0.0362
23996W        W40180  11.693   5.520   1.514 -0.0273  0.1668 -0.1379
23997W        W40181   6.663   8.752  15.440 -0.0200  0.0746 -0.1158
23998W        W40182   8.711  13.790  11.674  0.0227 -0.5675  0.1333
23999W        W40183   6.220  17.404   4.517 -0.0338 -0.1322 -0.2093
24000W        W40184  11.389   8.987  12.773 -0.3906 -0.0929 -0.1505
24001W        W40185   7.786   6.850  13.980  0.0656  0.1801 -0.3767
24002W        W40186  16.153   0.621   5.805  0.0248 -0.1764 -0.0555
24003W        W40187  11.537   3.140   1.970  0.1339  0.2556  0.0704
24004W        W40188  13.553  14.617   1.189 -0.1987 -0.2543 -0.1363
24005W        W40189  14.728   5.402  12.376 -0.0518  0.0237  0.0842
24006W        W40190   4.556   1.783   3.658 -0.1074 -0.3346 -0.1252
24007W        W40191  12.902  12.606   4.332  0.3628 -0.3478  0.1504
24008W        W40192   9.775   1.073  11.069  0.0524 -0.2764 -0.2061
24009W        W40193   4.245  11.522   4.516  0.2583  0.0221 -0.2493
24010W        W40194  10.102   3.663  14.916 -0.0506  0.1226  0.1176
24011W        W40195   6.123   7.423   1.852 -0.2263 -0.1462 -0.2361
24012W        W40196  17.925  15.190   2.115 -0.0545  0.3329 -0.1652
24013W        W40197  17.018   0.966  13.586  0.1020  0.2509  0.1039
24014W        W40198  10.955   5.636   4.344  0.2519  0.1512  0.3156
24015W        W40199   0.559   1.171   2.256 -0.0963 -0.1976  0.2973
24016W        W40200   7.446  11.373  10.830 -0.0747 -0.0750  0.0399
24017W        W40201  18.690  17.236  11.832  0.1531  0.0705 -0.0026
24018W        W40202  14.675   3.113  14.049 -0.0020 -0.1458  0.3088
24019W        W40203   0.144   1.914   4.265  0.1101 -0.1680 -0.1596
24020W        W40204  11.009   3.075   2.467  0.1022  0.0483  0.2241
24021W        W40205   9.885   7.078  12.293 -0.1225  0.1560  0.0284
24022W        W40206   6.138   1.244  15.446  0.0721 -0.0989 -0.0608
24023W        W40207  14.554   8.879  11.438 -0.1563 -0.0461 -0.0418
24024W        W40208   5.876  18.103  11.534 -0.0859 -0.1628 -0.0854
24025W        W40209   5.348   8.226  10.970  0.0150  0.2757 -0.3019
24026W        W40210   9.007  17.478   5.562 -0.1258 -0.0876  0.1014
24027W        W40211  18.189  13.780   0.977 -0.0143 -0.1517 -0.0232
24028W        W40212  11.788   3.560  13.637  0.5656  0.5059  0.0307
24029W        W40213  15.707   4.076  13.059  0.2680  0.4986  0.0373
24030W        W40214   5.279  14.333   4.689  0.3516  0.0558  0.1000
24031W        W40215  11.266   7.830  13.272 -0.0637  0.0030 -0.2268
24032W        W40216  13.338  16.785   2.040  0.0548  0.1965  0.0533
24033W        W40217  12.519   7.805   0.359 -0.0526  0.2447 -0.2091
24034W        W40218  14.665   0.359   4.464 -0.3626 -0.2574 -0.0270
24035W        W40219  16.074   5.991   3.238 -0.0907 -0.1895 -0.1113
24036W        W40220  12.405   2.940   1.742 -0.3880  0.1316  0.0332
24037W        W40221  13.806  18.280  14.181 -0.3806 -0.3057 -0.1316
24038W        W40222   4.873   1.893   1.893 -0.1995 -0.4321 -0.0435
24039W        W40223   4.784   1.998   2.788  0.2073 -0.2918 -0.1807
24040W        W40224  12.807   1.652   1.980  0.0267  0.1136  0.2405
24041W        W40225   0.447  16.086   3.835 -0.1372  0.1027 -0.1127
24042W        W40226  17.073  11.454   1.828 -0.0399  0.4088 -0.1263
24043W        W40227   3.441   8.597  14.048  0.1282  0.1277 -0.2305
24044W        W40228   2.452  14.581   4.111  0.1650 -0.2072  0.3020
24045W        W40229   9.160  18.665   4.532 -0.2106 -0.2237  0.1733
24046W        W40230   9.186   2.697   5.917 -0.0103  0.1818  0.0254
24047W        W40231   6.347   8.750   0.779  0.3813  0.0691  0.0519
24048W        W40232   2.087  12.744   5.057  0.2986 -0.1713 -0.2035
24049W        W40233   0.608  16.734  14.904 -0.0381  0.1313  0.2516
24050W        W40234   6.017  17.872   3.698  0.3896  0.1090 -0.0247
24051W        W40235  15.991   9.024  13.554  0.2207  0.2901  0.3044
24052W        W40236   2.850  17.297   1.548  0.1074  0.2809  0.0867
24053W        W40237   7.067   2.308  12.508 -0.3676 -0.2614 -0.1706
24054W        W40238   8.760  17.912   1.338 -0.1530  0.1589  0.0695
24055W        W40239   3.213  17.340  12.893  0.1012 -0.1821 -0.0128
24056W        W40240  12.067  16.967   2.952  0.0606 -0.0253  0.0472
24057W        W40241   5.404  11.890  12.792  0.0455  0.0076  0.0977
24058W        W40242  11.373   7.163  15.388 -0.0655  0.0510  0.1403
24059W        W40243   5.904  12.022  12.759  0.2303 -0.1087 -0.0347
24060W        W40244  14.458  12.737  14.576 -0.1056 -0.1052  0.1820
24061W        W40245   6.890  15.143   0.782 -0.1629 -0.3406  0.0880
24062W        W40246   3.640   1.918   1.341  0.0836  0.3088 -0.0590
24063W        W40247  16.525  11.795  15.294 -0.0687  0.0661  0.0113
24064W        W40248   0.041   0.814   0.784  0.1160 -0.1100 -0.2032
24065W        W40249  11.358  15.880  15.443 -0.1055 -0.0647  0.2070
24066W        W40250   1.895   4.638   4.745  0.1105 -0.0242 -0.0989
24067W        W40251   0.495   1.614  15.055 -0.2390  0.1757  0.0621
24068W        W40252   9.005   4.531  12.229  0.1540  0.0602  0.3451
24069W        W40253  17.473   9.196   5.920  0.1336 -0.0122  0.1734
24070W        W40254   8.714   6.950  13.074  0.2431  0.0443  0.0398
24071W        W40255   1.614   7.226   4.982 -0.2058  0.2352  0.3280
24072W        W40256  15.075   4.646   3.882  0.1762  0.2303  0.1111
24073W        W40257   9.108   4.142  12.542  0.0853  0.0964  0.0488
24074W        W40258   7.283   2.969   0.023 -0.1591 -0.1873  0.2591
24075W        W40259   1.471  13.036   2.354 -0.0910  0.1988 -0.0029
24076W        W40260   1.858  12.181   1.527  0.1228  0.2868  0.1803
24077W        W40261  10.034   5.168  13.359 -0.0124  0.1104  0.0035
24078W        W40262   1.655   2.042   2.978  0.1242  0.4224 -0.2928
24079W        W40263   0.862   9.496  14.006 -0.0574  0.0395  0.2060
24080W        W40264   9.380   6.272  10.551  0.1874  0.1509 -0.0280
24081W        W40265  11.046   0.868  13.602  0.1815 -0.2529 -0.0655
24082W        W40266  17.283  10.321  13.586  0.0719 -0.6255  0.0834
24083W        W40267   8.480   7.485  10.688  0.0492 -0.4025  0.2468
24084W        W40268   9.704   6.697  14.343  0.1201 -0.1713 -0.1519
24085W        W40269  14.163  15.759  13.411  0.2891 -0.0932 -0.1967
24086W        W40270  15.687  16.714  14.163 -0.3689  0.2315 -0.2590
24087W        W40271   2.733   3.024  11.874 -0.0641  0.0963 -0.0163
24088W        W40272  16.750  10.829   4.213 -0.0442  0.1705  0.0827
24089W        W40273   0.282   4.931   2.156 -0.0409  0.0243 -0.0644
24090W        W40274  15.405   2.234   1.828 -0.1398  0.0006 -0.2867
24091W        W40275  16.049   9.141   2.073 -0.1425  0.4846  0.1007
24092W        W40276   1.022   3.531  12.621 -0.0104 -0.3104 -0.2455
24093W        W40277  12.909   1.896   0.596  0.0526 -0.2787 -0.0996
24094W        W40278   9.914   4.012  15.198  0.4097 -0.0719 -0.3504
24095W        W40279   9.871  14.741   4.544 -0.2047  0.0201  0.1028
24096W        W40280   1.103  14.425   0.700 -0.1391  0.0532 -0.1144
24097W        W40281   4.055  13.626  12.483 -0.1766  0.1368  0.1256
24098W        W40282  12.886  14.581   1.041 -0.1889 -0.3505  0.0192
24099W        W40283   7.371  11.608   0.979 -0.3578  0.0065  0.3648
24100W        W40284  12.939   7.412   1.677 -0.1084  0.2871  0.1839
24101W        W40285   0.414  14.557   4.111 -0.0437 -0.0063 -0.0318
24102W        W40286  10.952   1.226   0.816  0.2448 -0.2017  0.0689
24103W        W40287   7.365  10.322   5.376  0.1687 -0.0088 -0.1087
24104W        W40288   4.923   4.583   1.165 -0.1986  0.1045  0.1357
24105W        W40289   1.166  17.452  13.960 -0.0554  0.0329  0.1412
24106W        W40290   5.559   5.148   2.147  0.1045  0.2264  0.0573
24107W        W40291   4.731   3.198  13.557  0.3727  0.1766  0.1364
24108W        W40292  12.715   4.601   5.123 -0.0994 -0.1421  0.4078
24109W        W40293  11.709   0.783  13.968  0.0001  0.0749  0.1219
24110W        W40294   6.420   4.786   0.808 -0.2004 -0.0084  0.2255
24111W        W40295   3.867   5.965   2.489 -0.2545  0.1852 -0.2063
24112W        W40296  10.830   5.904  11.701 -0.1569  0.1128  0.2209
24113W        W40297   3.274   2.012   0.435 -0.0856  0.1686  0.3014
24114W        W40298   3.390   4.966  15.506 -0.2086 -0.0719  0.0807
24115W        W40299   5.627  14.007  14.492  0.1403 -0.1503  0.1745
24116W        W40300  15.061   5.562  12.914 -0.0275  0.2926  0.0283
24117W        W40301   7.873  11.453   0.636  0.1407 -0.0588  0.0382
24118W        W40302   6.664  11.831   5.581  0.3277  0.2870  0.3077
24119W        W40303   8.942  15.270  13.507  0.0747 -0.1475 -0.0086
24120W        W40304   9.046   6.738   9.982 -0.1880 -0.0941  0.0087
24121W        W40305   5.022   5.136   2.358  0.0910 -0.1749 -0.1776
24122W        W40306   5.232   4.110   3.307 -0.1561  0.2371 -0.0248
24123W        W40307  11.807   6.193  11.871  0.0176  0.1104  0.3686
24124W        W40308  11.342  14.377  11.630 -0.0061  0.2058  0.3385
24125W        W40309  14.462  14.035   5.074  0.2438  0.0029  0.1411
24126W        W40310  12.281  16.634   3.287 -0.0984  0.2344  0.1921
24127W        W40311   1.902  10.317  11.273  0.4469  0.0503 -0.0340
24128W        W40312  11.940  10.330  14.587  0.1510  0.0049 -0.1183
24129W        W40313   7.955   9.976   2.975  0.1616 -0.0382 -0.0726
24130W        W40314   4.107  10.208   4.703  0.0374  0.0228 -0.0669
24131W        W40315  10.917   7.744   1.298  0.2051  0.2751 -0.1628
24132W        W40316   6.738  11.918   4.066 -0.1810  0.1217 -0.0426
24133W        W40317   0.013  15.392  12.995  0.2323  0.2470 -0.0923
24134W        W40318  16.721  11.068   2.585  0.1049 -0.1470  0.2477
24135W        W40319  16.155  17.668   4.649  0.0226  0.1791 -0.1209
24136W        W40320  16.217   6.378  11.866 -0.1691  0.2447 -0.1974
24137W        W40321  14.597  16.375  12.094 -0.2649 -0.1562  0.1016
24138W        W40322   0.979  16.529  12.561  0.2236  0.0036 -0.1316
24139W        W40323   3.640  15.705  15.476 -0.1930 -0.2156  0.1632
24140W        W40324   8.328  18.214   5.178 -0.0042 -0.1629 -0.2538
24141W        W40325   3.850  17.113  11.095 -0.1717  0.2067 -0.4199
24142W        W40326   1.217  18.746   4.435  0.1605 -0.2902  0.1290
24143W        W40327  17.358  13.826  12.465 -0.1875 -0.1678  0.0824
24144W        W40328  18.513   3.300   4.932 -0.3114  0.0216  0.1663
24145W        W40329   2.165   0.991  12.986 -0.0468 -0.2200  0.1238
24146W        W40330   5.219   3.692   5.484  0.1149  0.1298  0.3284
24147W        W40331   4.234   6.415  10.617 -0.0237 -0.1200  0.4829
24148W        W40332   9.550  13.671  13.637 -0.0911  0.1964  0.1458
24149W        W40333  16.804   3.637  14.403 -0.1607 -0.2211 -0.0833
24150W        W40334  11.779  14.646   4.415 -0.0645 -0.0627 -0.1500
24151W        W40335   6.595  17.627   4.777  0.1272 -0.0116  0.1374
24152W        W40336  14.145  13.241   4.754  0.0233  0.1320 -0.0714
24153W        W40337  15.812  15.599   4.990 -0.0068  0.0916 -0.0204
24154W        W40338   7.604   9.697  13.437  0.0706 -0.3614  0.3578
24155W        W40339  10.470   0.356   5.263  0.0418  0.2892  0.0804
24156W        W40340  10.178   7.337   0.034  0.2218  0.3198  0.0614
24157W        W40341  11.326   0.552   2.196 -0.3030  0.1069  0.1103
24158W        W40342   8.797  10.457  11.937 -0.2935  0.0095 -0.1246
24159W        W40343   4.463   4.312  11.552 -0.1434 -0.1481 -0.2345
24160W        W40344  13.499   1.405  11.664 -0.4527  0.0045  0.2318
24161W        W40345  18.627   0.380  15.500 -0.0431  0.1057 -0.0918
24162W        W40346  12.772   5.918  13.339  0.1749 -0.2515 -0.0969
24163W        W40347   1.172   2.203  15.383  0.1330 -0.2614  0.0196
24164W        W40348  12.287  10.401   2.470 -0.0935 -0.2042 -0.3479
24165W        W40349  11.447  16.834   4.210 -0.1172  0.3493 -0.0863
24166W        W40350   2.214   9.595  14.560  0.2208  0.3042 -0.1155
24167W        W40351   3.579   8.436   3.911  0.0186 -0.1247  0.0853
24168W        W40352  11.218   6.670   4.400 -0.1046  0.0153 -0.1581
24169W        W40353  16.304  11.157   0.595  0.2850  0.4648 -0.0095
24170W        W40354   0.441   6.592  12.596 -0.0098  0.1186 -0.3694
24171W        W40355  12.446  14.689   3.195 -0.0938 -0.0646 -0.2041
24172W        W40356  12.211  12.125   4.682  0.0430  0.2477 -0.1353
24173W        W40357  14.417  16.947   2.371  0.0011 -0.2684  0.0436
24174W        W40358  18.679  10.140  11.337 -0.0906 -0.3643 -0.0245
24175W        W40359  14.932  13.231   4.356 -0.2654 -0.1036 -0.0134
24176W        W40360   9.209   2.602   0.826  0.1001  0.1522 -0.0437
24177W        W40361   1.151  15.229  14.225 -0.0676 -0.1835  0.1001
24178W        W40362   9.618   4.120  12.691  0.3194 -0.2862 -0.0071
24179W        W40363   1.278  12.985  15.005  0.0538  0.0655 -0.0659
24180W        W40364   6.413  17.999  14.883  0.3941  0.2493 -0.1396
24181W        W40365   3.334   5.064  12.697 -0.2315  0.0287 -0.2496
24182W        W40366   0.623  10.571  11.242 -0.1641 -0.1833 -0.1838
24183W        W40367   8.575   9.506  11.919  0.0196  0.2011  0.2293
24184W        W40368   8.486  18.495   1.444 -0.2251  0.2038  0.1043
24185W        W40369   4.961  18.605   2.126 -0.2878 -0.0993  0.4025
24186W        W40370  11.373   7.729   2.186 -0.0216 -0.3290  0.1169
24187W        W40371  15.736  17.213   1.452 -0.3563 -0.1100  0.6161
24188W        W40372  16.850  12.896   4.529  0.3491  0.0032  0.0327
24189W        W40373   3.068  12.652   3.142 -0.1111  0.1309 -0.0384
24190W        W40374   7.577   8.729  11.384 -0.2469  0.0492 -0.0691
24191W        W40375   6.482  17.257   2.067  0.2331  0.0185 -0.0773
24192W        W40376   2.065   8.064  15.463  0.4117 -0.1435 -0.0206
24193W        W40377   4.394   5.842  15.244 -0.1444  0.1411  0.0383
24194W        W40378  10.404  16.734  14.249 -0.1788  0.2546  0.0117
24195W        W40379   5.147  13.811   1.853  0.0349  0.0773  0.0022
24196W        W40380   4.095   7.868   4.054  0.0027 -0.2053 -0.1622
24197W        W40381   1.853   5.419  15.441 -0.2980 -0.1650 -0.0458
24198W        W40382   1.872   6.995   2.156 -0.0323  0.1264  0.1406
24199W        W40383  17.841  16.139  15.509 -0.3608  0.0808  0.0064
24200W        W40384  12.912  18.662  14.929  0.1438  0.2424 -0.1524
24201W        W40385  16.766   7.025   4.020  0.0560  0.2464 -0.1470
24202W        W40386  14.292  14.481   1.710  0.0604 -0.3649  0.0701
24203W        W40387   5.363  18.223  11.410 -0.0636 -0.3562 -0.2236
24204W        W40388  16.751  16.539  14.865  0.2126  0.1462  0.0206
24205W        W40389  13.839   8.165  15.347 -0.0600 -0.2592 -0.2876
24206W        W40390   0.058  18.482  13.378  0.0935 -0.0144 -0.0826
24207W        W40391  18.116   4.195  14.885  0.1285  0.0095  0.1196
24208W        W40392   0.081   5.370   1.277 -0.0035  0.0072  0.2836
24209W        W40393   1.328   3.064  12.220 -0.2559 -0.1137  0.0647
24210W        W40394   5.632   8.652   0.043  0.1863 -0.2429 -0.0296
24211W        W40395   5.372   9.395  14.440  0.0117 -0.0547 -0.1800
24212W        W40396   3.890   1.449  11.607  0.3311 -0.1875  0.0371
24213W        W40397  16.267  11.358  11.874 -0.0754 -0.1045 -0.0647
24214W        W40398   4.804  12.598   2.490 -0.1411 -0.0506  0.3186
24215W        W40399   8.266   8.468   2.227 -0.2762  0.0343 -0.2085
24216W        W40400   7.660  14.511   5.901  0.2277 -0.0517 -0.0176
24217W        W40401   3.947   5.798  13.759  0.1422  0.0821  0.2149
24218W        W40402   9.454   9.021   3.092 -0.2458 -0.0772 -0.0179
24219W        W40403  17.119  10.239  11.555 -0.0831  0.1572  0.0414
24220W        W40404   5.465   4.735  15.362  0.0347 -0.3998  0.5445
24221W        W40405  10.699   9.146  15.162 -0.1425 -0.1258 -0.2910
24222W        W40406  14.326   7.256   5.402 -0.2296  0.0895 -0.1959
24223W        W40407   3.193  12.655  15.240 -0.0598 -0.2613 -0.1035
24224W        W40408   4.723   4.402   4.000 -0.0259 -0.1527  0.1160
24225W        W40409  14.178  13.595   2.332 -0.1602  0.1118  0.1901
24226W        W40410   6.499   1.020   1.834 -0.0752 -0.0832 -0.0598
24227W        W40411  12.107   4.765   2.505  0.0722  0.0577  0.1994
24228W        W40412   9.484   0.762  11.713  0.2757  0.0969  0.1619
24229W        W40413   2.609  17.686   3.597 -0.0262  0.0266  0.0411
24230W        W40414   1.754   6.702  10.342  0.2227 -0.3607 -0.2062
24231W        W40415   6.089  17.765  12.559  0.0686 -0.0770  0.1455
24232W        W40416   3.758   6.286  14.510  0.0099 -0.1281 -0.0890
24233W        W40417  16.346  18.136   4.546  0.2391 -0.1159  0.0304
24234W        W40418   5.394  13.988   4.332  0.1733 -0.2057 -0.1520
24235W        W40419   2.188   8.865   9.561  0.0979 -0.0811 -0.1697
24236W        W40420   2.017  14.926   2.556 -0.1439 -0.1851 -0.1497
24237W        W40421  11.399   6.541  12.139 -0.1608  0.1421 -0.4300
24238W        W40422   9.765   4.337  14.330 -0.0675 -0.0390 -0.1719
24239W        W40423   7.906   6.462  15.154  0.1366 -0.1987 -0.3533
24240W        W40424  16.054   1.920  12.197 -0.0102 -0.3729 -0.1093
24241W        W40425   3.427   5.116   3.990  0.3613  0.1137 -0.1428
24242W        W40426  18.018  18.061  14.539 -0.4020  0.1894  0.1073
24243W        W40427   4.361   4.090   1.546  0.1744  0.1961  0.0043
24244W        W40428   7.941  11.365  15.245 -0.0098 -0.1297  0.2185
24245W        W40429  17.364   9.530   4.015  0.1077  0.1012  0.0822
24246W        W40430  14.359   7.452  14.519  0.0049  0.2361  0.0177
24247W        W40431  12.796   1.006   2.169  0.0011  0.1868  0.3214
24248W        W40432  10.913  16.630  11.020 -0.0919  0.2538  0.0253
24249W        W40433  15.815  17.035   2.757 -0.1948 -0.2428  0.3303
24250W        W40434  13.109  18.373  12.704 -0.1084  0.0423 -0.0519
24251W        W40435  18.686  13.963  10.890 -0.3040  0.2682 -0.0981
24252W        W40436  17.947  14.391  11.721  0.1709 -0.0490 -0.0494
24253W        W40437   1.931   9.230   3.441 -0.0617 -0.2857 -0.1289
24254W        W40438   2.904   9.953  12.127  0.0234 -0.1277  0.0663
24255W        W40439  14.975   7.094  11.968 -0.0785 -0.0354 -0.1265
24256W        W40440   3.894  10.541  13.883  0.4038  0.1763  0.3019
24257W        W40441   3.194   0.415  15.000 -0.0574 -0.1695  0.1168
24258W        W40442  14.680  10.629  15.102  0.1008 -0.1107  0.1885
24259W        W40443  15.716   2.971  12.169  0.1414 -0.2056 -0.2511
24260W        W40444   1.480   7.608   2.725 -0.1638  0.1905  0.1130
24261W        W40445   1.025  14.202  13.801 -0.2047 -0.0309  0.0849
24262W        W40446   2.587   2.731   2.798 -0.0327 -0.1969 -0.1461
24263W        W40447  17.381   5.062   4.700  0.0724 -0.2869 -0.1535
24264W        W40448   7.735  11.322  12.248  0.2183  0.0419  0.0689
24265W        W40449   4.162  14.940  10.833 -0.1363  0.0856  0.0158
24266W        W40450  10.015  12.033  12.057  0.2640 -0.0314  0.0560
24267W        W40451   0.617  13.750   4.912 -0.0090 -0.0722 -0.0879
24268W        W40452  17.222   3.867   3.300  0.2651 -0.2838  0.0346
24269W        W40453   0.168  14.122  14.990 -0.2468 -0.1869 -0.2296
24270W        W40454   3.388   0.832  13.642  0.2508  0.1091  0.0364
24271W        W40455  16.141  16.778  10.942  0.0671  0.0858 -0.2537
24272W        W40456   5.436  14.668   5.004 -0.3081 -0.1051 -0.2351
24273W        W40457  17.575  12.498  10.182 -0.2558 -0.0290  0.1367
24274W        W40458  18.235   4.937  14.030  0.0696 -0.0705 -0.2444
24275W        W40459   7.073  15.839   3.985 -0.0674 -0.3000 -0.1004
24276W        W40460   9.614  10.389   9.484  0.0142  0.2680  0.0197
24277W        W40461  15.208   0.200   0.467 -0.1103 -0.1736  0.0164
24278W        W40462  10.573   1.100  15.367 -0.0309 -0.1834 -0.5132
24279W        W40463   8.083  13.864   1.731 -0.1520  0.2999  0.1992
24280W        W40464  16.973   2.244  13.610 -0.1429 -0.0194 -0.1090
24281W        W40465   5.168  17.656   4.120  0.1231 -0.2304 -0.6394
24282W        W40466  10.011  17.452  12.521 -0.0768  0.2802 -0.1195
24283W        W40467   8.795  14.855  11.697  0.1379  0.0591 -0.0198
24284W        W40468  12.556   2.308  14.247  0.4094 -0.0266  0.2354
24285W        W40469  11.144  13.884   2.988  0.0509 -0.2199  0.0195
24286W        W40470  13.781  18.417  12.726  0.2311 -0.2179 -0.0700
24287W        W40471  13.227   4.124  11.327  0.3607 -0.0176  0.0987
24288W        W40472   1.477  15.152   3.626 -0.1494  0.0470  0.0376
24289W        W40473   7.903  18.834   4.717  0.2996  0.0479  0.3106
24290W        W40474  13.739  14.608   4.597 -0.2251 -0.1270 -0.0967
24291W        W40475   0.584  18.410   0.690 -0.2029 -0.0725  0.1059
24292W        W40476   7.591   0.216   5.855  0.4054 -0.1619  0.0646
24293W        W40477   2.762  10.088  11.616 -0.2243 -0.0265  0.0540
24294W        W40478  10.084  14.515  11.000 -0.2026 -0.2102 -0.2576
24295W        W40479  13.366   4.544  11.068  0.0958 -0.1120  0.2510
24296W        W40480  11.621  12.097  15.226  0.0853 -0.1021 -0.0395
24297W        W40481   6.769  11.813  12.700 -0.1938 -0.1438 -0.2190
24298W        W40482  14.702   3.478   4.131 -0.1959  0.2899  0.0429
24299W        W40483  18.082   2.220  13.890 -0.0044 -0.3471 -0.0898
24300W        W40484   8.481   8.204   2.668  0.0374  0.0848  0.0005
24301W        W40485  14.926  18.124  13.551 -0.1197  0.3216  0.0310
24302W        W40486   2.036  11.116   2.882  0.0392 -0.1690 -0.0056
24303W        W40487  14.376   0.755  11.605 -0.0853  0.2564 -0.1979
24304W        W40488   1.794  10.051  11.718  0.2639 -0.3049 -0.0374
24305W        W40489  14.155  12.329  15.335  0.0095 -0.2204 -0.2548
24306W        W40490   6.209  18.552   2.811  0.0758  0.2007 -0.0929
24307W        W40491   8.393  18.057   0.497 -0.1593  0.0176 -0.2614
24308W        W40492   0.106  17.212   1.933  0.1613  0.2622 -0.1151
24309W        W40493  12.741  16.685  14.735  0.0171 -0.0980 -0.3488
24310W        W40494   4.008  18.725   4.008 -0.1728  0.0267 -0.1849
24311W        W40495  12.568  15.020   4.135 -0.0416  0.1576 -0.1326
24312W        W40496  18.142  17.733   1.727 -0.0158  0.1917  0.0049
24313W        W40497   1.376  17.408   4.866  0.0559 -0.0794  0.2902
24314W        W40498   0.444   6.138   4.784  0.1954  0.1158  0.0228
24315W        W40499   0.793  14.298  13.298 -0.0950  0.0496 -0.0650
24316W        W40500   7.290   4.834   4.178  0.1046 -0.2640 -0.1180
24317W        W40501   5.629   8.318  11.380  0.2263 -0.1807  0.2164
24318W        W40502  15.814  18.409   5.688  0.0838  0.1506 -0.1889
24319W        W40503  10.446  15.260  11.139  0.1868  0.0075 -0.4112
24320W        W40504   0.634   5.152  11.896  0.0220 -0.1132  0.1984
24321W        W40505   9.805   6.018   1.097  0.0977 -0.2400 -0.2880
24322W        W40506  14.446  10.785   6.042  0.0323  0.1310 -0.0386
24323W        W40507  10.171  15.912   4.031 -0.0882 -0.1775 -0.1942
24324W        W40508  14.961   6.073  13.046  0.1559  0.1129  0.1580
24325W        W40509  15.340  18.527  15.278  0.3499  0.0896 -0.1359
24326W        W40510   6.010   7.457   0.052 -0.0499  0.0259 -0.1998
24327W        W40511  15.340   6.775  12.304  0.0669 -0.0154  0.4804
24328W        W40512   4.345   1.601   1.828  0.0154  0.0727 -0.1704
24329W        W40513   3.614  17.819   0.935  0.3858  0.3844 -0.1487
24330W        W40514  15.398   8.718  14.500 -0.2619  0.0441 -0.0292
24331W        W40515  13.910   8.133   3.623 -0.0742 -0.3183 -0.0671
24332W        W40516   6.449   8.634   4.516  0.0465  0.0013  0.0033
24333W        W40517   7.094   0.491   3.060  0.1750 -0.0345  0.5491
24334W        W40518  10.820   6.074   5.626 -0.3176  0.2074 -0.1493
24335W        W40519  11.933   0.798   4.395  0.1253  0.0787 -0.3269
24336W        W40520   4.382   5.460   1.386 -0.0833 -0.0663  0.0033
24337W        W40521  11.069   2.492  14.002 -0.1154 -0.1805  0.4003
24338W        W40522  17.743  17.783   5.138 -0.1845 -0.1023 -0.0237
24339W        W40523  14.440   2.436   4.519  0.0275 -0.1568  0.0605
24340W        W40524   1.169  17.979  10.463 -0.0870 -0.0656  0.0295
24341W        W40525   0.058   0.002   1.352  0.0328  0.0889 -0.1607
24342W        W40526   4.139  17.561   0.201  0.0968 -0.2450 -0.0101
24343W        W40527   0.538   8.029   1.793  0.1077 -0.1314 -0.0370
24344W        W40528   5.448  14.342   2.588 -0.1382  0.1526 -0.1349
24345W        W40529  11.737   2.907   5.329 -0.0001  0.1541  0.1892
24346W        W40530   9.676  17.794  12.317 -0.0256  0.2186 -0.0667
24347W        W40531  14.489   4.026   0.572 -0.1531  0.1623 -0.0449
24348W        W40532   6.956  13.047  15.520  0.0494 -0.0710  0.1508
24349W        W40533  12.619  11.752   5.898  0.1025 -0.0285 -0.0751
24350W        W40534  12.489  12.928   0.332 -0.1942  0.0306 -0.2206
24351W        W40535   6.760  18.269   3.979 -0.1002 -0.4099 -0.1724
24352W        W40536   4.456   2.223  14.637 -0.1125 -0.3227 -0.0736
24353W        W40537   8.059  14.434  14.524  0.1499 -0.1756  0.3950
24354W        W40538   3.733   2.013  12.594 -0.1532  0.2919  0.0430
24355W        W40539   0.400   0.052  11.444  0.3140  0.3572 -0.1753
24356W        W40540  14.863  16.583  14.488  0.0577 -0.2508  0.1348
24357W        W40541  12.555   3.334  11.418 -0.2501  0.1808 -0.0116
24358W        W40542   4.533   3.180  12.175  0.1895 -0.0430 -0.0299
24359W        W40543  10.601  13.315  11.422  0.1078  0.0003  0.0045
24360W        W40544   3.196  15.258   1.805  0.2504  0.1773 -0.3756
24361W        W40545  15.669   2.801  11.299  0.0850  0.1262  0.0903
24362W        W40546  15.984   1.439   4.435  0.0705 -0.1260  0.1765
24363W        W40547   8.176  17.099  11.928  0.0938  0.1760  0.1060
24364W        W40548   4.636   1.197  13.247 -0.0101 -0.1477  0.2751
24365W        W40549   0.053  17.243   3.605  0.2391 -0.0843 -0.0805
24366W        W40550  11.578  12.459   0.200 -0.1580  0.0036 -0.2036
24367W        W40551   4.529  12.333  14.272  0.0111  0.0835 -0.2753
24368W        W40552  13.180   5.306  12.003 -0.0322  0.1093 -0.1213
24369W        W40553  11.599  17.645   1.955  0.0321 -0.2509  0.0374
24370W        W40554  13.132   4.617   4.007 -0.2260  0.2005 -0.2428
24371W        W40555   1.364  11.467  14.369  0.1167  0.1017 -0.0816
24372W        W40556   8.189   3.846  13.058  0.1282  0.2295  0.0311
24373W        W40557  15.244   4.710   1.397 -0.0695  0.2420  0.1535
24374W        W40558   7.715  10.988   1.810  0.1445 -0.1085 -0.4533
24375W        W40559   8.394   4.343  14.706 -0.0135  0.0049 -0.0942
24376W        W40560  12.976   5.778  13.761  0.0553  0.1827  0.0809
24377W        W40561  11.468   2.614   1.755  0.0954  0.0626 -0.0644
24378W        W40562   5.935   3.733   2.931  0.0547  0.1219  0.2897
24379W        W40563  13.921   9.253  15.482 -0.1176  0.1126 -0.0126
24380W        W40564  13.135  11.441   0.488 -0.0023 -0.3378  0.2004
24381W        W40565  16.977  14.466   0.354 -0.2593 -0.0919  0.0422
24382W        W40566  15.794  11.732  13.417 -0.1237  0.3708  0.2768
24383W        W40567  17.657   1.195  15.038 -0.0909  0.1295 -0.0022
24384W        W40568   0.519   6.812  11.728  0.1056 -0.5075  0.1761
24385W        W40569  17.202   7.121   1.703  0.0332 -0.0308 -0.2424
24386W        W40570  14.290   4.286   2.967  0.0599 -0.2430 -0.0086
24387W        W40571   3.405  16.169   5.411 -0.2052  0.1837 -0.0809
24388W        W40572  13.954   5.133   4.150 -0.0767 -0.0303 -0.1228
24389W        W40573   7.067   5.922   1.687 -0.0453 -0.2911  0.4397
24390W        W40574   0.442  13.733  12.618 -0.0121  0.0392  0.1876
24391W        W40575   9.952  11.492  12.226 -0.0063  0.0122 -0.1366
24392W        W40576   5.798  11.467  12.354 -0.1885  0.0075 -0.2448
24393W        W40577   9.469   5.768   0.788 -0.1001 -0.1227 -0.0967
24394W        W40578   8.306  13.461  14.772  0.2730 -0.1035 -0.0615
24395W        W40579   9.384   2.993   3.352  0.0530  0.1597  0.0612
24396W        W40580   8.872   2.374   2.426  0.1209  0.0974 -0.1078
24397W        W40581   7.124   1.573  15.315  0.2139  0.2888 -0.4088
24398W        W40582  10.472  14.107   5.080 -0.4758  0.2325  0.3651
24399W        W40583   8.713   3.969  14.803  0.1804 -0.1632 -0.1455
24400W        W40584   6.100   8.313  14.903 -0.1508 -0.0758 -0.0205
24401W        W40585   4.378   5.078   5.162  0.0133 -0.3990  0.0108
24402W        W40586   0.178   2.344  11.037  0.1319 -0.5221 -0.2202
24403W        W40587   2.737   4.261   3.817  0.1275  0.3747  0.0079
24404W        W40588   3.344   1.304   1.230  0.0760  0.1071 -0.0441
24405W        W40589  14.529  10.168  14.364  0.1656 -0.2221  0.0099
24406W        W40590   3.395  11.081  13.806  0.3500  0.1407 -0.2495
24407W        W40591  17.289   3.320   1.554 -0.3047  0.2811 -0.2725
24408W        W40592  17.711  13.864   2.150  0.0858  0.0564  0.2347
24409W        W40593  14.125   3.328   1.346 -0.1569  0.5351  0.2349
24410W        W40594  16.348  14.226  10.622 -0.2306 -0.2781 -0.0182
24411W        W40595   7.702   3.909   4.539  0.2521  0.0187 -0.1604
24412W        W40596  11.954  18.436  13.329 -0.2647 -0.1112  0.0771
24413W        W40597  17.646  17.877   1.685  0.0033  0.0700  0.1269
24414W        W40598  10.679  14.958   3.361  0.4298 -0.0842 -0.1216
24415W        W40599  13.802  16.364   9.696  0.1256  0.2879  0.0811
24416W        W40600   7.507  13.174  12.138  0.2606 -0.3351 -0.1396
24417W        W40601   4.844   4.039  10.313  0.4178 -0.1705  0.0388
24418W        W40602  15.478   5.093  15.429  0.0457 -0.1891  0.0297
24419W        W40603  15.328   5.436  14.946 -0.1753 -0.1170  0.0258
24420W        W40604   6.822   1.393   2.100 -0.1826  0.0436  0.1291
24421W        W40605   5.111  17.974  12.333 -0.2520 -0.3162 -0.1587
24422W        W40606  10.171   4.298   6.191  0.0226 -0.1447  0.2915
24423W        W40607  11.949   9.876  14.954 -0.2752 -0.0084  0.1484
24424W        W40608  14.516  11.535  15.137 -0.2414  0.2131  0.0089
24425W        W40609   4.706  18.593  10.586  0.0831 -0.0248  0.3946
24426W        W40610  16.497   2.171   1.561 -0.2015  0.2268  0.1030
24427W        W40611  13.686   5.898  11.504 -0.0543  0.0551 -0.0520
24428W        W40612   0.313  15.634   2.868  0.1068 -0.1278 -0.0177
24429W        W40613   7.427  17.596  11.729  0.1803  0.1770  0.0975
24430W        W40614  17.546   9.915  13.197  0.1541 -0.0767  0.0772
24431W        W40615   2.831   3.311   1.977 -0.1489 -0.1879 -0.2245
24432W        W40616   2.532   2.743  13.148 -0.2535 -0.0988 -0.2408
24433W        W40617  10.097  14.880  11.853 -0.2031  0.1896 -0.0853
24434W        W40618  17.079   1.667   3.168  0.0270 -0.1679  0.0228
24435W        W40619   1.551   2.318   5.090  0.2294 -0.0536  0.1523
24436W        W40620   2.862   1.364  14.957  0.3454 -0.2758 -0.0828
24437W        W40621  12.695   5.568   3.699  0.5426 -0.1040 -0.1800
24438W        W40622   8.974   5.434   3.851  0.0662  0.2249 -0.3716
24439W        W40623   2.433   7.897  15.107  0.1848  0.0721 -0.1838
24440W        W40624   4.607   5.457   0.027  0.3131 -0.1349  0.1342
24441W        W40625  11.093   8.030  15.024  0.1764 -0.0344  0.0154
24442W        W40626  17.209  14.760  12.693 -0.1714  0.1132 -0.0857
24443W        W40627  14.733   2.112  15.133  0.0356  0.2402 -0.0683
24444W        W40628  10.240  16.548  13.729 -0.0532 -0.1802 -0.2837
24445W        W40629  14.314  14.414   0.230 -0.2389  0.2754 -0.0339
24446W        W40630  18.536   7.634   5.161 -0.3419 -0.0036  0.2739
24447W        W40631  14.301   8.182  13.609  0.1278 -0.0106 -0.2086
24448W        W40632  16.239   5.910  13.604 -0.0766 -0.1910  0.2269
24449W        W40633   0.079   6.241  12.814 -0.2681 -0.0812 -0.1118
24450W        W40634   4.798   4.860   3.638  0.1269  0.3388  0.1453
24451W        W40635   8.098  10.662   0.018 -0.2925  0.1207  0.1308
24452W        W40636   5.338   1.593  12.066 -0.0278  0.1719 -0.2345
24453W        W40637  13.992   4.692   4.422 -0.0776  0.1365 -0.1073
24454W        W40638   3.160  16.052   4.225  0.0834 -0.1465 -0.0474
24455W        W40639   3.655  10.829  14.310 -0.2164  0.1136 -0.1195
24456W        W40640   2.616  12.398  15.288  0.1281 -0.0046  0.1960
24457W        W40641  17.761   2.002   0.804  0.0208 -0.2337 -0.1066
24458W        W40642   6.314   6.584  14.972 -0.0532 -0.0918 -0.1136
24459W        W40643   3.002   2.122   4.286 -0.1628 -0.1015  0.0885
24460W        W40644  14.425   1.038   2.660  0.2242  0.2237 -0.2600
24461W        W40645  15.066  14.043  14.946 -0.0827  0.0181 -0.0174
24462W        W40646   7.202   7.868   5.290  0.1977  0.1026 -0.2004
24463W        W40647   1.766  17.605  14.860  0.2565  0.4835 -0.1065
24464W        W40648   7.057  18.571   5.151 -0.3219  0.2055  0.1807
24465W        W40649  16.699  10.267   9.861 -0.4517  0.2122 -0.0318
24466W        W40650  17.104   9.029  14.714  0.3400 -0.1203  0.3009
24467W        W40651   5.668  17.624  14.256 -0.0011  0.0551 -0.0614
24468W        W40652  12.718  15.753   3.495  0.2522 -0.1197 -0.4243
24469W        W40653  18.166  17.100  15.408  0.1506 -0.0585  0.1301
24470W        W40654   7.820   2.320   4.170  0.2086 -0.3420 -0.1858
24471W        W40655  12.079   1.507   0.616  0.4225 -0.1555  0.0172
24472W        W40656   9.338   5.745  14.181 -0.1536  0.0072  0.0971
24473W        W40657   1.299  15.079   2.036  0.2557 -0.0583 -0.1363
24474W        W40658   5.021  18.616   3.639  0.1432 -0.0132  0.3263
24475W        W40659  10.070   8.655   2.440 -0.2187  0.2066  0.2396
24476W        W40660   6.274   4.117  12.092  0.0252 -0.5132 -0.0571
24477W        W40661   0.761  16.595  15.399  0.3053 -0.1957  0.0283
24478W        W40662  18.737  14.096  14.145  0.0879  0.0537 -0.1140
24479W        W40663  15.735   9.470  12.182  0.0079  0.0481 -0.1448
24480W        W40664  15.770  12.090   0.199  0.0712 -0.1544  0.0222
24481W        W40665   8.330  16.942   0.058  0.0672 -0.0528 -0.2785
24482W        W40666   4.059   1.918  14.854  0.1822 -0.2234 -0.1697
24483W        W40667   2.046   1.713  11.733  0.2032 -0.0839 -0.0031
24484W        W40668   1.840   8.369  13.039 -0.1386  0.1393  0.1039
24485W        W40669  18.730  14.548   3.970 -0.1341 -0.0401  0.0887
24486W        W40670   2.125   5.499  14.988 -0.0618 -0.0716  0.0968
24487W        W40671   0.691  18.430  11.467  0.2180 -0.1962  0.0137
24488W        W40672   7.629   0.189  13.336 -0.0125  0.0005 -0.1228
24489W        W40673  14.972  11.034  12.319  0.1516  0.3564 -0.0457
24490W        W40674  11.893  16.734   3.993 -0.0899  0.2122  0.0618
24491W        W40675   1.357  14.727   0.241  0.2834  0.1612  0.0122
24492W        W40676  13.330   7.576   0.711  0.0950 -0.0143 -0.1808
24493W        W40677  13.044   3.083  15.053 -0.2175  0.1006  0.2520
24494W        W40678   2.831   3.879   4.567  0.1688  0.1158 -0.2458
24495W        W40679  12.370  10.737   4.895  0.2417  0.0130 -0.0812
24496W        W40680   9.899   7.627   4.710 -0.0388 -0.2333  0.3541
24497W        W40681  12.810  10.978  14.791 -0.1832  0.2241  0.1435
24498W        W40682   1.997  16.714  12.724  0.1955  0.1457 -0.2964
24499W        W40683   1.841  13.333  12.761 -0.0023 -0.0721  0.2985
24500W        W40684   5.839   0.452  14.898 -0.3762  0.0978 -0.1881
24501W        W40685   6.469   5.637  10.813  0.1742  0.3161  0.0845
24502W        W40686  13.356  18.838   0.184  0.0791  0.1734 -0.2767
24503W        W40687   0.966   0.080   3.048 -0.2811  0.0741 -0.3153
24504W        W40688   8.365   6.083   4.696 -0.1701 -0.0458 -0.2074
24505W        W40689   0.954   1.609  15.365 -0.1242  0.0800 -0.0606
24506W        W40690   2.683   5.297  12.599 -0.0655 -0.1300  0.1744
24507W        W40691  13.676   1.676   1.639 -0.2539  0.1549  0.1914
24508W        W40692   4.215   5.175   0.337  0.1645 -0.1816  0.0553
24509W        W40693  12.648  17.119   2.198 -0.0215  0.2979 -0.0622
24510W        W40694   6.736  14.806  12.731 -0.0790  0.0978 -0.0097
24511W        W40695   9.705  12.595  12.877  0.0825  0.3996 -0.1312
24512W        W40696  18.279   5.166  12.541 -0.2335 -0.2601  0.3598
24513W        W40697  18.199   9.840  11.175 -0.2479  0.0953  0.1501
24514W        W40698  17.407   8.529  11.110  0.2641  0.0884  0.0248
24515W        W40699  10.892   0.006  11.330  0.0404 -0.0117  0.0195
24516W        W40700   0.198   7.660  11.416  0.1326  0.3138 -0.0972
24517W        W40701   9.195  14.628  13.070  0.2188 -0.2125  0.2460
24518W        W40702  12.556  13.013   1.530 -0.1994 -0.3076  0.2285
24519W        W40703   1.104  11.481   0.684  0.1064 -0.3656 -0.1414
24520W        W40704   0.121  12.849  10.831  0.0507  0.0929  0.1041
24521W        W40705   8.777  13.719   1.295 -0.1468  0.1023  0.0689
24522W        W40706  16.853  11.351   4.389 -0.0981  0.1786 -0.3430
24523W        W40707  10.836   3.282  13.279 -0.1968 -0.0739 -0.1253
24524W        W40708  14.028   4.373  11.743 -0.0024  0.1163  0.1220
24525W        W40709  18.631   2.810   2.674 -0.1508  0.1209 -0.1389
24526W        W40710   0.095  16.705  12.547 -0.0825 -0.0188  0.0538
24527W        W40711  11.045   1.582   2.293 -0.5775 -0.2671 -0.4299
24528W        W40712   7.999   8.279  10.524 -0.2419  0.0380  0.0734
24529W        W40713  16.187  13.652   2.471 -0.1266 -0.3036 -0.1815
24530W        W40714  17.597   4.187   3.126 -0.1662 -0.1809  0.0259
24531W        W40715   5.922  10.086  11.983  0.2995  0.1240  0.0590
24532W        W40716  10.395  17.257  10.849  0.3809 -0.1088  0.2044
24533W        W40717   1.169  12.377  14.191  0.5167  0.0618 -0.2967
24534W        W40718   7.994   7.005   0.717 -0.0641  0.0671 -0.0315
24535W        W40719  14.251   4.921  11.283  0.0794 -0.1447  0.0462
24536W        W40720   3.479   9.750  12.123  0.0337 -0.0224  0.0332
24537W        W40721  15.700  13.336   4.940  0.1229 -0.1373 -0.2262
24538W        W40722   5.742   0.707  12.707 -0.4466 -0.0713 -0.1984
24539W        W40723   5.624  17.150  14.675  0.2634  0.0919 -0.1598
24540W        W40724  11.199   0.123   4.973 -0.2938 -0.2304 -0.0309
24541W        W40725   6.063   4.523   4.718 -0.0969  0.2556  0.2887
24542W        W40726   6.100  14.408   3.773 -0.2393  0.0661 -0.0772
24543W        W40727   3.864   3.092   3.623  0.2232  0.1695  0.2158
24544W        W40728  10.931  10.362  13.078 -0.0848  0.2329  0.0508
24545W        W40729   1.997  17.193  12.523  0.0366  0.0344 -0.1862
24546W        W40730   8.904   8.608   0.664  0.0283 -0.1355  0.0143
24547W        W40731   6.278   6.152   3.923 -0.4473  0.0689 -0.2628
24548W        W40732   7.207  16.832  13.937 -0.3272  0.1293 -0.0837
24549W        W40733   7.228   0.568   2.510 -0.0552  0.2441  0.0154
24550W        W40734  16.131   5.035   5.308  0.0104  0.3119  0.1812
24551W        W40735   7.308   8.067  15.431 -0.2455  0.3813 -0.0309
24552W        W40736   6.044  12.829   0.142 -0.2875  0.2182 -0.1625
24553W        W40737   7.332  12.785   1.815  0.0560 -0.1624 -0.0260
24554W        W40738  11.080   6.769   2.121  0.1765 -0.1131  0.3946
24555W        W40739   2.842  17.162  12.541 -0.2650  0.0473 -0.1803
24556W        W40740   9.831   6.894   4.430 -0.1231 -0.0845  0.0152
24557W        W40741  15.157   8.182  15.253 -0.0459  0.0958 -0.0898
24558W        W40742  13.486  12.223   3.412 -0.1109 -0.0035 -0.0046
24559W        W40743  11.855   3.932  10.941  0.1635  0.1814  0.0162
24560W        W40744  11.432  10.741  13.560  0.1195 -0.1336 -0.0800
24561W        W40745   0.350   7.982   5.259 -0.1901  0.2871 -0.1290
24562W        W40746  16.597  18.114   2.866 -0.3537 -0.3069  0.0049
24563W        W40747  18.339  16.866  13.941  0.5246 -0.2369  0.1153
24564W        W40748   1.435   9.970   0.129  0.0066 -0.0000  0.0729
24565W        W40749   6.056  13.274  11.392  0.1598  0.1392  0.4072
24566W        W40750   4.979   9.297  12.869  0.0752  0.0694  0.0552
24567W        W40751   6.638  11.943   3.010 -0.3258  0.0838 -0.2646
24568W        W40752   5.703  15.287  11.633  0.0071  0.1960 -0.3018
24569W        W40753  18.440   1.251   3.902 -0.1976  0.1407 -0.2186
24570W        W40754  18.823  16.335  12.076  0.1092  0.2213  0.2331
24571W        W40755   8.401  17.117  10.443 -0.0026 -0.0375 -0.3514
24572W        W40756  17.456  13.508   4.949  0.2759 -0.1188  0.1233
24573W        W40757  11.441  17.861   0.206  0.2115 -0.1684  0.2658
24574W        W40758  12.679  11.071  14.251  0.0339  0.0529  0.1117
24575W        W40759  16.737   1.926  11.599  0.3061  0.1104 -0.0809
24576W        W40760  18.354  11.463  12.680  0.0116 -0.0311  0.3564
24577W        W40761   8.352   0.802   3.259 -0.1412  0.0596 -0.2205
24578W        W40762   6.835   2.616  13.296 -0.0121 -0.1806  0.0038
24579W        W40763  17.857  17.050   5.089  0.0932  0.1304 -0.0398
24580W        W40764  11.659   4.782   1.332  0.0296  0.3102  0.3537
24581W        W40765  15.728  10.505  12.017  0.4227  0.2265 -0.2383
24582W        W40766   4.557   0.810  15.081 -0.2131  0.0831 -0.0736
24583W        W40767   3.828   3.872   0.286  0.0256 -0.0868  0.0674
24584W        W40768  15.465  17.965   3.600 -0.1957  0.2958 -0.0800
24585W        W40769   3.088  14.858  11.951 -0.1738 -0.1708 -0.0607
24586W        W40770  12.668  17.288  15.487  0.3209 -0.0335 -0.0896
24587W        W40771   1.296   1.451  13.933 -0.3318 -0.0392 -0.0503
24588W        W40772  18.592  14.761  11.209 -0.2428  0.0203 -0.1812
24589W        W40773  11.284  10.972   3.880  0.1793  0.1987 -0.2411
24590W        W40774   0.217   1.211   3.604 -0.0104  0.0794 -0.1942
24591W        W40775  12.774  10.184  10.348  0.1903  0.1579  0.4555
24592W        W40776   1.124   2.558  11.290  0.4778  0.1096  0.1002
24593W        W40777   9.256   5.823  13.184  0.3674 -0.1352  0.0781
24594W        W40778  13.299  16.667  13.043  0.1211 -0.1186  0.0637
24595W        W40779  16.120   6.620  10.859  0.0067  0.0690 -0.0306
24596W        W40780  13.567   6.288   0.725 -0.3713 -0.2738  0.0731
24597W        W40781   6.941  12.575  11.426  0.0383 -0.0638  0.2958
24598W        W40782  14.452   2.407   2.580  0.2530  0.3624 -0.1295
24599W        W40783   3.004  14.950  10.740 -0.0367  0.0436 -0.4213
24600W        W40784  17.373   6.195   3.306  0.4112 -0.2590 -0.1100
24601W        W40785  13.852   7.453   0.582  0.0673 -0.0415  0.1828
24602W        W40786  10.905   3.356   3.341  0.0880  0.2758  0.3166
24603W        W40787   6.449  18.160  10.855  0.2356 -0.3898  0.1623
24604W        W40788  13.673   6.440   1.570  0.1062 -0.0758  0.3507
24605W        W40789   5.847   2.847  12.384  0.0247 -0.0007 -0.2593
24606W        W40790  14.035  14.763   0.435  0.2783  0.1173  0.2024
24607W        W40791  12.531   9.430  13.697  0.1764  0.0280  0.0005
24608W        W40792   5.073   9.173   4.449 -0.1298  0.0054  0.1671
24609W        W40793   7.857   9.816  10.514 -0.1059 -0.2180  0.4018
24610W        W40794  15.140  18.370  13.942  0.2419 -0.0909  0.2070
24611W        W40795   2.079   0.282  14.040 -0.1425  0.1198  0.0802
24612W        W40796   5.891  12.513   1.073 -0.2544  0.0027 -0.2108
24613W        W40797  11.735  15.702  11.901  0.2084 -0.0860 -0.3082
24614W        W40798   2.983   4.202   1.715  0.1533  0.2864 -0.0442
24615W        W40799  17.564  15.477  13.283  0.0735 -0.2312 -0.1182
24616W        W40800   8.764  11.700  13.039 -0.2792  0.0769  0.4554
24617W        W40801  16.543   2.702   3.345  0.1177  0.0223 -0.2709
24618W        W40802  14.008  12.960  14.767 -0.0207 -0.0707  0.3123
24619W        W40803   3.670  17.395   0.603  0.4158  0.0748  0.1915
24620W        W40804   9.004  15.992   2.385  0.3315 -0.2861  0.1259
24621W        W40805  15.446  16.181  15.104  0.0489 -0.0106 -0.1432
24622W        W40806  14.071   8.775  14.668  0.1954 -0.0083 -0.2508
24623W        W40807   5.121   6.790  11.425  0.1757  0.0505  0.1158
24624W        W40808  15.926   5.732  13.216 -0.0878 -0.2357  0.1976
24625W        W40809   2.073  13.127   0.926  0.1247  0.1984  0.0085
24626W        W40810  11.853  11.639   3.650  0.1053  0.3069  0.0665
24627W        W40811  17.018   4.329  11.062 -0.0742 -0.0108 -0.0264
24628W        W40812   7.747  12.436   0.378 -0.1142 -0.3249 -0.0788
24629W        W40813   6.488   6.944  11.587 -0.1655  0.0053  0.3133
24630W        W40814   8.057   0.283   4.223  0.1043 -0.3185  0.1901
24631W        W40815   4.858   6.736   0.673  0.1026 -0.1388 -0.0941
24632W        W40816   8.299   0.217   0.591 -0.2652  0.3387 -0.1609
24633W        W40817  12.607  11.566  11.718  0.1091  0.1260 -0.0153
24634W        W40818  15.560  14.573   1.097  0.0494 -0.1446 -0.1953
24635W        W40819  18.577  11.810  10.012 -0.0687  0.1958  0.0489
24636W        W40820   4.532  13.516  14.223 -0.1118  0.0735  0.0382
24637W        W40821   1.946   2.714   1.516  0.1770 -0.0114  0.0967
24638W        W40822  13.957   5.705   0.191 -0.1736  0.2316 -0.3052
24639W        W40823   8.377   1.324  13.486  0.0149  0.1857  0.1326
24640W        W40824   6.190  17.777  14.329  0.0614 -0.0306 -0.0031
24641W        W40825   6.624  17.023   3.326  0.1049  0.0497 -0.1923
24642W        W40826   1.635   1.140   3.208  0.1868  0.1821  0.1399
24643W        W40827  13.435  17.843  14.020  0.1725  0.1055  0.2032
24644W        W40828  16.435   2.462  15.281  0.1966  0.1889 -0.1624
24645W        W40829  11.116   5.528   2.266 -0.1001  0.2645 -0.2650
24646W        W40830  14.658   9.880  10.298 -0.0928 -0.1014 -0.2065
24647W        W40831  11.836   9.601  12.403  0.2906  0.1657 -0.0090
24648W        W40832  11.864   1.279  11.218  0.1824 -0.3238 -0.1054
24649W        W40833  12.718   6.850  13.240 -0.0204 -0.2189 -0.0788
24650W        W40834  18.752  13.796  12.758 -0.1347 -0.4745  0.0226
24651W        W40835  16.889   5.089   2.597  0.1679 -0.2904 -0.0394
24652W        W40836   0.158  14.709   2.563 -0.4990  0.1335 -0.1936
24653W        W40837  11.110  11.591  14.630 -0.1778 -0.0644  0.1423
24654W        W40838   9.709  12.095  15.271  0.0944 -0.0449 -0.0502
24655W        W40839  14.926  11.588  10.346  0.2721  0.0625  0.1152
24656W        W40840   2.417   4.971  12.199  0.1926 -0.1676 -0.0837
24657W        W40841  14.446   4.704  13.608 -0.2875  0.2001 -0.0421
24658W        W40842  11.663  13.519   2.387  0.1111 -0.3123  0.1431
24659W        W40843  17.010   5.167  11.901 -0.3158  0.0541  0.0895
24660W        W40844   8.804  14.392   0.711  0.0570  0.3140  0.0465
24661W        W40845   7.772  13.963  13.810 -0.1233 -0.1985 -0.3134
24662W        W40846  18.836  14.872  11.690 -0.0776 -0.1301 -0.2639
24663W        W40847  14.235  16.996  13.144  0.0641  0.2085  0.1381
24664W        W40848   9.924   4.574  12.593 -0.1343 -0.0733  0.0504
24665W        W40849  15.956   4.758  12.685  0.0052  0.3572  0.1096
24666W        W40850   1.244   9.126  14.109  0.1521 -0.3680 -0.3023
24667W        W40851  14.269   4.585   1.286 -0.0105  0.2827 -0.0867
24668W        W40852   2.010  16.466   0.238 -0.1955 -0.0584 -0.0934
24669W        W40853  15.091   7.611   1.008 -0.0068  0.2066  0.3177
24670W        W40854  11.443  15.883  12.323  0.0875 -0.2759  0.0642
24671W        W40855   0.917  11.659   3.573 -0.2610 -0.0481 -0.2687
24672W        W40856   9.901  10.625  15.463 -0.1304  0.0969 -0.0476
24673W        W40857  13.661  18.257   6.071  0.2924  0.1218 -0.1113
24674W        W40858   1.462   4.516   4.965 -0.1621 -0.0557 -0.2277
24675W        W40859   9.448  10.818  15.532 -0.0707  0.0548 -0.3024
24676W        W40860  18.284   3.536  11.286  0.3036 -0.0144 -0.0096
24677W        W40861   5.635  13.676  12.521  0.0569 -0.0338  0.0465
24678W        W40862  18.181   2.972  13.067 -0.1361  0.0254  0.0304
24679W        W40863  18.730  12.822   0.789 -0.0777  0.1342 -0.2103
24680W        W40864  13.644   6.274   2.022 -0.0568 -0.1251 -0.3268
24681W        W40865   4.654  14.866  11.320  0.0855  0.0514 -0.0653
24682W        W40866   6.137   9.424   2.334  0.3624 -0.3033  0.2512
24683W        W40867   7.783  13.116   5.617  0.1201 -0.2163  0.0172
24684W        W40868   5.571  17.783   4.427  0.1326 -0.1366 -0.0964
24685W        W40869  15.029  12.637  12.462 -0.0456 -0.1674  0.0798
24686W        W40870   7.392   1.849   1.796 -0.0571  0.2412 -0.2337
24687W        W40871   3.740   9.119   1.468 -0.1827 -0.0946  0.3389
24688W        W40872   7.183  13.132  13.873 -0.0046  0.0765 -0.3322
24689W        W40873  16.617   0.309   1.520  0.0088 -0.0024  0.0201
24690W        W40874   4.032   3.450  14.684  0.2532  0.1233 -0.4580
24691W        W40875   2.818  15.657  11.455 -0.2113  0.1494  0.2736
24692W        W40876  14.965   2.650   0.964 -0.1665  0.0500  0.2684
24693W        W40877  15.847   7.788   0.371  0.0802 -0.1486  0.1547
24694W        W40878   6.386   4.689  14.384  0.0695 -0.1381 -0.1188
24695W        W40879  18.749  13.128  12.710 -0.0127 -0.0892 -0.1592
24696W        W40880  12.816  14.089   0.337 -0.0546 -0.0330 -0.1311
24697W        W40881  11.578  13.811  14.940  0.0058  0.5377 -0.2201
24698W        W40882  17.889   3.167   0.303  0.2730 -0.1450  0.2345
24699W        W40883   8.713  18.479   5.942 -0.1219  0.0020  0.3034
24700W        W40884  14.902  14.270   4.128  0.0087 -0.1531 -0.0231
24701W        W40885   1.117   8.022   2.511 -0.2179  0.1018 -0.1157
24702W        W40886   2.765  11.716  10.549  0.1395 -0.0044 -0.0457
24703W        W40887  15.438   5.786   2.254 -0.1112  0.0115 -0.1924
24704W        W40888   6.491   3.300   3.440 -0.1491 -0.0661 -0.3108
24705W        W40889   8.264   5.857   2.008 -0.1554  0.0062 -0.3284
24706W        W40890   6.213  12.265   9.889 -0.0980 -0.0103 -0.2820
24707W        W40891  11.121  13.266   5.130  0.1042 -0.1767 -0.0780
24708W        W40892  18.627   1.780   3.860 -0.3400  0.1205 -0.2413
24709W        W40893   0.860  10.264   1.867 -0.2401 -0.0902  0.0488
24710W        W40894   2.720   5.261   1.222 -0.0756 -0.2664  0.1237
24711W        W40895   9.047  11.158   4.646 -0.0005  0.1388  0.0113
24712W        W40896   9.295   1.708   0.627 -0.1083 -0.0370 -0.0715
24713W        W40897  13.147  12.449   4.705 -0.1702  0.0701 -0.2065
24714W        W40898  14.505   2.378   1.160  0.3285 -0.3213  0.1533
24715W        W40899   3.702  16.421   0.339 -0.2890  0.0454 -0.2365
24716W        W40900   2.000  12.641   0.758  0.2749 -0.1020  0.0797
24717W        W40901   3.278   4.267  12.669  0.0487  0.1140 -0.0907
24718W        W40902   3.999  14.470   0.134  0.0401 -0.1069 -0.0938
24719W        W40903   8.554   8.301  14.996  0.0785  0.3623 -0.1068
24720W        W40904   8.143   7.543  13.106 -0.2010 -0.3909 -0.2571
24721W        W40905   4.805  10.255   4.252 -0.1741  0.0407 -0.1148
24722W        W40906  10.209   8.160  11.763  0.2278 -0.1655 -0.1608
24723W        W40907  18.460  15.623  11.601 -0.0270  0.1786 -0.1806
24724W        W40908  14.283  14.093  12.088  0.3822 -0.0592 -0.0015
24725W        W40909  17.770  17.642  13.716  0.2119 -0.1243  0.0902
24726W        W40910   8.292   6.998  15.340 -0.3810  0.2181  0.0044
24727W        W40911   7.127  18.597   4.323 -0.2856 -0.0107 -0.0843
24728W        W40912  16.906  11.259   5.191  0.0358 -0.1250  0.4594
24729W        W40913   0.469  12.797  15.391  0.1790 -0.2577 -0.2447
24730W        W40914  13.579  13.406  13.198  0.1238  0.0772 -0.0881
24731W        W40915   0.479   1.166  14.749 -0.0499  0.0135  0.0106
24732W        W40916   4.843   7.923  11.081 -0.3070  0.1233  0.1759
24733W        W40917   2.433   7.904   4.655 -0.1454 -0.2937  0.0657
24734W        W40918  16.473   2.243   0.859 -0.0114  0.2824  0.3290
24735W        W40919  12.795   9.269   2.752 -0.0534  0.1648 -0.2331
24736W        W40920   0.659   8.098   2.294  0.2721 -0.2552  0.0454
24737W        W40921   3.947  15.089  13.708  0.1093  0.1596  0.1940
24738W        W40922   9.054   5.571  11.069 -0.0728 -0.2173  0.1595
24739W        W40923  13.602  14.271  14.398 -0.0151  0.0217  0.0895
24740W        W40924  14.964  13.521  12.069 -0.2317  0.1675  0.0379
24741W        W40925  10.501  17.820   1.285 -0.2594 -0.0199  0.0740
24742W        W40926  10.676  16.419   2.464 -0.2345  0.0289 -0.1243
24743W        W40927  11.046   4.758  14.146  0.0355  0.0746 -0.3134
24744W        W40928   3.627   5.402  12.531 -0.1701 -0.1945 -0.1573
24745W        W40929   5.925   2.460   3.197 -0.1124  0.1115 -0.2749
24746W        W40930   7.386   1.968   0.098  0.0975 -0.1080 -0.4417
24747W        W40931   6.893   5.917   4.002 -0.0598 -0.2000 -0.3345
24748W        W40932  10.379  11.114   3.940  0.1855  0.1975  0.0916
24749W        W40933   0.875  18.398   0.280  0.0392 -0.0973  0.0794
24750W        W40934  15.544   6.183   4.778  0.0994  0.0774 -0.0302
24751W        W40935  11.773  15.441   3.654  0.0848  0.2913  0.0462
24752W        W40936   8.152   0.216  14.414 -0.0452 -0.2834 -0.1224
24753W        W40937  17.036   1.346   0.614 -0.0107 -0.1736  0.0522
24754W        W40938   8.520  16.762   3.460  0.0314  0.2740 -0.1032
24755W        W40939   6.442   8.653   1.850  0.4422  0.0754  0.2002
24756W        W40940  14.106  11.234  11.843  0.3041 -0.0719  0.0569
24757W        W40941  10.490  11.916   1.986  0.0579 -0.0575  0.2394
24758W        W40942   4.022  14.875  15.350 -0.2266  0.2295 -0.1271
24759W        W40943   4.089   1.845  11.812  0.3110  0.1049  0.0562
24760W        W40944  17.346  12.274  10.696  0.1370 -0.0751 -0.3013
24761W        W40945   2.970  12.713   4.048 -0.1035  0.0759  0.0010
24762W        W40946   2.380  12.572   0.263 -0.0553  0.1697  0.3753
24763W        W40947  14.292   4.544   5.423 -0.0994  0.4525  0.1959
24764W        W40948  13.462  17.045   0.269  0.0769 -0.1743  0.0562
24765W        W40949  17.915   3.941  11.191  0.1105 -0.2953  0.1590
24766W        W40950  17.536   9.220   0.918  0.0978  0.0941  0.0638
24767W        W40951   9.637   0.068   2.267  0.1038 -0.2865  0.0341
24768W        W40952   9.977  15.909  14.042  0.1159 -0.3798  0.0161
24769W        W40953  10.018   3.184   0.885  0.1224  0.2229  0.0481
24770W        W40954   7.257  10.128  13.590  0.0986  0.3245 -0.0092
24771W        W40955  14.172   0.740  12.927  0.0695 -0.1150 -0.2738
24772W        W40956   0.839  10.333   3.516 -0.0864  0.2744  0.1775
24773W        W40957  14.714   8.974   5.575 -0.1740 -0.1166  0.0954
24774W        W40958   4.960  15.293  11.937 -0.1736  0.0675 -0.3180
24775W        W40959  10.859   5.845   0.039  0.3111 -0.1464 -0.1589
24776W        W40960   6.156  15.506   0.515 -0.3163  0.1293  0.1775
24777W        W40961   9.594   4.035  13.988 -0.0490 -0.1134 -0.2739
24778W        W40962   8.879   3.174   4.568 -0.1676  0.0568 -0.2581
24779W        W40963   6.024  12.939   4.001 -0.1090  0.1880 -0.0734
24780W        W40964   9.282  16.276  14.705 -0.0148  0.0646  0.1603
24781W        W40965   8.357   5.111  12.182  0.3528 -0.0953 -0.1133
24782W        W40966  12.282   9.786  12.441  0.1399  0.0450  0.1113
24783W        W40967   8.704   2.470   4.107 -0.1667  0.1619 -0.3382
24784W        W40968   8.795   9.466   0.162  0.0939 -0.0362 -0.1307
24785W        W40969   1.828  12.485  11.037  0.1774 -0.0359  0.0007
24786W        W40970   9.285   4.161  14.456 -0.0539  0.0157  0.2418
24787W        W40971   5.781  15.382  14.580 -0.0703 -0.0800  0.1490
24788W        W40972   7.943   7.389  11.464  0.0675 -0.1747 -0.1381
24789W        W40973  16.733  11.648  14.479 -0.1502  0.3162  0.1009
24790W        W40974   6.514   5.124  15.457 -0.2764 -0.0275  0.1318
24791W        W40975  12.264   3.446  13.560 -0.0790 -0.1525 -0.4405
24792W        W40976   1.681   5.686  11.566 -0.1402 -0.2997 -0.0806
24793W        W40977  13.799   9.304   2.498 -0.0482  0.2524  0.1878
24794W        W40978   8.627   6.164  11.095 -0.0358 -0.0443 -0.0554
24795W        W40979   4.843   8.346  13.061 -0.0460  0.2738 -0.2415
24796W        W40980  10.412  11.674   3.928 -0.4009 -0.2424  0.2693
24797W        W40981  12.677  17.806   1.682 -0.1718 -0.2056  0.0039
24798W        W40982  16.469  13.733  13.011  0.0097  0.2215 -0.0695
24799W        W40983  16.592   8.417   0.188  0.1675  0.2856  0.0309
24800W        W40984  10.504  17.110  14.850  0.3704  0.1174 -0.3757
24801W        W40985  10.763   1.318   4.731  0.3335  0.0066 -0.0654
24802W        W40986   4.112  16.332  11.709 -0.4283  0.2788  0.2025
24803W        W40987   1.228   7.866  10.846 -0.3511 -0.3528 -0.5053
24804W        W40988   3.841  10.319  10.764 -0.0143  0.1143 -0.0032
24805W        W40989   4.903   1.981  10.751 -0.3515 -0.1623 -0.0304
24806W        W40990   8.201   3.070  15.128  0.2187  0.1514 -0.0227
24807W        W40991  17.067  12.661   0.802  0.1428 -0.2270 -0.0733
24808W        W40992  10.383   1.632   2.880  0.1180  0.2227 -0.1833
24809W        W40993  17.755  16.042   5.294  0.2690  0.1940 -0.0993
24810W        W40994   8.923  12.864  15.066  0.0230  0.1792  0.1953
24811W        W40995   8.169  10.588  13.240  0.1427  0.0195  0.1114
24812W        W40996   4.011   4.261  14.913 -0.1418 -0.5413  0.0498
24813W        W40997   0.395   5.905  14.710 -0.2069  0.0603  0.0429
24814W        W40998  15.656   2.803   3.700  0.0432  0.1182  0.0716
24815W        W40999   5.979  18.188  14.176  0.0065 -0.3068 -0.0182
24816W        W41000   3.352   9.951   2.153  0.1489 -0.3733 -0.0817
24817W        W41001   0.287  17.973   0.357 -0.1293 -0.1061  0.2727
24818W        W41002   4.241  11.007   4.178  0.1490 -0.7046  0.2435
24819W        W41003   7.431  14.934  13.475 -0.0110 -0.1655 -0.2038
24820W        W41004   7.967   7.402  12.087  0.0278  0.2895  0.6009
24821W        W41005  17.899  16.809   6.232 -0.2490  0.3965  0.1227
24822W        W41006  17.336   1.415   0.237  0.2788  0.0376  0.3355
24823W        W41007   6.013   0.590  13.895  0.2502  0.0226  0.0862
24824W        W41008   9.676   5.146   5.428  0.2048 -0.0617  0.0077
24825W        W41009  14.498   5.492   5.436  0.2264  0.2112  0.0542
24826W        W41010  18.718   4.512   0.450  0.0400  0.3276  0.0698
24827W        W41011   4.444  13.508  15.108 -0.2204 -0.0633 -0.0108
24828W        W41012  18.573   1.801  13.150  0.1043  0.0542  0.3199
24829W        W41013  15.766  11.118   2.712  0.2143 -0.0189 -0.0383
24830W        W41014  15.940  17.733  12.607 -0.1017  0.0552  0.1189
24831W        W41015  13.419   9.650   3.799  0.1886 -0.0386  0.5220
24832W        W41016  17.146  11.594   3.641  0.0401  0.0221  0.0824
24833W        W41017  12.313   9.541   2.812 -0.0172 -0.0816  0.2594
24834W        W41018  11.426   0.556   1.144 -0.0019  0.0318  0.0997
24835W        W41019  14.860  13.016  11.076  0.2397 -0.2271 -0.1111
24836W        W41020   6.818  18.512   3.530 -0.0006  0.1396 -0.1663
24837W        W41021   0.114  18.167   5.406 -0.1391  0.1144  0.1734
24838W        W41022  17.519  18.396   5.223  0.0665 -0.1970  0.3652
24839W        W41023   2.245  13.637  13.991  0.1212  0.1400 -0.1648
24840W        W41024  12.741  13.916  14.220  0.3789  0.2587  0.1748
24841W        W41025   9.297   9.261  11.354 -0.1623 -0.2476 -0.1234
24842W        W41026  16.182  15.864   4.421 -0.1383 -0.3895 -0.2079
24843W        W41027   2.083   1.678   2.422  0.1010 -0.0395  0.0890
24844W        W41028   7.316  16.437   4.247  0.0461  0.0138 -0.1425
24845W        W41029  13.480   8.460   4.078 -0.2678  0.2985 -0.2815
24846W        W41030  14.381  18.689  10.976 -0.2088 -0.2187  0.2320
24847W        W41031   6.114   1.273   4.264 -0.1186  0.1415  0.1176
24848W        W41032  15.072  18.409   1.108 -0.0561  0.2803  0.0612
24849W        W41033  14.639   4.908   1.547  0.1397 -0.2702 -0.0669
24850W        W41034   7.878   8.691  13.764  0.2724  0.0702 -0.2582
24851W        W41035  16.058  11.565  13.043 -0.1062  0.0972 -0.1118
24852W        W41036   7.818  16.505   2.421  0.1398  0.0898 -0.2068
24853W        W41037  14.001  11.126   2.987 -0.1225 -0.0373 -0.0133
24854W        W41038   8.822   9.575   2.301 -0.0462 -0.0035  0.0588
24855W        W41039   7.087  18.082   4.358  0.1454  0.2117  0.0222
24856W        W41040  11.852  12.953   1.803  0.0205  0.0594 -0.1955
24857W        W41041   6.456   3.970   4.840 -0.1258 -0.2299  0.0360
24858W        W41042  17.176   1.011  13.056  0.2739 -0.0826  0.2823
24859W        W41043   7.384  11.815   1.957 -0.0477  0.1015 -0.5929
24860W        W41044   3.825   5.022  15.283 -0.0644  0.1367 -0.3104
24861W        W41045   5.011   6.306  12.626  0.2404  0.1539 -0.1518
24862W        W41046   0.235   1.091   5.800  0.3349  0.1941 -0.1342
24863W        W41047  11.444  14.077   1.345 -0.2629 -0.2637 -0.0021
24864W        W41048   5.628  12.907   1.837  0.1924  0.0436 -0.2747
24865W        W41049  14.293   7.741   0.296 -0.0260 -0.0835 -0.0308
24866W        W41050  16.651  14.657   3.346  0.3206 -0.0356  0.0028
24867W        W41051  12.341   5.032   6.033 -0.3461 -0.3319 -0.0680
24868W        W41052  17.850  11.515  10.044  0.0046 -0.1309  0.1890
24869W        W41053  16.246   6.898  11.708  0.0791  0.2933 -0.2585
24870W        W41054   5.345   4.446  14.840 -0.1004  0.1289 -0.1448
24871W        W41055  10.062  17.446   3.779 -0.1659 -0.1928 -0.0783
24872W        W41056  17.639  15.072  11.154  0.2104  0.4610  0.0482
24873W        W41057  11.385   8.002  13.768  0.1016 -0.3729 -0.1703
24874W        W41058   8.296  17.565  14.848 -0.1735  0.0620  0.0111
24875W        W41059  12.033   8.543  11.624 -0.1183 -0.0901 -0.1022
24876W        W41060  13.118   2.339  10.520 -0.2429 -0.3052  0.0840
24877W        W41061   6.472   3.625   1.173 -0.0549 -0.0715  0.2656
24878W        W41062   6.036   9.121  12.589  0.1216 -0.2385 -0.1694
24879W        W41063  15.959  14.516  10.878  0.2947 -0.1507  0.1681
24880W        W41064   4.304  12.353  13.558 -0.0850 -0.0873 -0.3842
24881W        W41065  18.306  11.892   4.005 -0.1084 -0.0364  0.1800
24882W        W41066   0.127  15.636  12.621  0.2943 -0.0693 -0.0618
24883W        W41067  17.912  17.513   4.746  0.1804 -0.0545 -0.1050
24884W        W41068   3.184   1.670  12.040 -0.2572  0.0612 -0.0064
24885W        W41069   3.861  17.874   4.319 -0.0266 -0.1086  0.0621
24886W        W41070  18.094  17.078   2.284 -0.1978 -0.0094 -0.0784
24887W        W41071   6.807  17.699   4.368 -0.2362 -0.0202  0.6465
24888W        W41072   5.136   6.942   2.026  0.2677 -0.1653  0.0873
24889W        W41073   0.863   5.670   4.917 -0.1695  0.5041 -0.2579
24890W        W41074   8.618   3.013   4.200  0.1672 -0.1276 -0.0384
24891W        W41075  13.052  11.584  11.439 -0.0954  0.1086  0.1520
24892W        W41076   4.173  15.451   2.747 -0.1292  0.1554  0.0725
24893W        W41077  16.063   9.987   5.302  0.0596  0.0329  0.2004
24894W        W41078   4.220   7.443   0.717 -0.0454  0.3396 -0.1284
24895W        W41079   9.781   3.159  11.713 -0.1878 -0.4514  0.4442
24896W        W41080   1.648   9.040   4.161 -0.1090  0.1247 -0.1607
24897W        W41081  18.048  13.670  13.865  0.1570 -0.1058 -0.2721
24898W        W41082  10.998   6.020   2.030  0.0288  0.0368 -0.3196
24899W        W41083  11.476  14.881  11.280 -0.2613  0.0425 -0.0224
24900W        W41084   6.732   3.670   1.625  0.1568 -0.1707 -0.0483
24901W        W41085  18.844   1.554   4.655  0.1156 -0.2305 -0.1883
24902W        W41086   0.018   2.087   4.811 -0.0586 -0.1173  0.4011
24903W        W41087   9.047  15.448   4.336 -0.2965 -0.0772  0.0508
24904W        W41088   5.472  13.150   0.825 -0.0541 -0.3794  0.0200
24905W        W41089   7.539   9.847   3.494 -0.0594 -0.2444 -0.0251
24906W        W41090  12.130   2.019   1.519 -0.1408  0.1904 -0.1398
24907W        W41091   5.046   4.882  11.431 -0.0235  0.0045  0.0943
24908W        W41092  11.465   9.459   0.213 -0.0592  0.0065 -0.1252
24909W        W41093   1.820   9.850  12.765 -0.1777 -0.1299  0.0497
24910W        W41094   6.811   8.260   2.511 -0.0595  0.0993 -0.1637
24911W        W41095  14.234   7.346  12.511 -0.1236  0.2391  0.0142
24912W        W41096   5.227  15.035  12.551 -0.1529 -0.3682 -0.4747
24913W        W41097  12.847   5.279   2.140  0.2226  0.0806  0.1003
24914W        W41098  11.433  15.499  14.981 -0.1174  0.3375 -0.0292
24915W        W41099   3.442  12.747   5.698 -0.0324 -0.1977 -0.1366
24916W        W41100  17.983   4.940  12.084  0.0271 -0.0450  0.1923
24917W        W41101   0.022   4.830  13.207 -0.0610 -0.0468 -0.1354
24918W        W41102   6.771   3.625   0.233 -0.5472  0.0607  0.1110
24919W        W41103   9.705   2.470   0.250  0.0046 -0.1959  0.1771
24920W        W41104  18.198  10.325  11.303  0.3319 -0.2695 -0.0348
24921W        W41105   5.129  18.519   4.621  0.1908 -0.3506 -0.0153
24922W        W41106  17.072   9.323   0.925 -0.0138 -0.0363 -0.1099
24923W        W41107  12.911  11.775  11.022 -0.3582  0.1440  0.3070
24924W        W41108   9.970  12.292   5.369  0.2121 -0.2368  0.1709
24925W        W41109   8.999  13.293   2.787 -0.0231  0.1093 -0.1045
24926W        W41110   2.406  18.336   1.794  0.1095 -0.0929  0.1644
24927W        W41111  14.402   0.014   2.226 -0.1043  0.2576  0.2894
24928W        W41112  16.878  12.701  14.068  0.2728 -0.3073  0.0045
24929W        W41113  15.096  12.263  12.100 -0.1500 -0.3943 -0.1620
24930W        W41114  17.689  12.744  11.169 -0.1437 -0.0815  0.1121
24931W        W41115   3.770   9.018   5.334 -0.2336  0.1666 -0.0894
24932W        W41116   8.155  16.938  12.874 -0.1145  0.0788  0.1995
24933W        W41117   6.230   6.537  10.629  0.2652 -0.0031 -0.0840
24934W        W41118   8.156   1.117   4.213  0.1095  0.1470 -0.2699
24935W        W41119   4.381  17.095  11.360  0.0660 -0.1554 -0.1597
24936W        W41120   5.526  16.318   4.053  0.0080  0.1341  0.0406
24937W        W41121   7.721  12.268   1.805  0.2656 -0.1423 -0.1330
24938W        W41122  14.189   3.778  12.614  0.1930  0.1130  0.1264
24939W        W41123  18.500  11.718   5.342  0.0661 -0.1033 -0.3299
24940W        W41124  18.529   2.703  13.343  0.2296 -0.1372  0.0852
24941W        W41125  14.052   7.948   2.987  0.1438  0.4222  0.0107
24942W        W41126   2.846  14.122   1.178  0.2969 -0.1333 -0.0607
24943W        W41127   2.892   6.517  13.273 -0.0099  0.0001 -0.0385
24944W        W41128  14.813  12.949  14.859 -0.4296 -0.1269 -0.3620
24945W        W41129  14.494   3.803  13.636 -0.0986  0.0864  0.1018
24946W        W41130   4.311  12.005  13.237  0.1882  0.2986 -0.0108
24947W        W41131  16.961  15.874  11.660  0.1413 -0.2467 -0.2669
24948W        W41132   3.880   2.886  14.011  0.1733  0.0782 -0.0983
24949W        W41133  16.668   2.763  10.657 -0.2345  0.0425  0.0508
24950W        W41134   0.453  11.380  14.410  0.1663  0.1017 -0.1190
24951W        W41135   3.603  15.275   3.416  0.1579  0.1066  0.0391
24952W        W41136   5.153  10.657  10.570  0.0798 -0.0419 -0.0611
24953W        W41137  13.157   9.393  11.246 -0.1647 -0.2098 -0.1253
24954W        W41138   1.226  11.287  13.888 -0.3079 -0.2705 -0.0214
24955W        W41139   4.635  12.255  11.106  0.1928 -0.2249  0.1672
24956W        W41140  12.275   5.997  11.372  0.0328 -0.5020 -0.0521
24957W        W41141   0.498  15.413  13.838 -0.1788  0.0637 -0.3433
24958W        W41142  11.479   9.321   4.953 -0.0550  0.0682 -0.0603
24959W        W41143  18.785   0.144  13.227 -0.0479 -0.2155  0.0543
24960W        W41144   2.779   2.875   0.584 -0.1277 -0.1178 -0.3452
24961W        W41145  10.165  16.113  13.473  0.2313 -0.2383 -0.1906
24962W        W41146   6.615  12.109   2.548  0.3250 -0.1727  0.1869
24963W        W41147   9.431   5.932  10.197 -0.0661  0.0372 -0.1543
24964W        W41148  11.261   8.057   9.946  0.0759  0.5178 -0.1032
24965W        W41149  13.355  12.692  11.839 -0.0116 -0.1541 -0.3394
24966W        W41150   0.714  11.544   2.204 -0.1289  0.0615  0.1632
24967W        W41151   7.638  18.482   4.385  0.2003  0.0622  0.2520
24968W        W41152   9.427  14.203   4.147 -0.0024 -0.1040  0.0277
24969W        W41153  11.499  16.810  11.745  0.0946 -0.0736 -0.1546
24970W        W41154  10.257  11.547  11.279  0.2328  0.2765  0.1093
24971W        W41155  17.857   0.784   1.989 -0.1150  0.0483 -0.0775
24972W        W41156  15.079  13.174  11.636 -0.2637  0.2113 -0.1854
24973W        W41157  18.127   7.180  11.532  0.0376 -0.0200 -0.0437
24974W        W41158  10.889  15.984  13.924 -0.0768 -0.2203 -0.2055
24975W        W41159   0.369   3.660   4.535 -0.2164  0.0925  0.1960
24976W        W41160  12.372   5.037   0.238 -0.2177  0.0234 -0.1991
24977W        W41161  15.120   0.709  15.049  0.2155  0.0903 -0.1272
24978W        W41162  16.757  10.526   4.772  0.1014  0.0388 -0.0776
24979W        W41163   4.735   9.658  10.878 -0.1403  0.1294 -0.2387
24980W        W41164  14.834  18.645   3.754 -0.2966  0.3971  0.1238
24981W        W41165   7.783  17.323   3.986 -0.1021 -0.0718 -0.0217
24982W        W41166   1.315   7.149   4.591  0.4877  0.1824 -0.0961
24983W        W41167  12.209   9.487   1.822 -0.0976  0.6282  0.0591
24984W        W41168  14.046   0.761  14.263  0.0672 -0.1884  0.2144
24985W        W41169   5.383  15.596  13.510 -0.2662 -0.0988 -0.2076
24986W        W41170  16.021   0.970  13.635  0.0629  0.0879 -0.0074
24987W        W41171   3.735  12.313   4.189  0.1446  0.1132 -0.0663
24988W        W41172  11.106  14.573  13.941 -0.1499 -0.0069  0.1057
24989W        W41173   2.509  13.429   5.029 -0.2722  0.1049  0.1711
24990W        W41174   4.306   0.799   2.593  0.0276  0.0888  0.0369
24991W        W41175   8.409   4.206   0.593  0.2032  0.1148 -0.0916
24992W        W41176   1.242   0.849   4.844 -0.4219  0.0838  0.1654
24993W        W41177  16.074  16.487  15.394 -0.0851 -0.2451  0.1399
24994W        W41178  11.120   8.469  15.210  0.0852 -0.2523  0.3384
24995W        W41179  16.057   8.889   3.481  0.2144 -0.4093  0.2094
24996W        W41180  14.250   0.588  14.824  0.3670 -0.0933  0.1896
24997W        W41181  15.603   3.617   0.858  0.1710 -0.3401 -0.0811
24998W        W41182  10.989   5.966   0.511  0.1049 -0.2617 -0.2954
24999W        W41183  11.939   4.639   3.714  0.1821  0.1759  0.0785
25000W        W41184  11.368   0.070   0.368  0.0545  0.1146  0.0952
25001W        W41185  11.422  16.698   5.179 -0.1226 -0.1332  0.2133
25002W        W41186   8.280   7.014   1.754 -0.1435 -0.2789 -0.3330
25003W        W41187   2.147   0.320  15.096 -0.0698  0.0399  0.0322
25004W        W41188   6.091   5.486   0.700  0.1309  0.0547  0.1731
25005W        W41189   4.948   5.025  12.265 -0.0538 -0.3745  0.2251
25006W        W41190   1.448   6.910   1.279  0.1461  0.0623 -0.3588
25007W        W41191   0.838   3.907   4.673 -0.0608  0.1549 -0.0556
25008W        W41192   7.256  10.064   2.695  0.1395 -0.0126 -0.0096
25009W        W41193  17.752   3.411  10.254  0.0955  0.1403 -0.2782
25010W        W41194  11.135   8.684   0.853 -0.2135 -0.2847 -0.3939
25011W        W41195   4.522   0.404   5.580  0.1670 -0.0750 -0.2542
25012W        W41196   4.723  14.917   1.570  0.0298 -0.0756  0.1174
25013W        W41197  13.222   7.897  14.882 -0.0153 -0.2537 -0.1397
25014W        W41198   6.721   1.177   3.824 -0.2198 -0.1405 -0.2601
25015W        W41199   1.551   0.100  14.184 -0.0424 -0.1484  0.2443
25016W        W41200  11.949   1.586  11.961  0.2821 -0.4201 -0.1577
25017W        W41201   4.697   2.727   3.784 -0.2458  0.0281  0.0974
25018W        W41202   0.531   8.305   9.713 -0.2770  0.1323  0.3753
25019W        W41203  16.677   4.667  14.882 -0.3169 -0.0999 -0.1894
25020W        W41204  11.231  18.143  11.174  0.0765 -0.0099 -0.0810
25021W        W41205   7.305  15.889  12.976  0.0932 -0.0885  0.3157
25022W        W41206   2.351  16.457  13.409  0.1811  0.0408  0.3047
25023W        W41207   9.578  14.878   2.966  0.3217 -0.2194 -0.1237
25024W        W41208   2.134  15.878   0.899  0.2649  0.0681  0.1890
25025W        W41209  14.263  13.760  13.482 -0.1218  0.0006  0.0784
25026W        W41210  12.296   6.862   3.489  0.2016 -0.0428  0.0306
25027W        W41211  10.813  18.653   2.317  0.1229  0.2412  0.0137
25028W        W41212   1.402  10.136  12.054 -0.2230 -0.2373  0.1799
25029W        W41213   4.181   1.970  10.324 -0.0270 -0.1029 -0.2999
25030W        W41214  16.664   5.967   0.746  0.2588  0.4316 -0.0183
25031W        W41215   3.863  15.204   1.106  0.1972 -0.0540 -0.1401
25032W        W41216  12.182   7.169   0.861  0.2450  0.0710  0.2935
25033W        W41217  11.875  11.212  12.886  0.2281 -0.2264  0.1337
25034W        W41218  15.972  10.965   4.302  0.0067  0.0081  0.0046
25035W        W41219  15.070   1.573  14.404 -0.0833 -0.2709 -0.0245
25036W        W41220  11.528  17.873   2.543  0.1976 -0.0976 -0.0312
25037W        W41221  10.785   3.332  12.447  0.2035 -0.0236 -0.2012
25038W        W41222  14.141  10.258   4.925  0.0742  0.2953 -0.3305
25039W        W41223  12.345  13.627   3.584  0.0025 -0.0005  0.0577
25040W        W41224   9.986  15.228   4.554  0.1743 -0.1842 -0.4337
25041W        W41225  12.365  14.110   2.977 -0.4291 -0.0665  0.1608
25042W        W41226   1.579   3.094   1.971  0.1648  0.1239  0.2299
25043W        W41227  18.494   7.116   3.672 -0.1357 -0.0415 -0.0253
25044W        W41228  14.477  14.845   5.423  0.1161 -0.0976  0.0301
25045W        W41229  12.545  16.007   0.793  0.2384  0.4750 -0.2512
25046W        W41230   8.023   2.461   3.148 -0.1555 -0.1783 -0.0900
25047W        W41231  17.410   5.489  13.629  0.3409  0.1406  0.0249
25048W        W41232   8.051  13.969  15.034 -0.1172  0.0122 -0.4431
25049W        W41233  15.133  11.733   2.337  0.1181  0.1799 -0.0191
25050W        W41234  11.381  14.833  11.778  0.3704 -0.2013 -0.2465
25051W        W41235   6.065   6.432   1.577  0.2429 -0.0691  0.0788
25052W        W41236   5.391   5.477  13.113 -0.1142  0.0727  0.0445
25053W        W41237  16.959   8.003   2.046  0.2701 -0.0179 -0.1489
25054W        W41238   3.393  16.105  14.469 -0.3083 -0.0334 -0.0405
25055W        W41239   4.783  10.103  11.262 -0.0709 -0.0015  0.2529
25056W        W41240   5.266   9.101   3.239 -0.0076 -0.0072 -0.2234
25057W        W41241   1.947  12.507  13.723  0.1126  0.0937  0.0684
25058W        W41242   7.109   0.967   4.644  0.1949 -0.0976  0.1165
25059W        W41243  16.467  15.064  11.905 -0.0744 -0.0851  0.2882
25060W        W41244   3.101   5.959   4.367  0.0962  0.0342  0.5970
25061W        W41245   8.118  12.778   2.594  0.0789 -0.0562  0.2000
25062W        W41246   0.888  15.129   4.824  0.3324  0.0019  0.1352
25063W        W41247  14.922  11.981  10.819 -0.2319  0.0265 -0.1831
25064W        W41248   1.952  12.924  13.492  0.0473 -0.1539 -0.1195
25065W        W41249  10.185  11.340  12.753  0.2132 -0.1049 -0.1493
25066W        W41250  10.416  16.512   1.583 -0.1570 -0.2210 -0.0242
25067W        W41251  13.951   7.089  10.670  0.0544  0.0674 -0.1124
25068W        W41252  11.301  15.800   2.930 -0.0637  0.0313 -0.0598
25069W        W41253   0.960  17.954   1.550 -0.0146  0.1473  0.0833
25070W        W41254   9.120  13.189  14.254 -0.1865  0.2164 -0.0576
25071W        W41255  10.477   5.829   3.448  0.2448 -0.1059 -0.4651
25072W        W41256   8.379  13.976   5.534 -0.3511  0.1179 -0.0641
25073W        W41257   7.108   9.292  12.963 -0.1236 -0.1804  0.0575
25074W        W41258  12.917   1.629   1.143 -0.4500 -0.1062  0.3729
25075W        W41259   2.134   9.386   0.138 -0.1308  0.0609  0.0677
25076W        W41260   4.239   6.146   0.925 -0.0953  0.0374 -0.5106
25077W        W41261  12.680   4.461   2.371  0.3110  0.0444  0.2423
25078W        W41262  17.260   4.150   3.746  0.0537 -0.0652  0.0909
25079W        W41263  12.256  13.424   2.417  0.3136 -0.0574 -0.0225
25080W        W41264   5.881   4.452  12.154 -0.2783  0.2315 -0.0496
25081W        W41265  17.940  11.285   3.466  0.0822 -0.0318 -0.5926
25082W        W41266  16.911   4.391  14.176  0.1798 -0.2260  0.3004
25083W        W41267   7.709   7.750  15.257 -0.3107 -0.0513 -0.1116
25084W        W41268   4.244   8.456  11.605  0.0807  0.1627  0.1254
25085W        W41269   0.642   2.477  11.074  0.1279  0.3410 -0.1107
25086W        W41270   0.421  15.867   0.019 -0.1072 -0.0239 -0.0620
25087W        W41271   5.360   2.144   2.058  0.0519 -0.0866 -0.1431
25088W        W41272  10.706  15.452   9.821  0.1922 -0.0451  0.1087
25089W        W41273   7.344  15.910  11.118 -0.1381 -0.2847 -0.1903
25090W        W41274   7.146  13.622   4.997  0.2354  0.0395 -0.0021
25091W        W41275   2.302   6.446  13.980 -0.0411  0.3084  0.1154
25092W        W41276  16.169  12.544  13.752 -0.0807 -0.1867  0.0772
25093W        W41277   8.005  11.847   1.806  0.1150 -0.2810 -0.1570
25094W        W41278  16.608  13.526   2.772  0.0698  0.1743 -0.1030
25095W        W41279   2.702  13.855   4.819 -0.1366 -0.2584 -0.2018
25096W        W41280   1.912   6.435  14.560 -0.0310  0.1610  0.2442
25097W        W41281   6.607   8.688  11.377 -0.1571  0.2933 -0.0973
25098W        W41282   0.929  17.034   1.166 -0.0365  0.1221  0.1620
25099W        W41283  16.832   6.500   2.738 -0.2882 -0.1603  0.2026
25100W        W41284   7.646  15.893  12.191 -0.3043 -0.1772 -0.2281
25101W        W41285   8.339   8.138  11.850 -0.0630  0.2134 -0.2398
25102W        W41286   7.796  16.654   5.000 -0.0106  0.2052  0.1719
25103W        W41287  10.839  11.187   5.186 -0.0625 -0.1497 -0.1330
25104W        W41288   5.828  17.004   5.207 -0.1711  0.1810 -0.2540
25105W        W41289  18.631  14.212  12.278  0.0507  0.0937 -0.3980
25106W        W41290   3.207   9.108  10.545 -0.0807  0.1159 -0.1184
25107W        W41291  14.483  12.454  13.660  0.0215  0.1571  0.1045
25108W        W41292  15.367   9.524  12.994  0.0948 -0.4708  0.3065
25109W        W41293   1.045  17.879   4.274  0.0144 -0.1140  0.1276
25110W        W41294  10.834  11.063  11.783 -0.5969 -0.0469  0.1627
25111W        W41295  14.104   8.590   1.068  0.0945  0.2229  0.1844
25112W        W41296  14.390  14.481   3.436 -0.0147 -0.0848  0.1353
25113W        W41297  17.451  10.051  14.800 -0.1388  0.2955 -0.0455
25114W        W41298   7.759  11.646  14.872 -0.3760  0.1094  0.0325
25115W        W41299  11.863   5.207  11.062  0.2298  0.1248  0.0684
25116W        W41300   8.831   6.875  14.580  0.1550  0.1024  0.0705
25117W        W41301   8.088  12.532  15.012  0.0961  0.0782  0.1107
25118W        W41302  14.302  17.955  14.445  0.0654 -0.2207 -0.1492
25119W        W41303   3.733   6.276   0.182 -0.2764  0.1866  0.1334
25120W        W41304   5.543  16.776  13.724 -0.0469 -0.0877 -0.0306
25121W        W41305  17.817   1.479  12.463 -0.0547  0.3699 -0.0737
25122W        W41306  12.597  10.280   4.049  0.0460 -0.0105 -0.1685
25123W        W41307  16.800   0.633   0.015  0.0877 -0.1822  0.0130
25124W        W41308  11.932   8.096  13.730  0.0701 -0.1632  0.0665
25125W        W41309  14.164   8.014  11.787 -0.2248  0.3016 -0.2124
25126W        W41310  14.207   8.949   1.350 -0.2930  0.2137 -0.0036
25127W        W41311  10.877   3.798  11.757 -0.1061  0.2436 -0.0015
25128W        W41312   8.045   0.043  12.347  0.4424 -0.0784 -0.1177
25129W        W41313  14.168  16.377   0.217 -0.3191  0.2076 -0.2240
25130W        W41314   6.616   0.549   3.237 -0.1211 -0.0269 -0.1065
25131W        W41315   4.114   7.047  14.572  0.0885 -0.2719 -0.1317
25132W        W41316   3.056  10.375  13.254  0.0076  0.1340 -0.2939
25133W        W41317   2.714  15.180  11.746 -0.1731 -0.1149  0.2054
25134W        W41318  17.843   9.370  15.410  0.0224 -0.1090  0.0548
25135W        W41319   8.812   1.983   2.030 -0.0475  0.4550  0.0765
25136W        W41320   8.526   6.524  12.324 -0.0427 -0.0663 -0.0658
25137W        W41321   2.981   5.141  15.247  0.1986  0.2002  0.0591
25138W        W41322   3.703  16.112  14.039  0.1564 -0.0087  0.2735
25139W        W41323   0.494   6.384  13.905 -0.2194 -0.1721 -0.0412
25140W        W41324  13.409  18.001   0.568  0.2350  0.1448  0.2982
25141W        W41325   8.707   2.481   0.606 -0.1890  0.1203  0.1859
25142W        W41326   3.239  13.577  13.248  0.0627  0.0297 -0.3828
25143W        W41327   5.065   6.524   0.210 -0.2813  0.0024  0.1159
25144W        W41328  10.142  13.685   3.179  0.1526  0.2545  0.1746
25145W        W41329   6.256  10.338  13.195 -0.1574 -0.4235 -0.0626
25146W        W41330   0.272   4.782  12.711  0.0075  0.0445  0.4470
25147W        W41331  13.773  18.706  13.859  0.2995 -0.2400 -0.0688
25148W        W41332   1.309  13.025   2.819 -0.0502 -0.1718 -0.1480
25149W        W41333   3.308   4.439   2.830  0.1356 -0.2027 -0.1127
25150W        W41334  13.186  11.843   5.212 -0.1456 -0.2640 -0.0074
25151W        W41335  10.308  16.883  10.434 -0.1341 -0.2083 -0.2037
25152W        W41336  17.705   8.383  12.155  0.1280 -0.0591  0.3062
25153W        W41337  17.358   3.169   0.544 -0.0486 -0.1379  0.3469
25154W        W41338  18.468   3.810   2.691 -0.1964  0.3411  0.0334
25155W        W41339   2.637  18.107   5.170 -0.0986  0.1743 -0.0165
25156W        W41340  14.192  14.586   2.996  0.2699 -0.0748  0.1063
25157W        W41341   9.372   2.183  13.209 -0.0418 -0.1482  0.2061
25158W        W41342   0.759   5.443   1.563  0.4087  0.3469 -0.0690
25159W        W41343  18.396  13.727  14.232  0.0616  0.0909 -0.0080
25160W        W41344   3.051   9.300  13.810 -0.0355 -0.0697  0.0599
25161W        W41345   5.429   1.833   1.095  0.0812 -0.2141  0.0072
25162W        W41346   3.448   1.358  13.863  0.1148  0.1639  0.3093
25163W        W41347  17.106  10.500  14.993 -0.3197 -0.0002 -0.3448
25164W        W41348   1.650  10.380  12.671 -0.0488 -0.1981  0.2222
25165W        W41349   6.301  10.961   4.216  0.1212  0.5960 -0.3456
25166W        W41350  17.961   9.429  14.960  0.1237 -0.1396  0.1781
25167W        W41351  16.311   0.528  12.210  0.3227 -0.2079 -0.0974
25168W        W41352   6.636   6.390  13.063  0.1370 -0.0461  0.0910
25169W        W41353   0.317   9.215   2.591  0.0634  0.2630 -0.0283
25170W        W41354   7.999   6.983  14.373  0.1302  0.3562 -0.0145
25171W        W41355   2.764  14.847   3.745 -0.0681 -0.0490  0.1501
25172W        W41356   8.413  10.260   0.161  0.0618  0.0051  0.3183
25173W        W41357  15.363   1.836   4.737  0.4679  0.2061 -0.1082
25174W        W41358  10.210   0.842   6.177  0.0875  0.2106  0.3211
25175W        W41359   8.747  13.856  13.926  0.0953 -0.2638  0.1784
25176W        W41360   2.911  12.403   0.262  0.0564  0.0787  0.1625
25177W        W41361   7.578  18.798   5.183 -0.1286  0.1759  0.3957
25178W        W41362   9.648   0.211  11.783 -0.1048 -0.3506  0.0035
25179W        W41363   9.397  17.131  13.055  0.1661 -0.2323 -0.2846
25180W        W41364   2.439   2.487  10.126 -0.0112  0.0851  0.0597
25181W        W41365  18.796   0.497   3.469 -0.1155  0.0864 -0.0687
25182W        W41366   0.908   3.020  12.841  0.1563 -0.0666  0.0631
25183W        W41367   5.150   9.698   1.539  0.0165  0.1532 -0.1754
25184W        W41368   3.047   8.736  13.816  0.1496  0.1945  0.3432
25185W        W41369  13.633   5.902   4.067 -0.1118 -0.2005 -0.0859
25186W        W41370   6.875   5.193   3.107 -0.0458 -0.3007 -0.1066
25187W        W41371  17.492   1.571   0.666  0.2967 -0.2868 -0.1568
25188W        W41372   3.030   0.606  13.988  0.0899  0.2618  0.0303
25189W        W41373   7.218  13.352   3.489 -0.1540 -0.1624  0.2885
25190W        W41374   5.763  16.210   3.397  0.3439 -0.1138 -0.2905
25191W        W41375  12.906   8.206  11.209  0.3655 -0.0833  0.0943
25192W        W41376   7.292   0.277  14.624  0.3544 -0.0229  0.0012
25193W        W41377  16.953   9.078   3.262 -0.1542 -0.0561  0.0614
25194W        W41378  11.115   5.601  11.975 -0.0190 -0.1275  0.0669
25195W        W41379  13.306   9.477   1.094  0.3310  0.3056  0.1060
25196W        W41380   7.960   1.114   1.372  0.1902  0.0099 -0.0499
25197W        W41381   0.874   5.441   0.484 -0.3411 -0.3181 -0.2699
25198W        W41382   2.324  17.426   0.588  0.2006  0.1345  0.1029
25199W        W41383  14.793   6.758   2.851  0.1181 -0.0071  0.3057
25200W        W41384   4.422   8.824   0.167  0.1182  0.2602 -0.1885
25201W        W41385   7.544  16.292   3.803  0.2966 -0.2967 -0.2585
25202W        W41386   1.841   6.672   4.071  0.0272  0.0257 -0.1295
25203W        W41387  11.787  17.645  14.997 -0.0263 -0.2930 -0.2422
25204W        W41388   4.241  15.025  14.859  0.0371  0.1485 -0.0888
25205W        W41389  14.547  13.030   4.129 -0.2521 -0.3543  0.1732
25206W        W41390  11.532  14.518  13.030 -0.1351  0.0012  0.0778
25207W        W41391   3.033   2.357   5.543  0.4225  0.2442 -0.0270
25208W        W41392   4.039   6.161  14.078 -0.0964 -0.1689 -0.1739
25209W        W41393  18.139   6.103   0.387 -0.0462  0.1346 -0.1967
25210W        W41394  11.176   6.098   4.331  0.0431 -0.0177  0.1171
25211W        W41395  11.219  16.366   4.902  0.2039  0.5194 -0.0222
25212W        W41396   5.397   2.399  11.267 -0.1881 -0.0900 -0.1642
25213W        W41397   5.618  17.689  12.253  0.1493 -0.1044 -0.1341
25214W        W41398  18.337  16.645   1.644 -0.3116 -0.1891  0.0309
25215W        W41399  16.910  17.375  13.337  0.0108  0.0768 -0.0113
25216W        W41400  10.435  17.010  13.864 -0.1321  0.0475 -0.2800
25217W        W41401   1.888   0.085  12.181 -0.1589 -0.2632 -0.2546
25218W        W41402  17.020  13.105  11.865  0.1084  0.1821  0.0323
25219W        W41403   5.269  10.848  14.037 -0.2982  0.0003  0.1768
25220W        W41404  15.472  11.677  10.923 -0.1850  0.0641  0.2557
25221W        W41405  18.828   6.651   1.833  0.1091  0.1920  0.0104
25222W        W41406  17.732  14.529   0.313 -0.0140 -0.0542 -0.0082
25223W        W41407   6.305  11.954   0.455 -0.1995  0.2084  0.0315
25224W        W41408   8.482   0.961  14.568 -0.3151 -0.0927  0.0449
25225W        W41409   6.475   3.128   1.761 -0.2338  0.4529 -0.1866
25226W        W41410   2.020  17.211  12.022 -0.0617  0.0370  0.1433
25227W        W41411  11.038  10.471  11.765 -0.0844 -0.1607 -0.3997
25228W        W41412   1.805   4.164   4.828  0.3425 -0.2870 -0.1666
25229W        W41413   8.640   4.284   3.144  0.0859 -0.1102 -0.1750
25230W        W41414   9.549  12.647  14.041  0.2179  0.1135  0.0921
25231W        W41415   4.484  13.067  11.326  0.3952  0.0333 -0.0036
25232W        W41416   6.649   2.082  13.297  0.0214  0.3616 -0.1842
25233W        W41417  15.524  14.976   9.489 -0.3104 -0.1574  0.0418
25234W        W41418  10.799   1.148  12.245  0.2200  0.0581 -0.1745
25235W        W41419   4.787   1.392  10.588 -0.3725  0.3252  0.1344
25236W        W41420  18.132   2.084   4.145 -0.0254 -0.2858 -0.2170
25237W        W41421  11.333   1.331   3.109  0.3755  0.1248  0.1251
25238W        W41422  15.719  15.913  12.799  0.2132  0.1370  0.1734
25239W        W41423  13.100   8.241   2.076  0.0909 -0.1917  0.1564
25240W        W41424   8.193   5.536  11.485 -0.1075 -0.0652  0.1258
25241W        W41425  13.755  13.929   0.706 -0.0025 -0.0952  0.1556
25242W        W41426  12.365   7.964  15.137 -0.1717  0.0407 -0.0267
25243W        W41427  10.484  16.705  12.382 -0.3922 -0.1663 -0.2791
25244W        W41428   2.425   3.929   5.196 -0.0935 -0.3056 -0.2232
25245W        W41429   3.182   6.781  12.734  0.0140  0.0730 -0.5144
25246W        W41430   0.130  11.729   0.554 -0.0999  0.1301  0.4415
25247W        W41431   3.239   4.213  12.170  0.1108 -0.2311 -0.2342
25248W        W41432  11.844  17.944   1.560 -0.4558  0.0117 -0.1493
25249W        W41433  11.344   2.000   5.360 -0.2423  0.0441  0.0079
25250W        W41434   6.287   3.404  13.089 -0.2008  0.0374  0.2229
25251W        W41435   0.211   7.457   5.342 -0.1699  0.2654  0.0299
25252W        W41436  11.780  17.471   2.689 -0.1174  0.2420 -0.0894
25253W        W41437   5.318  10.178  13.007  0.0282 -0.0812  0.0697
25254W        W41438   0.381  17.171   3.247  0.2353 -0.2063 -0.2417
25255W        W41439   6.234  16.420  12.274 -0.2293  0.2603  0.3720
25256W        W41440   9.455  12.086   4.601  0.2019 -0.2173  0.2469
25257W        W41441   5.774  12.308   0.591 -0.0925  0.1488  0.0036
25258W        W41442  11.895   2.293  11.283  0.2565  0.1462  0.2193
25259W        W41443  15.147   4.332   5.254 -0.4036 -0.2268 -0.0788
25260W        W41444   1.960  15.699   2.221  0.1544 -0.0847 -0.4460
25261W        W41445   3.254  15.034   2.773  0.0993  0.3444 -0.0930
25262W        W41446   5.211  13.153  14.847  0.1375 -0.2186  0.0559
25263W        W41447   2.018  13.991   0.705  0.2441 -0.2462  0.0426
25264W        W41448  15.008   5.845  15.035  0.1793  0.1193  0.2712
25265W        W41449  13.005   7.401   2.350  0.1215  0.0509 -0.0820
25266W        W41450   1.945  12.472  12.703  0.5335 -0.0780  0.0233
25267W        W41451   8.970   5.923   0.778  0.4375 -0.1729  0.0844
25268W        W41452   1.414  10.023   4.365  0.0431 -0.1455  0.0908
25269W        W41453  15.230   1.783  11.961  0.1383  0.0998 -0.0895
25270W        W41454   4.221  14.168  12.403 -0.1923  0.0048  0.2043
25271W        W41455   7.670  15.930  15.263 -0.1975  0.0814 -0.2599
25272W        W41456   2.346   7.152   2.438 -0.3000 -0.1156  0.0792
25273W        W41457  10.188   5.115   2.462 -0.4418  0.1917 -0.0183
25274W        W41458   8.122  11.854  14.475  0.1890 -0.0091  0.0995
25275W        W41459   8.246   8.738  11.575 -0.0741 -0.1145  0.2225
25276W        W41460  13.481   5.168   2.922 -0.0851 -0.0873 -0.0020
25277W        W41461  13.657   6.828   0.073  0.2856  0.2293 -0.0394
25278W        W41462  13.754   2.938  12.966  0.0127  0.1384 -0.1154
25279W        W41463   0.725  10.466  14.088 -0.1929 -0.0605 -0.1470
25280W        W41464   8.769  14.018   4.950  0.2182  0.1647 -0.1957
25281W        W41465   9.423  10.531  13.817  0.0086  0.0047 -0.0322
25282W        W41466  13.292  18.005   1.958 -0.1235  0.0073  0.1210
25283W        W41467   3.993   1.859  10.803 -0.0153  0.1372  0.0151
25284W        W41468   1.190  17.673  12.231  0.0937 -0.1670  0.2676
25285W        W41469   6.184   6.976  13.896  0.3287 -0.0883 -0.0447
25286W        W41470  16.190  10.426   3.759  0.1597 -0.0019  0.0750
25287W        W41471  13.661  10.332   3.089 -0.2112  0.0033  0.2414
25288W        W41472   0.055  13.291  11.837 -0.0382  0.2793  0.0584
25289W        W41473   5.393  15.697  14.009 -0.1813 -0.0078  0.1703
25290W        W41474   4.698   1.395   3.963  0.2139 -0.0778  0.1738
25291W        W41475  13.820  14.204   1.118  0.0770  0.1247 -0.2534
25292W        W41476   1.167   5.531   1.949  0.0619  0.2709 -0.3276
25293W        W41477  11.143  12.840  14.685 -0.1444  0.0361  0.0650
25294W        W41478   0.090  17.974  14.327 -0.1749  0.4555 -0.1481
25295W        W41479  13.472   8.237  12.605  0.0258  0.2134  0.1621
25296W        W41480   6.249  16.886   4.831  0.0407 -0.1161 -0.0838
25297W        W41481   6.108   2.917  10.891 -0.1942  0.1456  0.0869
25298W        W41482  17.132   1.563  15.280 -0.0833 -0.1172 -0.1086
25299W        W41483  12.003  15.053   3.261 -0.0326  0.1391 -0.2594
25300W        W41484  18.822   5.766  12.632 -0.0051 -0.0890 -0.0250
25301W        W41485  12.691   5.480   4.193  0.0530 -0.1534 -0.2920
25302W        W41486  15.209   2.322  15.072  0.1007 -0.2253 -0.2853
25303W        W41487   0.774   0.356  12.139  0.2805  0.2359  0.0302
25304W        W41488   1.079   0.771   4.374  0.2747  0.0657  0.1470
25305W        W41489   7.872  13.683   1.137  0.1090 -0.1562 -0.0291
25306W        W41490   8.579  10.423   2.415 -0.0966  0.1501 -0.2499
25307W        W41491  17.527   7.620   0.822  0.1927 -0.2038 -0.0242
25308W        W41492  17.533  15.743   0.901 -0.0751  0.2113  0.2961
25309W        W41493   5.085   0.139   3.352  0.0088 -0.0117 -0.0484
25310W        W41494   9.392  10.896  15.070 -0.3639  0.2548  0.2053
25311W        W41495  17.523  18.560  12.606  0.0522 -0.2500 -0.0802
25312W        W41496   9.932   9.001   9.846  0.0119  0.0045 -0.0323
25313W        W41497   8.505   4.127   4.977 -0.0222  0.1661 -0.0244
25314W        W41498   7.596  16.225  13.148 -0.1804 -0.1377  0.3298
25315W        W41499   6.765   3.703  12.894 -0.1571 -0.2329 -0.1946
25316W        W41500   1.947  15.193  15.249  0.0645 -0.0342 -0.2271
25317W        W41501  15.589   2.383   3.447 -0.0697  0.3152  0.2031
25318W        W41502  14.585  11.482   3.271 -0.0966 -0.1376  0.0426
25319W        W41503   4.162   4.865   0.690  0.1115  0.1060  0.1522
25320W        W41504   5.277  12.572  11.509 -0.1843 -0.2393  0.3052
25321W        W41505   2.285   8.558   1.858 -0.3812  0.1900  0.0962
25322W        W41506   7.874   1.474   4.415  0.1471 -0.3764 -0.1104
25323W        W41507  13.558   6.655  12.662 -0.2446 -0.0177  0.0718
25324W        W41508   5.902   6.565   4.553  0.4640  0.2173  0.0805
25325W        W41509   8.940   0.255   0.627  0.0576  0.0451  0.0947
25326W        W41510  16.862  17.720  15.248  0.3420 -0.2147  0.0764
25327W        W41511  13.751   8.205   5.381 -0.4380  0.4118 -0.0621
25328W        W41512   0.254   4.389  12.236  0.2075 -0.0708 -0.0116
25329W        W41513   2.486   5.446  11.774  0.0156 -0.0734 -0.3014
25330W        W41514  17.701   9.895   3.776  0.1921  0.0825  0.0172
25331W        W41515  12.997   7.937   2.919 -0.2687 -0.0037 -0.0905
25332W        W41516  14.749   6.320   2.619  0.1642 -0.1662  0.0688
25333W        W41517  16.034  10.015   1.612  0.1479  0.1153 -0.0596
25334W        W41518  13.667   9.105   4.807 -0.2941 -0.5213 -0.2530
25335W        W41519  14.118  14.223  13.378  0.1612  0.2173 -0.1097
25336W        W41520  12.412   6.451  14.647 -0.0288  0.0466  0.2337
25337W        W41521   6.819   7.918  13.252 -0.0260 -0.1154  0.4424
25338W        W41522   9.073   9.418   5.392  0.0889 -0.1803  0.2634
25339W        W41523   4.606   1.984   2.340  0.1083 -0.2584 -0.2001
25340W        W41524   0.884  15.315  11.606 -0.0524 -0.0182  0.1198
25341W        W41525   7.840  18.186   1.499  0.0331  0.0779  0.2028
25342W        W41526  10.235   2.513   2.530 -0.1977 -0.0996 -0.0604
25343W        W41527  18.025   9.984   4.132 -0.2080 -0.1915 -0.2419
25344W        W41528  17.151  11.015  15.025  0.7297  0.2230  0.2245
25345W        W41529   5.805   9.939   0.251  0.1024  0.1393  0.0447
25346W        W41530  11.334  17.030  12.399 -0.1086 -0.1112 -0.4136
25347W        W41531   0.898  11.831  11.420  0.0005  0.1427 -0.0170
25348W        W41532   0.497   0.532   4.147  0.0107  0.2544 -0.3390
25349W        W41533   7.861   5.138  15.000  0.2621 -0.1691 -0.1120
25350W        W41534   0.716   4.321   2.155  0.0879 -0.0465 -0.1707
25351W        W41535   3.807   3.064  12.009 -0.0606  0.3588  0.0863
25352W        W41536  15.360   1.111  12.008  0.0706 -0.0564  0.0307
25353W        W41537   4.311   8.122  13.134 -0.2335 -0.0290 -0.1214
25354W        W41538  18.133  13.092   2.009  0.1574  0.1193  0.0815
25355W        W41539  10.824  14.932   6.075 -0.3824  0.0859  0.4199
25356W        W41540  16.171  10.021   2.100  0.1615  0.0199  0.2082
25357W        W41541   4.714  15.499  15.419 -0.1006 -0.1473  0.0796
25358W        W41542  11.714   9.547   3.515 -0.0620  0.0516  0.2479
25359W        W41543  11.802   9.265  12.016 -0.0209 -0.2491 -0.1557
25360W        W41544   6.965  13.191   1.078  0.0542  0.1503 -0.1930
25361W        W41545   1.382   0.131  15.103 -0.2273  0.1688 -0.0650
25362W        W41546   8.360   1.346   3.277 -0.2388 -0.1395 -0.2060
25363W        W41547  18.695  13.731  11.892  0.1113  0.2990 -0.1382
25364W        W41548  15.207  16.735   4.248  0.1912 -0.0244  0.0101
25365W        W41549  15.946  11.969  13.856  0.1206 -0.0950 -0.1591
25366W        W41550   7.777   3.273   0.819 -0.1026 -0.2715  0.2251
25367W        W41551   4.588   6.849  14.514  0.1851  0.3138 -0.0933
25368W        W41552  10.110   0.741  12.613  0.0893 -0.2540  0.2017
25369W        W41553   7.014  13.059  14.381 -0.2473  0.0438 -0.0748
25370W        W41554  18.067  10.985   1.102 -0.1283 -0.0919 -0.1383
25371W        W41555  16.835   8.951  10.020 -0.2842  0.1515 -0.0530
25372W        W41556   4.251   3.212  13.808 -0.0321  0.2285 -0.2145
25373W        W41557  14.871   3.481  13.224  0.0911 -0.1761  0.2920
25374W        W41558   8.487  14.141   1.401 -0.2075  0.0899 -0.4717
25375W        W41559   1.278  16.778  13.770  0.2772  0.0566  0.1629
25376W        W41560  15.218   9.579   4.107  0.0559 -0.0973  0.3877
25377W        W41561   6.212   1.817  12.335 -0.2920 -0.0288  0.0781
25378W        W41562  15.197   5.170  13.177  0.0363  0.1879 -0.1364
25379W        W41563  17.432   6.093   2.015  0.2291 -0.3238  0.1025
25380W        W41564  15.503  10.159  11.509 -0.2550  0.2974  0.0647
25381W        W41565   8.399  13.745   2.315  0.0153  0.0566  0.3664
25382W        W41566  11.376  12.552   2.704  0.4455  0.2844 -0.0396
25383W        W41567   9.821  17.370  13.183  0.0716 -0.0785 -0.2108
25384W        W41568  11.028   0.093  12.702 -0.0948  0.0321 -0.1537
25385W        W41569  10.107  11.104  15.305 -0.1943 -0.3527 -0.0261
25386W        W41570  14.896   3.520  11.862 -0.2235  0.0020  0.2339
25387W        W41571  18.243  13.159   3.196 -0.1602 -0.1131 -0.2063
25388W        W41572  17.233   5.015   3.051 -0.1180 -0.1112 -0.3078
25389W        W41573  15.249  15.696  14.219  0.0027 -0.0038 -0.1939
25390W        W41574   7.904  18.179  12.042  0.1981 -0.3208  0.1229
25391W        W41575  14.996  16.533   2.685 -0.0219  0.2460  0.1000
25392W        W41576   4.485  10.527   2.458  0.1025 -0.0449 -0.2515
25393W        W41577   8.104  14.543   2.487 -0.0533 -0.3161 -0.1677
25394W        W41578   9.049   7.349   2.696  0.3429 -0.2741  0.3766
25395W        W41579   4.938   2.633  12.136 -0.1217  0.0693 -0.0430
25396W        W41580   4.360   8.679  13.063  0.1123  0.3724 -0.0404
25397W        W41581  12.903  17.037  14.464 -0.0336  0.0254 -0.0426
25398W        W41582   5.025   7.820  11.717  0.1738  0.4043 -0.1674
25399W        W41583  18.594   5.730  11.146 -0.2969 -0.2120  0.4268
25400W        W41584   9.646  13.656   4.965 -0.0832 -0.1127  0.1372
25401W        W41585  18.819   8.937   3.334  0.0697  0.2466 -0.2132
25402W        W41586   8.439   0.771   2.043 -0.2368 -0.1220  0.1455
25403W        W41587   7.593   1.101   5.481 -0.1324 -0.0920  0.0314
25404W        W41588   0.749   2.413  15.143  0.0241 -0.3737  0.1505
25405W        W41589   2.599  14.501  10.029  0.0691 -0.1340  0.1617
25406W        W41590   0.340   8.809   5.639 -0.1700  0.0774  0.1723
25407W        W41591   7.122  17.967  11.439 -0.0255  0.3616 -0.3192
25408W        W41592   7.527  17.852   1.814  0.0514  0.1407 -0.0803
25409W        W41593  17.193   1.204  12.082  0.0745 -0.1837  0.1505
25410W        W41594  10.096   0.235   4.593  0.1447  0.2198 -0.1089
25411W        W41595   8.867   4.132  11.447 -0.1703  0.3199  0.0630
25412W        W41596   0.702   6.620  12.134  0.3761 -0.0915 -0.1681
25413W        W41597   5.270  11.859  11.423 -0.0368  0.0020  0.0046
25414W        W41598   7.749  11.777  11.917  0.0863 -0.0154 -0.2680
25415W        W41599  12.276   0.899  12.030 -0.0265 -0.1860 -0.0490
25416W        W41600   8.147  18.713   5.184  0.0886 -0.2801  0.2216
25417W        W41601   1.120   9.615   4.191 -0.1553 -0.0191  0.1144
25418W        W41602   6.031  18.262  12.375  0.1280  0.2232  0.2588
25419W        W41603   7.204   6.301  11.331  0.0973 -0.1574 -0.0038
25420W        W41604   7.554   6.728  10.500 -0.3477  0.0335  0.0475
25421W        W41605  14.155   1.156   4.808  0.1816  0.4391 -0.0660
25422W        W41606   5.787   4.797  14.256  0.0604  0.1181  0.0232
25423W        W41607   1.081   0.418  13.960 -0.0858  0.2824 -0.1116
25424W        W41608  11.566   7.170   4.223  0.0570  0.0753  0.0468
25425W        W41609  18.033   7.681  11.814  0.4833 -0.2853 -0.0502
25426W        W41610   8.787   2.739  11.008  0.0913 -0.2272  0.1675
25427W        W41611  15.066   3.792   3.469  0.2253  0.1522 -0.1745
25428W        W41612  11.962   4.169   5.110 -0.1534  0.1518 -0.1796
25429W        W41613   8.638   4.622   4.883 -0.0439 -0.0403 -0.0282
25430W        W41614   1.532   7.396   2.036  0.1174 -0.1567  0.2291
25431W        W41615   7.996   1.430   2.951  0.1831  0.0330  0.2728
25432W        W41616  17.499   2.143   2.084  0.3171  0.0942 -0.2292
25433W        W41617  15.782  11.602  11.927  0.1113  0.1829 -0.0889
25434W        W41618   9.038   0.718   3.479 -0.1908  0.0658  0.0676
25435W        W41619   1.513   2.790  11.579  0.1201 -0.3194  0.0398
25436W        W41620   7.849  17.294   5.085 -0.3462 -0.0944  0.3547
25437W        W41621  14.195   9.228  15.053 -0.0410 -0.0910 -0.0914
25438W        W41622  13.355   8.919   1.874 -0.0770 -0.0475 -0.3243
25439W        W41623  15.152  16.930  15.411 -0.1577  0.1538 -0.1773
25440W        W41624  18.775  18.438  10.361 -0.1469 -0.0381 -0.1091
25441W        W41625  16.869   7.251  13.344 -0.0436 -0.1296  0.3448
25442W        W41626   0.169  14.002   0.463 -0.0278  0.2099 -0.1546
25443W        W41627   9.447  18.736  12.692  0.3715  0.0477 -0.0183
25444W        W41628  13.453  16.170  14.594 -0.0323 -0.0345  0.0181
25445W        W41629   4.244  14.433  11.112  0.1177  0.0758 -0.0636
25446W        W41630   2.368  11.323  11.379  0.1523  0.0940  0.0777
25447W        W41631  10.240  16.529  15.451  0.1486 -0.1360 -0.1126
25448W        W41632  10.606   7.073   4.327  0.1935  0.0742  0.0931
25449W        W41633   4.510   7.902   3.227  0.1120 -0.3748  0.0564
25450W        W41634  17.518  13.981  13.235  0.1457  0.1268 -0.0113
25451W        W41635  17.575   0.779   1.552  0.0822  0.1849 -0.0126
25452W        W41636  11.412  18.387   0.399 -0.0255  0.0638 -0.0341
25453W        W41637  17.092  16.460  11.117 -0.0319  0.2754 -0.2935
25454W        W41638   9.568   3.978   1.386  0.3185 -0.1576  0.0648
25455W        W41639  15.989  10.622   3.255  0.1777  0.1586  0.1926
25456W        W41640  13.139   8.495  13.975  0.0085  0.2223 -0.4156
25457W        W41641   3.312  18.838  10.685 -0.0483  0.1050  0.0353
25458W        W41642   1.039  13.670   9.742  0.0771 -0.0991 -0.0940
25459W        W41643   8.577   0.803   2.712 -0.3381 -0.2255  0.1931
25460W        W41644   6.705   2.919  12.928 -0.0579  0.1961  0.0101
25461W        W41645  16.096   3.495   0.975 -0.1445  0.1222  0.1891
25462W        W41646  10.518  18.452   4.228 -0.0280 -0.0386 -0.1671
25463W        W41647   9.391   0.193   0.923 -0.3825  0.1268  0.0310
25464W        W41648  15.738   1.783  13.247 -0.2653  0.2804 -0.1593
25465W        W41649   8.605  13.034   2.531  0.0781  0.3047  0.1094
25466W        W41650   5.856   6.618  13.828  0.1452  0.0757 -0.1777
25467W        W41651  13.338   8.164   1.088  0.0640 -0.0873  0.2438
25468W        W41652   1.727  12.542   5.354  0.0218 -0.1273 -0.2550
25469W        W41653  15.356  15.880   1.142  0.0883 -0.0206 -0.1443
25470W        W41654   2.718   1.282   0.553 -0.0883  0.2030 -0.2243
25471W        W41655  11.262  12.368  12.663  0.3237 -0.2630  0.0366
25472W        W41656   9.263  13.598  14.671 -0.2238  0.0481  0.1464
25473W        W41657   0.438  10.147  12.238 -0.0344 -0.2574 -0.1239
25474W        W41658   5.395   4.943   0.368  0.3942  0.0696  0.3741
25475W        W41659  15.491  10.485  15.031 -0.0304  0.0030 -0.0627
25476W        W41660  12.003   8.364  12.142 -0.3157  0.0888  0.3608
25477W        W41661  10.597   2.263   1.546  0.1418  0.0220  0.1461
25478W        W41662   3.869   7.499  15.032 -0.0656 -0.1021 -0.2208
25479W        W41663   0.125   5.440  11.304  0.1095 -0.0398 -0.0973
25480W        W41664   5.092   6.969   0.006 -0.0421 -0.2703 -0.1360
25481W        W41665  16.505  17.141  13.533 -0.1844  0.0761  0.1505
25482W        W41666   6.482  12.864   3.837 -0.0783 -0.0844 -0.2343
25483W        W41667   7.865  13.820   2.537 -0.3842  0.0450 -0.2553
25484W        W41668   8.642   7.447   2.510  0.2204  0.2014  0.0297
25485W        W41669  17.138   4.940  14.095  0.2016  0.3259  0.0268
25486W        W41670  14.968  11.350  13.681 -0.1201  0.1200  0.0448
25487W        W41671   9.715  12.661  14.582 -0.0863  0.0064 -0.1838
25488W        W41672  14.896   4.616  11.807  0.1892 -0.4689  0.3771
25489W        W41673  13.328  15.901  13.627 -0.1976  0.1084  0.0205
25490W        W41674  11.839   1.283  13.182  0.1828 -0.1567  0.0634
25491W        W41675  14.800   7.237   1.858 -0.3125 -0.1960 -0.2030
25492W        W41676   8.784  17.674  15.260 -0.2614  0.1485 -0.0578
25493W        W41677   4.348   9.630  13.137  0.0202  0.1145 -0.0652
25494W        W41678  17.247   3.473  10.298  0.1104  0.1400  0.1106
25495W        W41679   4.576  18.201  11.941  0.0481 -0.3097  0.2100
25496W        W41680  14.751  14.367  13.448 -0.0059  0.1367 -0.0485
25497W        W41681  13.368  11.929   3.736  0.3605  0.2645  0.0025
25498W        W41682  17.920   6.411  14.657 -0.0509 -0.1586 -0.0000
25499W        W41683  14.886  11.126  15.001  0.2858  0.2044 -0.0926
25500W        W41684  18.349   1.459   1.113  0.0019  0.1406  0.0890
25501W        W41685   2.146   3.338   5.913  0.1494  0.1064 -0.1034
25502W        W41686   6.655   7.834  12.065 -0.0775 -0.1695  0.2103
25503W        W41687   2.727   8.792  10.702 -0.0949 -0.1725 -0.2565
25504W        W41688   2.056   9.333  13.627 -0.0997 -0.1133 -0.0422
25505W        W41689  12.213  18.337  12.477  0.3638 -0.1099  0.3562
25506W        W41690   0.210   3.913   1.914  0.0556 -0.0165  0.2690
25507W        W41691   8.443  17.578   0.235 -0.1683  0.1921 -0.2701
25508W        W41692  15.932  16.679  10.516 -0.2552 -0.3539 -0.1847
25509W        W41693   8.711   3.813  15.382 -0.0521  0.2072 -0.0689
25510W        W41694  18.346   9.573  15.391 -0.1885  0.4635 -0.0211
25511W        W41695   9.365  12.177  14.209 -0.1159  0.0498 -0.1192
25512W        W41696  11.074   4.765  11.946 -0.0646  0.1308 -0.0084
25513W        W41697   6.143   1.594  13.919  0.2535  0.0234 -0.1913
25514W        W41698  12.003   8.456   5.035  0.3535 -0.3370 -0.0826
25515W        W41699  10.000   5.384   4.118  0.3435 -0.1324 -0.2644
25516W        W41700   5.645   2.913   3.392 -0.0356  0.0235 -0.0739
25517W        W41701   5.769  17.262  15.170  0.0164  0.0097 -0.0161
25518W        W41702   8.407  13.116   0.400  0.1907 -0.2204 -0.1226
25519W        W41703   9.864   2.768   1.130 -0.1865  0.1531  0.1829
25520W        W41704   7.557  12.956  14.335 -0.3328  0.1991  0.2924
25521W        W41705   2.447   3.636   2.060  0.0558  0.2002 -0.2998
25522W        W41706  14.143   6.910  14.270 -0.0108 -0.2228 -0.4102
25523W        W41707  10.648  13.725  12.190 -0.1286 -0.1160 -0.1183
25524W        W41708  18.247   2.944   3.262  0.1062  0.0687  0.3655
25525W        W41709  10.757  14.051  12.560  0.2652 -0.0762 -0.0204
25526W        W41710   1.275   4.998   2.762  0.1520 -0.1065 -0.1863
25527W        W41711   5.668   4.630   2.447 -0.0170  0.2543 -0.1118
25528W        W41712   3.375  18.440  12.531 -0.0898  0.0985 -0.0438
25529W        W41713  12.084  16.325   2.058  0.3562  0.1127  0.3109
25530W        W41714  18.120  15.276   4.802  0.0351 -0.1896 -0.0089
25531W        W41715   1.795   7.063   4.447  0.0730  0.2837 -0.0845
25532W        W41716   7.657   1.291   3.556  0.3066  0.4748 -0.2478
25533W        W41717  10.489   9.617  12.774  0.1628  0.1438  0.0111
25534W        W41718   0.958   4.572   2.557  0.1938  0.0529 -0.0932
25535W        W41719  13.971  11.499   2.590 -0.0630  0.1586 -0.0361
25536W        W41720  14.790   2.823   2.504 -0.0646 -0.0578 -0.0313
25537W        W41721   0.170   7.007   2.977 -0.1737 -0.0899 -0.0334
25538W        W41722  17.071   6.433  10.470 -0.2017 -0.0045  0.3247
25539W        W41723  13.838   8.187  11.407  0.3183 -0.1962 -0.0790
25540W        W41724   2.457   4.951  15.020 -0.3392 -0.1963 -0.1383
25541W        W41725  11.965  12.576   4.649  0.5187 -0.0206  0.0478
25542W        W41726   3.259  15.521  12.081 -0.0131  0.2203 -0.1960
25543W        W41727   6.013  17.380  12.202  0.0344 -0.0050 -0.2769
25544W        W41728  13.091   5.376  14.009 -0.1036  0.3695 -0.1211
25545W        W41729   4.647  15.088  10.815  0.0798  0.1011  0.2959
25546W        W41730   9.541   6.995  13.177 -0.0308  0.1012 -0.3358
25547W        W41731   9.944   5.987  15.442  0.1183 -0.0814 -0.1522
25548W        W41732   8.398  13.505   4.440 -0.0382  0.1152  0.4552
25549W        W41733   9.884  14.397   0.719 -0.1150  0.2489  0.0663
25550W        W41734   4.080   8.285  14.610  0.0992  0.0109 -0.2834
25551W        W41735  10.679   5.702   1.359  0.3462 -0.2120 -0.0141
25552W        W41736   0.798   2.991   1.364 -0.0677  0.1993 -0.1321
25553W        W41737   5.478   1.470   0.765 -0.3249  0.1895  0.1088
25554W        W41738   1.910   8.235  14.486 -0.0439  0.0876  0.1651
25555W        W41739   6.850  13.760   0.793 -0.0367  0.1536  0.0137
25556W        W41740  16.667  16.941  15.155 -0.0990  0.2159 -0.2531
25557W        W41741  11.959   8.324  15.223  0.2686  0.0412 -0.3211
25558W        W41742   6.097  15.368  12.451  0.0754 -0.0533  0.0961
25559W        W41743   6.520   1.614   4.528  0.1293  0.1256 -0.0257
25560W        W41744   4.821   4.805   2.759  0.1600 -0.3359 -0.1588
25561W        W41745  13.276   7.559   3.845  0.1669  0.2595  0.0270
25562W        W41746   9.089   8.668   4.599 -0.1273  0.2515  0.0275
25563W        W41747   9.003   5.407   2.499  0.0676  0.0162  0.1313
25564W        W41748   5.154  12.428   9.730 -0.0197 -0.0049  0.1690
25565W        W41749   7.959   0.042   1.922 -0.2238  0.3028 -0.2465
25566W        W41750   4.071   2.484  12.612  0.0644 -0.0863 -0.6415
25567W        W41751   0.836  12.381  10.677  0.1394  0.1915 -0.0616
25568W        W41752  11.676   8.139   1.896 -0.3006  0.1913  0.1997
25569W        W41753  14.823   8.749  14.455 -0.1106  0.2517 -0.1405
25570W        W41754   1.454  17.093   4.034 -0.0350  0.1311  0.0111
25571W        W41755   1.900   9.022   5.503  0.1404 -0.1599 -0.1071
25572W        W41756   8.911   4.537  12.778 -0.2632 -0.0474  0.3434
25573W        W41757   0.405  14.409   4.818 -0.2696  0.0344 -0.2697
25574W        W41758  10.963   3.672   3.773  0.1044  0.1393  0.2768
25575W        W41759   7.709   6.407   0.034  0.0206  0.0797  0.2228
25576W        W41760   0.869  12.030   1.464 -0.0066  0.2698  0.1757
25577W        W41761   3.304  17.103  12.259  0.1517  0.2024 -0.0909
25578W        W41762   9.889  13.413  11.854 -0.1743  0.5082  0.1581
25579W        W41763   9.151  18.141   0.408  0.0228  0.1698  0.2101
25580W        W41764  12.113   1.228   3.645 -0.0090 -0.0377 -0.3101
25581W        W41765   3.542   1.628  15.517  0.1365  0.2710 -0.2016
25582W        W41766   1.286  12.868   1.043 -0.1729  0.2064 -0.1079
25583W        W41767   3.550   8.729   4.351 -0.2530  0.2026 -0.0618
25584W        W41768  16.886   2.354   2.015 -0.0115 -0.1293 -0.0685
25585W        W41769  13.230   5.994  11.108  0.1519 -0.1713  0.1398
25586W        W41770   5.969   9.284   4.949  0.0894  0.1409 -0.1136
25587W        W41771  13.385  17.269   3.334 -0.1834  0.2877 -0.0553
25588W        W41772  12.863   6.542   4.514 -0.0595  0.0713  0.0365
25589W        W41773   4.457   9.640   3.607 -0.3595 -0.0833 -0.1974
25590W        W41774   7.134  17.984  15.171 -0.1853 -0.1187 -0.0671
25591W        W41775   3.478  17.083  15.267  0.2119 -0.0373 -0.0474
25592W        W41776   7.474  16.331  14.023  0.1546 -0.1449  0.2427
25593W        W41777  12.518  11.689   1.213 -0.1764  0.1829  0.2226
25594W        W41778   4.456   0.724  13.304 -0.0083 -0.2909  0.0653
25595W        W41779  17.158   6.653   1.265  0.2341 -0.0767  0.4705
25596W        W41780   9.033   4.376   0.038 -0.0178 -0.0064 -0.1522
25597W        W41781  16.404  17.199   4.758 -0.1615  0.0475  0.2945
25598W        W41782  10.338   4.407   2.710 -0.1299 -0.0415  0.0312
25599W        W41783   0.014   1.132  14.730  0.2245 -0.3252 -0.0114
25600W        W41784   6.046   6.763   5.580 -0.2591 -0.1406 -0.1038
25601W        W41785  11.411   1.033   1.041 -0.2207  0.0970  0.2884
25602W        W41786   4.125  13.610  14.674 -0.0864 -0.3846 -0.1480
25603W        W41787  14.711   1.809   5.354 -0.2864 -0.3274  0.0433
25604W        W41788   0.429   8.526   3.927 -0.0367 -0.2712  0.1652
25605W        W41789   0.574   0.051  10.343  0.2628  0.3148 -0.1086
25606W        W41790  13.706   6.068  15.265 -0.0395  0.0137 -0.0293
25607W        W41791   2.773   8.331   1.005 -0.1294 -0.0019 -0.1905
25608W        W41792  10.043   9.411  14.449  0.1064 -0.3820  0.1452
25609W        W41793  17.620   4.284  14.946  0.1568  0.0289 -0.1623
25610W        W41794   7.624   3.103   2.445  0.2286 -0.0374  0.0671
25611W        W41795   0.567   0.871   1.365  0.0075 -0.1174 -0.1941
25612W        W41796   8.572   4.059   2.111 -0.0035  0.3732 -0.2104
25613W        W41797   0.530  17.941   4.100 -0.0178  0.0879 -0.0914
25614W        W41798  18.307  18.355  14.294  0.2082  0.1086  0.1887
25615W        W41799  17.292  14.380   0.018 -0.2227  0.1898  0.0815
25616W        W41800   4.925   5.805  15.249  0.2544 -0.0163 -0.1832
25617W        W41801  15.999  14.603   1.953 -0.3588 -0.0085 -0.0882
25618W        W41802  17.094  12.966   1.658  0.0516  0.1224 -0.3021
25619W        W41803   4.553   7.755  10.563  0.0923 -0.2470  0.2589
25620W        W41804  10.364   6.621  11.618  0.1992  0.2497  0.0264
25621W        W41805   5.755  10.484   0.184 -0.0056  0.2601  0.1243
25622W        W41806   5.921   4.679  10.743 -0.0093 -0.0372  0.0898
25623W        W41807   6.131  14.854  13.771  0.0679 -0.0631  0.4174
25624W        W41808  11.695  17.117   5.593 -0.2030  0.4572 -0.3991
25625W        W41809  17.481   0.925  12.384  0.0857 -0.1880  0.0628
25626W        W41810   4.892   7.222  14.132  0.0415  0.0692 -0.1659
25627W        W41811  14.790  18.713   4.389  0.0543 -0.0605  0.2363
25628W        W41812   9.964  11.914   0.780  0.2089  0.0179  0.1995
25629W        W41813  16.502  10.542  13.899  0.0901  0.3102  0.0303
25630W        W41814   9.278  11.285   0.055  0.2080  0.1996 -0.1149
25631W        W41815   1.364  13.880   3.336 -0.0148  0.1781 -0.0069
25632W        W41816   3.489  15.572  11.289 -0.1600  0.4147  0.1520
25633W        W41817   9.454  15.891   0.753  0.0621  0.2251  0.3185
25634W        W41818  11.695   5.288  13.953 -0.1822 -0.2854  0.0040
25635W        W41819  12.822   1.660  11.308 -0.0759  0.0924  0.2456
25636W        W41820  18.723   5.977   4.579  0.4347  0.0191  0.4819
25637W        W41821  14.208  12.977   2.871 -0.1270  0.0073 -0.4202
25638W        W41822  17.476   4.795  12.705 -0.2704 -0.0304  0.0132
25639W        W41823   5.609   0.858  13.756 -0.1415 -0.1060  0.1652
25640W        W41824  10.694  11.311   1.996 -0.0858 -0.2483  0.1268
25641W        W41825  16.595  12.673  15.480  0.4374 -0.0310  0.0341
25642W        W41826  18.841   4.864   4.232  0.2013 -0.3149 -0.0673
25643W        W41827  12.993   5.213   2.971 -0.0544 -0.0361  0.1173
25644W        W41828  18.537  18.695   0.001  0.0481 -0.2754  0.0299
25645W        W41829  13.540  17.014   2.579  0.1303 -0.0738 -0.3357
25646W        W41830   0.562   6.422   3.638  0.2215 -0.0077  0.1315
25647W        W41831  15.231   3.749  11.399 -0.0957 -0.1188  0.2420
25648W        W41832   3.277   6.995   1.901 -0.0481  0.1398  0.2445
25649W        W41833   1.295   2.304  13.565 -0.1621  0.1460  0.0787
25650W        W41834   5.629   1.187   1.799  0.0660  0.0577 -0.0138
25651W        W41835   2.167   1.036   4.888  0.1710  0.1161 -0.3858
25652W        W41836   8.518  12.350  11.928 -0.0952  0.0850  0.1090
25653W        W41837   9.977  12.490  15.039 -0.2902 -0.1261 -0.0023
25654W        W41838   8.890  12.458   5.052  0.0126  0.0712 -0.0407
25655W        W41839  18.253   5.374   5.216  0.2326 -0.1074 -0.0483
25656W        W41840   8.328   0.268   4.728  0.0460  0.0360  0.0681
25657W        W41841   7.988   0.578   0.335 -0.2469 -0.4988 -0.1104
25658W        W41842   2.028  15.269   3.203  0.3919 -0.1772  0.1033
25659W        W41843  18.567  10.352   0.733 -0.4349  0.0268  0.0394
25660W        W41844  14.435  14.566   4.959  0.1116 -0.1127  0.0666
25661W        W41845   1.248   7.421   3.303 -0.0889 -0.0483 -0.1946
25662W        W41846  10.243   5.270  12.024 -0.3010  0.2001  0.0233
25663W        W41847  18.618  16.398   5.416 -0.1923  0.0584 -0.0688
25664W        W41848  11.911  16.864   0.787 -0.0247  0.1541  0.1940
25665W        W41849  14.501  13.256   3.210  0.1606  0.1442 -0.0503
25666W        W41850   6.404  13.570   5.462  0.0208  0.3137  0.0546
25667W        W41851  14.378  11.940   9.831 -0.0272 -0.1275  0.0959
25668W        W41852   6.319   3.565  12.137 -0.2978 -0.4814  0.1846
25669W        W41853  17.638   8.443   3.630 -0.0108 -0.0340 -0.2062
25670W        W41854   6.146   0.109  13.793 -0.2000 -0.1297  0.0204
25671W        W41855  13.670  15.887  13.247  0.0684 -0.1242 -0.1253
25672W        W41856  18.437  11.608  14.266  0.2542 -0.3215  0.1488
25673W        W41857  16.550  12.212  12.734  0.1227  0.3697  0.0708
25674W        W41858  12.350   7.439   3.657  0.3938 -0.0084 -0.1132
25675W        W41859   5.800   3.374   0.214 -0.3196 -0.2192  0.1813
25676W        W41860  11.526   2.286   2.620  0.2638  0.3257 -0.1046
25677W        W41861  18.542  17.205  13.551 -0.1121  0.1855  0.0362
25678W        W41862   9.797   2.192  14.790 -0.2457  0.1856  0.1739
25679W        W41863   7.810  16.724  14.277 -0.0720  0.0293 -0.1406
25680W        W41864   2.601   3.967   0.321  0.3947 -0.2191 -0.0924
25681W        W41865   0.624   7.953   2.867 -0.2272  0.2274  0.2075
25682W        W41866   5.829   9.520   1.151 -0.2481 -0.0382 -0.2554
25683W        W41867   0.957  15.227  15.256  0.1293 -0.0178  0.0825
25684W        W41868   4.439  17.223  10.832  0.2240 -0.0110  0.0241
25685W        W41869  16.971   2.219  11.251  0.0944  0.1887  0.3777
25686W        W41870   8.777  10.020   0.449 -0.0489 -0.2820 -0.2691
25687W        W41871   2.168   5.187  12.575 -0.1773  0.1836  0.1979
25688W        W41872  16.087  18.367  14.202 -0.3924 -0.0823 -0.2381
25689W        W41873  14.938  10.348  12.346  0.2471  0.0067  0.2039
25690W        W41874   4.528  18.484   4.655  0.3481  0.2506  0.1180
25691W        W41875  18.800   6.491  15.521 -0.2856  0.3058 -0.0345
25692W        W41876  14.046   7.491   4.798 -0.3423 -0.1499  0.0032
25693W        W41877  18.583   4.615   4.743  0.0257 -0.1437  0.2969
25694W        W41878  12.489  16.808   0.119  0.0613 -0.2816 -0.1362
25695W        W41879   3.690  16.640   5.298  0.0751 -0.2293  0.0915
25696W        W41880   5.876   0.117   2.973 -0.0559  0.4338 -0.1961
25697W        W41881  15.833   5.231   3.674  0.0152  0.0171  0.0408
25698W        W41882  18.531  15.438   0.527  0.2021 -0.0103  0.0866
25699W        W41883   3.374   6.683  13.241  0.1068  0.2947  0.0526
25700W        W41884  16.531   0.988   5.038  0.1000 -0.0014  0.0388
25701W        W41885  14.856  14.621  11.170 -0.0931  0.0718  0.0965
25702W        W41886   5.376   6.488  12.927 -0.1596  0.0983 -0.2060
25703W        W41887   0.159  12.616  14.912 -0.1259 -0.1398  0.0375
25704W        W41888  11.409  17.160  14.951  0.1181  0.1736  0.1874
25705W        W41889  15.081   0.145   4.819  0.2307  0.1015 -0.2731
25706W        W41890   8.659  13.032   3.029 -0.3684  0.2623 -0.1383
25707W        W41891  15.559   2.195   5.104 -0.2545 -0.0307  0.0103
25708W        W41892  15.546  12.373   3.998 -0.3290 -0.2376  0.1623
25709W        W41893   8.019   5.325   1.120  0.0324  0.0657  0.0626
25710W        W41894   8.470  15.106   2.296  0.0639 -0.0181 -0.1381
25711W        W41895   1.930   1.383  13.672 -0.3761 -0.1156  0.2863
25712W        W41896   7.619  17.926   0.711 -0.1251  0.1651  0.0807
25713W        W41897   5.062  10.266  10.268  0.0208 -0.0157 -0.3143
25714W        W41898  13.812   6.669   1.109 -0.0798  0.0780 -0.2968
25715W        W41899  10.849   4.060   5.431 -0.2051  0.2305 -0.0781
25716W        W41900  16.589  16.836   2.969  0.2505 -0.0130  0.0069
25717W        W41901   2.281  12.907   3.015 -0.1390  0.0599  0.2808
25718W        W41902   1.736  17.521   3.902 -0.2830 -0.2201  0.0758
25719W        W41903  12.472   3.181  14.005 -0.1808 -0.0686  0.0267
25720W        W41904   8.936  16.480   0.228  0.2350 -0.3253  0.2266
25721W        W41905   0.044   7.706   4.355  0.2295 -0.0979 -0.0781
25722W        W41906  15.953  18.600   4.365  0.1111 -0.0427 -0.0452
25723W        W41907  12.703  15.266  10.506  0.0661 -0.0978  0.0125
25724W        W41908  15.156   4.120   1.816 -0.3041 -0.1067  0.0235
25725W        W41909  10.283  13.701  11.513 -0.3304 -0.0769 -0.2211
25726W        W41910  17.386  13.485  10.725  0.3832  0.2248 -0.2206
25727W        W41911  13.794   4.698   1.237 -0.1302  0.0692  0.2416
25728W        W41912  13.312  17.329   2.860  0.0484  0.4719 -0.0579
25729W        W41913  14.522   3.430   0.531 -0.1648 -0.1616 -0.0158
25730W        W41914  13.872  14.543   3.751 -0.0113  0.4684  0.0681
25731W        W41915  14.988  15.610   1.447  0.2040  0.0681  0.0267
25732W        W41916   9.931  17.481   1.687 -0.3815 -0.2504  0.2182
25733W        W41917  13.329   5.969   2.347 -0.0554  0.2891  0.0352
25734W        W41918   3.318  18.023   1.471  0.1204  0.1917  0.3823
25735W        W41919  11.342   1.790   0.001  0.0122 -0.2684 -0.0939
25736W        W41920  10.453  18.384   4.912  0.0326 -0.3597  0.1654
25737W        W41921   1.639  11.310  10.061 -0.0090  0.2298  0.1374
25738W        W41922   9.754  14.082  11.767 -0.1526  0.3077  0.0538
25739W        W41923  14.092   5.101   1.389  0.1189 -0.1700  0.0060
25740W        W41924  12.526   4.322  13.681  0.1160 -0.2387 -0.1434
25741W        W41925   0.998  15.358  13.013 -0.0298  0.3316 -0.2021
25742W        W41926   9.585   7.452  12.918 -0.0423  0.3342 -0.3431
25743W        W41927   0.282   0.714   4.858 -0.0446  0.0111 -0.1779
25744W        W41928   9.771  18.368   0.508 -0.1775 -0.3659  0.2105
25745W        W41929  14.312   3.431   1.869  0.2392  0.1887 -0.1825
25746W        W41930  18.081   6.531   3.853 -0.0600 -0.1115 -0.1210
25747W        W41931  13.363  10.211   1.726 -0.5285  0.2224  0.2244
25748W        W41932   7.783  18.328  12.744  0.1012 -0.1600 -0.0530
25749W        W41933   3.401   8.518  13.515  0.1050 -0.1241 -0.0679
25750W        W41934   2.872   3.166   4.294  0.0155 -0.1012  0.2260
25751W        W41935   3.562  14.101  11.404 -0.0444  0.0628  0.0423
25752W        W41936   4.382   3.143   0.444 -0.1002 -0.0547 -0.2966
25753W        W41937   9.363  15.054  12.866 -0.0995  0.1927 -0.0117
25754W        W41938   5.176  18.734  11.442 -0.0505  0.1269  0.1968
25755W        W41939   7.768  18.212   0.283  0.0172  0.1186 -0.4299
25756W        W41940  18.179  10.175  13.205  0.1167 -0.2065 -0.0166
25757W        W41941  13.348   8.041   3.899 -0.0932 -0.0566  0.0568
25758W        W41942  12.677   9.194  11.298 -0.3351 -0.0653  0.0001
25759W        W41943   0.339   1.462   0.557  0.2435 -0.3840  0.2916
25760W        W41944   2.834  16.897  13.445  0.1631  0.0600  0.0892
25761W        W41945   9.054  14.737  12.553  0.0416  0.0389 -0.0599
25762W        W41946   4.481  13.720   0.655  0.0400  0.3692  0.1419
25763W        W41947  17.029  16.289  11.993 -0.0411  0.3715 -0.2213
25764W        W41948  12.529   8.003  11.604  0.2108 -0.0509 -0.0867
25765W        W41949   8.693   2.961   3.266  0.1195 -0.1700 -0.0300
25766W        W41950  14.016  11.500  13.999 -0.0989 -0.0688 -0.0336
25767W        W41951   4.634   3.139   5.568  0.1571  0.1758 -0.0224
25768W        W41952   0.486   8.540  15.319  0.0792 -0.0391  0.0024
25769W        W41953  15.923  15.001   3.739 -0.6265 -0.1881  0.0569
25770W        W41954   1.072   2.092  12.630  0.1076 -0.0704 -0.0400
25771W        W41955   1.280  10.691  12.830  0.1555 -0.1299 -0.2321
25772W        W41956   4.020   3.476  14.171 -0.1976 -0.2462  0.3431
25773W        W41957   0.994  17.335   4.498 -0.0980 -0.0760  0.1064
25774W        W41958  10.832  14.867  13.710 -0.2004  0.0356  0.0018
25775W        W41959   8.110   1.101   3.698  0.1925 -0.2599  0.1258
25776W        W41960   8.786   6.507   2.327  0.3447  0.1189 -0.2837
25777W        W41961   0.708   6.037   2.911 -0.5190 -0.2157 -0.0900
25778W        W41962   7.134   1.635   3.505  0.1058  0.4146  0.1372
25779W        W41963   5.836  16.264   1.122  0.0160 -0.0331  0.1273
25780W        W41964   2.445   7.142   2.939 -0.1802 -0.1602  0.1485
25781W        W41965   2.354  15.611   3.058  0.0753 -0.1914  0.0617
25782W        W41966   9.814  15.805   3.270  0.1201 -0.2464  0.0827
25783W        W41967  17.566   7.943  11.985 -0.0810  0.1609  0.0019
25784W        W41968   0.621   4.297   5.840  0.2534  0.0585  0.2398
25785W        W41969  15.744   4.749  11.415  0.1601 -0.5446  0.0191
25786W        W41970   3.283   5.765  13.034  0.2057  0.2601  0.0043
25787W        W41971   7.392  14.148  12.460 -0.1219 -0.1799  0.1152
25788W        W41972   8.396   4.850  14.105 -0.1427  0.2453 -0.0737
25789W        W41973   2.583   4.625   1.816 -0.1881 -0.0704 -0.0588
25790W        W41974   3.266  13.537  14.777 -0.2302  0.1927  0.2630
25791W        W41975   6.987  13.865   2.659 -0.2204  0.0323  0.5880
25792W        W41976  10.116  16.994   3.875 -0.2620  0.0452 -0.0538
25793W        W41977   0.824  17.919   0.516  0.2474  0.4317  0.1061
25794W        W41978   3.807  11.526  12.531  0.1236  0.0031  0.1993
25795W        W41979  16.554   6.677   2.076 -0.1819 -0.2487 -0.0201
25796W        W41980   5.954   7.266   4.542  0.1951  0.0088  0.2836
25797W        W41981  17.326   7.563  12.506  0.1109 -0.0477 -0.1228
25798W        W41982   3.869  11.972   1.727 -0.1207  0.0377 -0.0293
25799W        W41983  16.820  14.170   4.301 -0.1314 -0.1262 -0.3995
25800W        W41984  17.797   5.191  12.668  0.3746 -0.1762  0.1401
25801W        W41985   9.190   3.251   0.188  0.0811 -0.1236 -0.1218
25802W        W41986   5.521   5.760   2.663  0.1174 -0.1033 -0.0375
25803W        W41987   0.467  10.137   0.393  0.0215  0.1502  0.1335
25804W        W41988  10.428   7.572  15.244  0.0110 -0.1312 -0.0778
25805W        W41989   9.512  15.706   2.028 -0.3198 -0.0550 -0.2539
25806W        W41990   2.692   4.480   2.807 -0.1690  0.0217  0.6400
25807W        W41991   1.879   7.474   2.354 -0.1582 -0.1884 -0.0549
25808W        W41992   4.490  16.757  14.783 -0.1891  0.1532  0.1636
25809W        W41993  15.672  10.086  13.629 -0.1950  0.0466  0.1301
25810W        W41994  11.726  14.045  14.536 -0.1265 -0.1414 -0.2792
25811W        W41995  15.835  11.366  14.731  0.0849  0.0784 -0.1377
25812W        W41996   9.504  18.468  13.650  0.1458 -0.0309 -0.0755
25813W        W41997  16.011   2.763   3.284 -0.0435 -0.2306  0.2162
25814W        W41998  17.081  18.480   2.031  0.0014  0.2090  0.0011
25815W        W41999   9.302   1.931  14.979  0.0784  0.1430  0.2205
25816W        W42000  13.303  14.959  13.513 -0.1177 -0.0048 -0.1964
25817W        W42001  18.851   1.413   4.147 -0.1139  0.2222  0.1955
25818W        W42002  18.298  17.652  12.946 -0.1616  0.1440  0.1436
25819W        W42003  14.180   6.208   4.093 -0.1420  0.0710 -0.0962
25820W        W42004   6.949  17.017   2.338 -0.0007  0.1928  0.3683
25821W        W42005  11.413   2.626  12.207 -0.3288 -0.1467 -0.0196
25822W        W42006  10.377   5.059  15.482 -0.1494 -0.1070 -0.3714
25823W        W42007   8.954   2.685  14.280  0.1719 -0.1315 -0.0489
25824W        W42008  16.337  13.899   2.110 -0.3592  0.2794  0.2025
25825W        W42009  12.449   6.013   4.437  0.2099 -0.0837  0.0751
25826W        W42010   7.534  12.916   1.237  0.1658 -0.0393 -0.1183
25827W        W42011  13.243  15.146  13.028  0.2113 -0.0502 -0.2736
25828W        W42012   6.356  16.805   1.215  0.2214 -0.1329  0.2416
25829W        W42013  14.290  16.924  14.966  0.0063  0.1177  0.1936
25830W        W42014   9.906  12.567   4.841 -0.0163  0.1754  0.0853
25831W        W42015  17.507   8.465  11.635 -0.0194  0.0544 -0.4021
25832W        W42016  11.468   5.570  14.604  0.4252 -0.0225 -0.0755
25833W        W42017  12.805   7.683   0.843  0.0348  0.0670  0.4386
25834W        W42018  17.261  14.194   5.130  0.3000  0.0686 -0.0122
25835W        W42019  17.483   3.031  14.232 -0.0924  0.1508 -0.3701
25836W        W42020   2.954   2.199  15.026  0.2000 -0.2696 -0.0664
25837W        W42021   6.987   4.378   3.387  0.1409  0.1106  0.1016
25838W        W42022  10.959  15.527  11.399 -0.1574  0.3354  0.1288
25839W        W42023   1.740   2.381   5.569  0.4391  0.0285  0.2050
25840W        W42024   5.576   4.688   3.466  0.2650  0.4933  0.1039
25841W        W42025  17.467   3.791  15.132 -0.1278 -0.2535  0.0027
25842W        W42026   1.495   3.721   3.590 -0.1982 -0.0545  0.1134
25843W        W42027   3.868   9.133  15.538  0.0553  0.0416  0.2634
25844W        W42028   1.074   1.299  11.446  0.1484  0.2030  0.1335
25845W        W42029  11.447  10.333  13.171  0.1947 -0.1037 -0.1643
25846W        W42030   0.395   8.993   1.446 -0.0860 -0.1349  0.0883
25847W        W42031   5.159   5.045   5.325  0.0473 -0.0158 -0.1125
25848W        W42032   1.827   4.376   9.530  0.0364 -0.1341 -0.1405
25849W        W42033  17.306  15.325   0.123 -0.3363  0.1320 -0.2627
25850W        W42034   1.731   0.415   1.425 -0.0130  0.2195 -0.3081
25851W        W42035   9.158   6.999   2.319 -0.3868 -0.1172 -0.2802
25852W        W42036   0.263   2.508   4.896  0.1259  0.0340 -0.3133
25853W        W42037  12.684   9.542  15.475 -0.2540 -0.0651  0.0505
25854W        W42038   0.958  18.366   4.563  0.0590 -0.0744 -0.2648
25855W        W42039   2.414  17.741   1.549 -0.3319 -0.1906  0.1726
25856W        W42040  11.918   6.162   0.813  0.4080  0.0245  0.1451
25857W        W42041  12.708   4.555   0.707 -0.1110 -0.1266 -0.0570
25858W        W42042  12.432  15.214  15.143 -0.1977  0.2912  0.2076
25859W        W42043   5.409   9.871   4.988  0.1097 -0.3496  0.2350
25860W        W42044   3.101   0.747   0.679 -0.1735  0.2854 -0.0691
25861W        W42045  15.481   5.557  14.149 -0.0450 -0.1612 -0.2960
25862W        W42046  12.159   8.722   4.615  0.0181 -0.1033 -0.0055
25863W        W42047   2.270   3.870  10.838 -0.1465  0.0906 -0.1145
25864W        W42048  10.421  15.999   2.711  0.1473  0.4198  0.0487
25865W        W42049  18.844  11.698   5.965 -0.0917 -0.1106 -0.1868
25866W        W42050  18.514  16.573  12.369 -0.1220 -0.1888  0.1081
25867W        W42051  11.061  16.140   2.113 -0.2141  0.0435 -0.1578
25868W        W42052  14.259   1.308  14.098  0.2124  0.0401 -0.0579
25869W        W42053  13.717   2.010   5.207 -0.4976 -0.1838 -0.2675
25870W        W42054  16.094   6.573  15.066  0.0066 -0.0774  0.0796
25871W        W42055  12.305  18.321   3.035  0.1624 -0.0311  0.0408
25872W        W42056   4.150  10.853   1.590  0.1811  0.2324 -0.2138
25873W        W42057  18.273  13.974   1.936 -0.0969 -0.1122  0.0016
25874W        W42058  18.611  14.716  14.344 -0.1041  0.1763 -0.0097
25875W        W42059  15.939  17.808  14.713 -0.1176  0.0738  0.2414
25876W        W42060   6.297  10.313   2.889  0.0804 -0.0980 -0.2888
25877W        W42061   3.426  17.855  13.282 -0.2280  0.0467  0.1113
25878W        W42062  11.325   5.471  11.151 -0.1051 -0.2865  0.0516
25879W        W42063   1.225   9.089   0.874  0.2428 -0.0663  0.0878
25880W        W42064  11.681   8.191   3.903 -0.3345  0.0353 -0.0044
25881W        W42065   3.186   3.335  11.595  0.0254  0.0716  0.3755
25882W        W42066   5.472   2.491   2.808  0.0675 -0.3455 -0.2180
25883W        W42067   5.757   3.139   2.467  0.1056 -0.1101  0.1593
25884W        W42068  11.938  17.079   0.319  0.1770 -0.0466  0.0233
25885W        W42069   3.478   3.319   0.200  0.0657 -0.2996  0.0680
25886W        W42070  18.091   1.026   3.563 -0.1695  0.0262  0.0416
25887W        W42071  12.070   1.461  13.565  0.1330 -0.4860  0.0434
25888W        W42072   5.758  17.775   5.777  0.1178 -0.0120 -0.0198
25889W        W42073   0.119  13.002  12.253 -0.0254  0.1555 -0.1434
25890W        W42074  13.382   8.696  14.381 -0.0252  0.0869 -0.0378
25891W        W42075   1.612   8.206   3.687 -0.2092  0.2862  0.0102
25892W        W42076  17.895   8.454   0.299  0.0877 -0.3348 -0.1682
25893W        W42077  16.230   4.248  13.253 -0.0039  0.2360  0.5344
25894W        W42078  17.952  12.852  15.385  0.0620  0.0385 -0.3932
25895W        W42079  13.607  18.620  11.495 -0.4841 -0.1260  0.4898
25896W        W42080   5.106  11.407  11.207  0.2314 -0.0242 -0.1525
25897W        W42081  15.225   2.943   2.812  0.2697 -0.3970 -0.3862
25898W        W42082  16.873  16.258   1.473  0.1133 -0.0652 -0.0279
25899W        W42083   6.614   8.652   2.308  0.3404  0.1169 -0.0430
25900W        W42084   4.704   4.263  12.137  0.2528 -0.0632  0.1120
25901W        W42085  14.112   8.001   2.235 -0.2271  0.2135  0.0100
25902W        W42086   6.377   3.752  10.945 -0.0093 -0.4818  0.0210
25903W        W42087  16.876  14.889  10.406  0.2612 -0.2150  0.1184
25904W        W42088  16.642  15.857   0.667  0.0245  0.0159 -0.1802
25905W        W42089  17.235  17.412  10.756 -0.2606 -0.3139  0.1956
25906W        W42090   7.372  15.607   2.578 -0.1304  0.2242 -0.1179
25907W        W42091   9.789  12.031   1.732  0.1745  0.0464 -0.0625
25908W        W42092  17.556  10.229   2.007 -0.3396  0.1756 -0.0463
25909W        W42093  14.544  17.234   2.785 -0.0251  0.4144  0.1489
25910W        W42094  13.108   7.766   1.994 -0.1406  0.2778  0.1606
25911W        W42095  14.593  16.069  13.328  0.0041 -0.0856 -0.0966
25912W        W42096   2.388   0.924  10.830  0.0023 -0.1055  0.1636
25913W        W42097  11.135   1.640  14.963  0.2617  0.0122 -0.0859
25914W        W42098   6.137  10.000   4.460  0.0254 -0.0722 -0.4732
25915W        W42099   2.145  16.078  15.002 -0.0172 -0.0064  0.1192
25916W        W42100   5.441  11.232  12.104  0.2779  0.1070 -0.1336
25917W        W42101  16.438   5.417   0.849  0.0376  0.1157  0.1053
25918W        W42102  13.541   4.394   4.180 -0.1734  0.1024  0.1329
25919W        W42103   3.519   3.333  14.663  0.0958 -0.0088 -0.0041
25920W        W42104   0.065   8.045  12.891 -0.1387  0.1021  0.2695
25921W        W42105   2.970   4.484   2.147 -0.0689  0.2879 -0.0906
25922W        W42106   1.257  18.092   3.324 -0.2640 -0.2694 -0.2567
25923W        W42107  16.864   3.936   2.354 -0.1018 -0.2292  0.1437
25924W        W42108   4.787  10.699  12.328 -0.2126  0.1026  0.2461
25925W        W42109  18.628  16.472   0.626 -0.1853  0.1194 -0.0202
25926W        W42110   0.255  15.460   1.808  0.0395  0.2174 -0.2333
25927W        W42111   7.203   5.596   2.788 -0.0267  0.0711 -0.5588
25928W        W42112  10.293   7.189  11.929 -0.0894  0.2426  0.3090
25929W        W42113  10.143   7.711  14.197  0.0180 -0.2799 -0.2638
25930W        W42114   2.737  17.687  12.820  0.1506 -0.3487  0.1259
25931W        W42115  15.463  17.376   1.039  0.0754 -0.2209 -0.0901
25932W        W42116   1.172  15.563   2.253 -0.1699  0.1377 -0.0492
25933W        W42117  17.465   8.128   4.586 -0.1447 -0.0113  0.1693
25934W        W42118  16.237   0.237  12.631 -0.0844  0.1787 -0.1183
25935W        W42119   6.768  12.957  11.751 -0.1944  0.1845 -0.1428
25936W        W42120  12.903  11.612   4.156  0.2113 -0.1224  0.0730
25937W        W42121  10.822   9.376   2.603 -0.0445  0.0508  0.0200
25938W        W42122  11.052  13.987  10.816  0.1758 -0.2874 -0.0828
25939W        W42123   5.515  12.988   1.402  0.0902  0.0005 -0.0703
25940W        W42124   9.342  13.890  11.060  0.1605  0.3170 -0.2294
25941W        W42125  18.468   1.456  14.741 -0.4304  0.1265  0.2107
25942W        W42126  17.303   2.044   4.836 -0.1859 -0.0155 -0.0788
25943W        W42127  18.418  13.349   2.700 -0.2099  0.0117  0.0462
25944W        W42128   3.570   4.231  15.248  0.3440 -0.0182 -0.2649
25945W        W42129   4.931  17.991   1.523  0.1085 -0.4682  0.2709
25946W        W42130  16.979   7.493   0.836  0.2559 -0.0777  0.2087
25947W        W42131   9.624  12.619   0.478 -0.1774  0.2315  0.1770
25948W        W42132  16.570  12.297  15.121 -0.1853  0.2626 -0.0168
25949W        W42133   2.117  16.933  15.388  0.2195 -0.0576  0.0314
25950W        W42134   0.834   9.028   0.484  0.1038 -0.1739  0.1781
25951W        W42135   8.413   8.558   3.181 -0.3126  0.0613  0.2376
25952W        W42136  11.688  15.747   2.631 -0.1055 -0.3321 -0.2786
25953W        W42137   5.995  10.082   1.264  0.0114  0.1631  0.1990
25954W        W42138   8.924  13.658  11.146  0.1703  0.0823  0.5042
25955W        W42139   4.972  12.898   0.922  0.1148 -0.0834  0.1609
25956W        W42140  15.701   0.272  10.898 -0.0558 -0.0293  0.0758
25957W        W42141  16.561  15.176   3.310  0.0948  0.0431 -0.0159
25958W        W42142   1.925  18.047   3.976 -0.2073  0.0776 -0.3507
25959W        W42143   5.691  15.404   5.286  0.2168  0.0796  0.0222
25960W        W42144  14.460   6.478  11.023 -0.0566 -0.0239  0.2261
25961W        W42145   8.907   9.687  11.514 -0.0978  0.3500  0.0753
25962W        W42146   3.610   2.061  11.818 -0.0870  0.0787 -0.0970
25963W        W42147   4.190   0.678   0.779 -0.0929  0.0656  0.0802
25964W        W42148   2.771  17.819  12.249  0.2838 -0.4322  0.0872
25965W        W42149  14.569  10.388   2.642  0.1997  0.0907  0.0695
25966W        W42150  11.411  17.872   5.433  0.3617  0.3625 -0.0000
25967W        W42151   0.805  15.978   3.487 -0.2768 -0.0144 -0.0668
25968W        W42152   2.793   7.909   0.645  0.1149  0.3547 -0.0619
25969W        W42153   8.335  15.031  11.559 -0.1631  0.2402 -0.0392
25970W        W42154  12.851  15.080   2.616 -0.1200 -0.0264  0.0778
25971W        W42155  13.842  15.519   1.203  0.3321  0.1175  0.2182
25972W        W42156  10.831  11.642   1.012  0.1429 -0.0043 -0.0147
25973W        W42157   2.276  11.899   2.375  0.0570  0.2013 -0.0512
25974W        W42158   5.318   1.500  13.787 -0.1265 -0.0098  0.1810
25975W        W42159  12.727  10.323  13.062  0.1664 -0.2105  0.0850
25976W        W42160   4.059  10.048  15.061 -0.0126  0.0735  0.0441
25977W        W42161   1.813  15.490  14.274  0.3077 -0.0324  0.1653
25978W        W42162   2.294   5.211   2.701  0.0379 -0.1224 -0.3476
25979W        W42163   3.861   3.745   2.165  0.0368  0.0194 -0.3992
25980W        W42164   0.547   3.536   3.584 -0.1038 -0.1985 -0.1728
25981W        W42165  12.333  11.059   0.536 -0.0430  0.2185 -0.0714
25982W        W42166   3.037   1.267   3.813  0.2802  0.2234  0.1633
25983W        W42167   5.692  11.615   4.373  0.1579 -0.2051 -0.0300
25984W        W42168   9.320   8.795  13.360  0.3957 -0.1297  0.2781
25985W        W42169  12.857   2.502  10.936 -0.2294  0.1667  0.1402
25986W        W42170   9.803  16.284   1.185  0.0986  0.3671 -0.3189
25987W        W42171  13.333   7.354   5.412 -0.2453  0.2558  0.3370
25988W        W42172  12.797   6.951   4.217 -0.3064 -0.2241  0.0959
25989W        W42173  15.642   6.795   5.235  0.0611  0.3103  0.0669
25990W        W42174  13.495   2.739   0.580 -0.0098 -0.4851 -0.0880
25991W        W42175  10.094  18.626   0.982  0.0870 -0.2967 -0.1287
25992W        W42176  16.610   0.265  14.263  0.1731 -0.1001  0.1292
25993W        W42177  15.483   6.119   4.157  0.1567  0.3109 -0.1660
25994W        W42178  16.823  11.180   5.683  0.0253  0.0063  0.1146
25995W        W42179  16.011  17.424   2.395  0.2469  0.0536  0.3034
25996W        W42180   4.188  18.562   3.529 -0.0476  0.0911 -0.2175
25997W        W42181   9.875  12.760   2.369 -0.1276  0.0631 -0.2777
25998W        W42182   1.580  15.581   1.916  0.1023  0.0415 -0.0106
25999W        W42183  17.508  12.514   2.743 -0.0442  0.3492  0.0187
26000W        W42184   8.477   2.915   3.758 -0.0687 -0.2038 -0.2282
26001W        W42185  17.427  14.693   5.249  0.2782 -0.2954  0.1730
26002W        W42186  16.592   8.142  11.769  0.2692 -0.1377  0.1649
26003W        W42187   1.065  12.678  13.788  0.0563  0.0191 -0.0505
26004W        W42188  12.847   6.658   0.378 -0.1482 -0.0303 -0.0148
26005W        W42189  16.930  11.548  15.000 -0.0246  0.0523  0.0844
26006W        W42190  11.151   2.026  14.245 -0.0467  0.2616 -0.3533
26007W        W42191   6.377   4.385   2.759  0.1942  0.1025 -0.0619
26008W        W42192   6.081   5.139   1.040 -0.2156 -0.0697  0.0305
26009W        W42193  15.506  12.927  14.388 -0.0803  0.0047 -0.2030
26010W        W42194   8.141   1.070  11.258  0.2932 -0.2367  0.1168
26011W        W42195   2.778  16.194   2.916  0.1478  0.1463  0.0829
26012W        W42196   0.865  12.238  15.403 -0.2899  0.1193  0.3072
26013W        W42197   7.316   7.369  11.205  0.1720 -0.3222  0.1391
26014W        W42198  10.907   6.572   1.667 -0.2098  0.1089  0.0958
26015W        W42199  14.081  11.002  13.989 -0.2240  0.3384  0.0867
26016W        W42200  14.155  18.608  11.451  0.0218  0.0163 -0.0724
26017W        W42201  15.924   3.668   3.490  0.1472  0.1893  0.0247
26018W        W42202   3.025  17.878  14.934  0.0250 -0.2205 -0.0732
26019W        W42203  11.828  12.823   2.723 -0.2904  0.2174 -0.1798
26020W        W42204  13.689   4.816  12.498  0.0717  0.1748  0.0501
26021W        W42205   5.006   4.130  12.527  0.1008  0.1204  0.0600
26022W        W42206   7.973   9.190  14.097  0.0038  0.0915 -0.2745
26023W        W42207  15.373   0.325   1.740 -0.4383  0.2642  0.0202
26024W        W42208  11.795   1.783  14.381 -0.2182 -0.0911 -0.2702
26025W        W42209  11.388   5.004   3.864 -0.2219 -0.0637  0.2264
26026W        W42210  17.008   4.046   0.951 -0.2543  0.1237 -0.1014
26027W        W42211   1.024  17.869  11.777 -0.0371  0.0607 -0.1995
26028W        W42212   4.281   6.189   5.479 -0.1050 -0.0478  0.0762
26029W        W42213   6.169  16.981  11.813  0.1304  0.2745 -0.0882
26030W        W42214  12.798   8.340   5.181  0.0985 -0.0746 -0.0268
26031W        W42215  18.204   2.764   0.213 -0.1022  0.4346 -0.0057
26032W        W42216  12.935   6.028   3.230 -0.1955 -0.1951 -0.1372
26033W        W42217  12.371   1.792  11.676  0.1599  0.1750  0.0850
26034W        W42218  12.686   0.187   5.221 -0.1561  0.0781  0.2482
26035W        W42219   6.743   0.235  13.834  0.4256  0.0241  0.0003
26036W        W42220   0.785   0.793  14.187 -0.1999  0.0064  0.2594
26037W        W42221  17.937  18.768  12.791 -0.1514 -0.0107 -0.0604
26038W        W42222  17.388   2.030  14.602 -0.3560  0.0727 -0.1016
26039W        W42223   3.193  10.964  13.388 -0.2105  0.0681 -0.4969
26040W        W42224  15.735  15.811   4.053  0.1988  0.0643  0.0355
26041W        W42225  10.481   6.065  15.215 -0.2011  0.1098 -0.0338
26042W        W42226   7.059  17.610   0.005  0.2264 -0.1143 -0.1266
26043W        W42227   7.278   6.903  13.846  0.2935  0.0723  0.1994
26044W        W42228  18.687   9.227   2.322 -0.1997  0.1168  0.2493
26045W        W42229   6.519  12.394  11.801 -0.0531 -0.1117  0.1854
26046W        W42230   5.955   5.867  12.640 -0.3360 -0.0647  0.2097
26047W        W42231   1.610   8.963  11.023 -0.0962 -0.0158 -0.0047
26048W        W42232   5.432  12.348   3.417  0.0948 -0.0387 -0.1593
26049W        W42233   9.620  12.869   0.975 -0.0107  0.1972 -0.0786
26050W        W42234  13.569   8.752   2.808 -0.0116  0.1296 -0.1745
26051W        W42235  16.691   0.557   1.132 -0.0335 -0.0235 -0.0074
26052W        W42236   0.751   3.137   0.308  0.1801 -0.0291 -0.3908
26053W        W42237   0.536   2.739   0.966  0.0181 -0.0641 -0.3600
26054W        W42238  15.235   7.051  14.514 -0.0345 -0.1071 -0.1405
26055W        W42239  17.924   9.329   4.898 -0.1881  0.0301 -0.2022
26056W        W42240  15.053   0.949  12.374 -0.1080  0.3061  0.3439
26057W        W42241   6.880  17.472   0.426  0.0427 -0.2518 -0.0558
26058W        W42242   8.402   9.950  11.148  0.0563 -0.1787  0.0849
26059W        W42243   9.239   0.177  13.063  0.0355 -0.0659 -0.0305
26060W        W42244   3.327   6.280   4.686 -0.3891  0.2795  0.0556
26061W        W42245   9.684   0.044  13.905 -0.0568  0.0467  0.0008
26062W        W42246   8.754   7.783   2.826 -0.1891 -0.2364 -0.3386
26063W        W42247  16.652   6.147  10.469 -0.1220  0.0697  0.1968
26064W        W42248   2.049   8.256  14.990 -0.0985  0.0517 -0.0539
26065W        W42249  15.605   2.147  12.327 -0.0738  0.2162  0.1987
26066W        W42250   0.512  13.645   4.396 -0.1112  0.0586 -0.0408
26067W        W42251  17.370  14.213  13.857  0.0027 -0.0302  0.0776
26068W        W42252  15.749  11.576   4.757  0.0113  0.1850 -0.1363
26069W        W42253  13.091   1.305  14.632 -0.0461 -0.0880  0.0210
26070W        W42254  12.234   6.496  14.033 -0.1350 -0.1807  0.2276
26071W        W42255   5.166   2.313  12.680  0.0264 -0.0936 -0.1860
26072W        W42256  16.504   8.370   3.534  0.1457  0.0344 -0.0665
26073W        W42257   5.948   7.451  15.069  0.1604  0.1112  0.4354
26074W        W42258  13.021  13.670   0.119 -0.0047 -0.1431 -0.1697
26075W        W42259   2.065   9.072  14.434 -0.2258 -0.0351 -0.0266
26076W        W42260   2.850  11.530   2.510 -0.1311  0.1271 -0.1760
26077W        W42261   3.523   1.158  11.430  0.1293  0.0431 -0.3002
26078W        W42262   9.347   3.359  11.684  0.0915  0.1573  0.0207
26079W        W42263  16.255  11.017  14.868  0.0522 -0.0589  0.1538
26080W        W42264  16.250  18.424  12.152 -0.0561 -0.2237 -0.3363
26081W        W42265  13.900  13.772  13.027  0.0183 -0.0951  0.1157
26082W        W42266  16.812  13.613   2.308 -0.1900  0.3811  0.0438
26083W        W42267   8.914   6.935   3.559  0.0293 -0.2178  0.0579
26084W        W42268  18.089  18.642  13.269 -0.2136  0.2530 -0.0509
26085W        W42269   8.116  16.615   4.603 -0.0472  0.0902 -0.1266
26086W        W42270   5.341  13.715   0.835  0.1562  0.2686 -0.0258
26087W        W42271   1.403  16.028  15.432 -0.1697  0.1542  0.0104
26088W        W42272  14.697   7.573   4.551 -0.0746  0.2126  0.1297
26089W        W42273  13.784  14.289   9.739  0.0370  0.1715 -0.0633
26090W        W42274   7.425   3.237  12.811  0.0559 -0.2944 -0.0075
26091W        W42275  11.973  12.396  14.034 -0.0597  0.0913 -0.0457
26092W        W42276   6.806  13.925   1.737  0.0729 -0.2997 -0.3388
26093W        W42277   4.524   9.847   1.580 -0.0625 -0.2321 -0.2841
26094W        W42278   5.570  13.702   2.845 -0.0405  0.0970 -0.0579
26095W        W42279   0.085   1.573  13.443 -0.1663  0.1277 -0.1038
26096W        W42280  10.483   8.380   5.651 -0.0904 -0.0994 -0.1787
26097W        W42281  18.249   7.838   3.741  0.2882  0.1222 -0.2079
26098W        W42282   7.764   7.790  10.712  0.0294 -0.3420 -0.0986
26099W        W42283  18.643  12.167   1.876 -0.0326  0.0944  0.3278
26100W        W42284  13.363  10.994   5.002 -0.0531 -0.1719  0.0829
26101W        W42285   6.877  18.541   0.534 -0.0775  0.0920  0.6574
26102W        W42286  14.758  12.162  14.068 -0.0679 -0.0161  0.0607
26103W        W42287   6.844  10.139  11.964 -0.1183  0.2030  0.2068
26104W        W42288   0.286   0.654  11.591  0.0204  0.0884  0.1969
26105W        W42289   6.629  16.235   5.647  0.2091  0.0909 -0.0665
26106W        W42290  13.038   4.324   2.673 -0.0668  0.0916 -0.0655
26107W        W42291   1.579  11.019   4.792  0.2693 -0.1893  0.1447
26108W        W42292   7.557  11.343   4.316  0.0076 -0.2235 -0.1413
26109W        W42293   5.822  16.793  14.281 -0.0761  0.2130 -0.2653
26110W        W42294   9.047  13.263  11.467 -0.3576  0.1192  0.4360
26111W        W42295  17.023  13.581  11.092  0.0080 -0.0604  0.3847
26112W        W42296  18.064  11.357   4.630  0.0554 -0.0243 -0.0621
26113W        W42297  14.814  14.116  11.192 -0.0172  0.1387 -0.1519
26114W        W42298   7.957  17.641  14.479 -0.1678  0.0804 -0.3178
26115W        W42299   8.999   0.940  11.711 -0.0050  0.0667  0.1281
26116W        W42300  14.641  11.350   4.285 -0.3350 -0.0832  0.2185
26117W        W42301  15.234  17.414  10.491 -0.1702  0.2718 -0.2242
26118W        W42302   0.922   1.015  14.601  0.2557  0.3358 -0.0638
26119W        W42303  10.221   5.974   4.455  0.2168  0.2379 -0.0159
26120W        W42304  13.281   6.582   3.377 -0.1692 -0.2737 -0.1387
26121W        W42305   4.080  14.038   4.787  0.1303  0.0568 -0.3339
26122W        W42306   9.687   5.179  11.917 -0.0328  0.2510 -0.2098
26123W        W42307   1.761  11.231  15.263 -0.1393  0.2464  0.0004
26124W        W42308  14.156   0.335   0.599  0.1845  0.0987  0.2503
26125W        W42309  11.545  12.354   4.329  0.0776  0.2006 -0.3166
26126W        W42310   3.502   5.082  12.162 -0.0346  0.1707 -0.0171
26127W        W42311   4.910   3.585  11.201 -0.0429  0.0721 -0.1617
26128W        W42312   0.684  10.010  10.375 -0.0664 -0.1181  0.2408
26129W        W42313   5.369  11.368  11.642  0.0613 -0.1016  0.1377
26130W        W42314  11.123  10.487   3.703 -0.1438 -0.1069 -0.2313
26131W        W42315   8.645  14.474  13.110 -0.1648  0.0296 -0.1751
26132W        W42316   7.404  10.695   2.857  0.4197 -0.1020 -0.0520
26133W        W42317   4.951  13.475  15.048  0.1428 -0.1884 -0.1111
26134W        W42318  11.065  15.690   0.831  0.1031 -0.1824 -0.1184
26135W        W42319  18.395  15.802   2.441  0.0312 -0.3181 -0.1709
26136W        W42320   1.226  15.711  15.093 -0.2631  0.0187  0.3337
26137W        W42321   4.904   1.225   0.607  0.1317 -0.1100 -0.1810
26138W        W42322   1.476  17.957   1.612  0.0491  0.0963  0.2225
26139W        W42323  16.372   7.372   1.533 -0.2349  0.1702 -0.1941
26140W        W42324   6.303   2.613  13.148  0.1490  0.2715 -0.1650
26141W        W42325  10.642  13.864   3.057  0.2836  0.0455  0.0656
26142W        W42326  13.552   5.661   1.268 -0.3203 -0.1782  0.0713
26143W        W42327   1.390   3.242  14.971 -0.0968 -0.1469  0.2660
26144W        W42328  18.611  15.964   0.544  0.1827  0.1767 -0.0952
26145W        W42329  12.489  12.629  14.303 -0.0874 -0.0477 -0.1743
26146W        W42330   7.991   2.045   4.570 -0.1138 -0.3425  0.1463
26147W        W42331   7.807   4.921  12.874  0.3043 -0.1692 -0.0536
26148W        W42332   5.487   7.438   4.442 -0.2783  0.1362  0.1350
26149W        W42333   7.934   5.968   2.853 -0.0732 -0.1223 -0.0689
26150W        W42334   7.012  13.301  13.439 -0.2088 -0.0262  0.3159
26151W        W42335  16.023  10.814   1.087  0.0860 -0.1451 -0.2967
26152W        W42336  13.393  18.772  13.488 -0.1452 -0.0494 -0.1642
26153W        W42337   1.564  13.785   0.664  0.1221 -0.1764 -0.0630
26154W        W42338   8.028   0.970  12.190 -0.1505  0.2369  0.0561
26155W        W42339   7.228  13.938  11.675  0.1754 -0.1001  0.4899
26156W        W42340   3.479  18.615   0.366  0.1239  0.2548 -0.2682
26157W        W42341   5.143  17.954  13.759  0.1614 -0.2416  0.1092
26158W        W42342  12.449  18.737   4.985  0.0383 -0.0222 -0.2958
26159W        W42343  12.990   7.628  13.506 -0.1993 -0.0167 -0.1489
26160W        W42344   1.950  11.371   4.782  0.0600  0.1892  0.0019
26161W        W42345  15.282  12.857  10.856 -0.1446  0.0109 -0.2927
26162W        W42346  18.366   0.907   0.714  0.1468  0.0851  0.1152
26163W        W42347  14.235   3.753   4.155 -0.2836  0.0095 -0.3795
26164W        W42348   0.405   6.937  14.787  0.2355  0.1263  0.0973
26165W        W42349   7.988   7.932   0.520 -0.2611 -0.2091 -0.0787
26166W        W42350   2.088  12.344   2.031  0.0165 -0.0383  0.0466
26167W        W42351   8.033   3.620   4.767 -0.1497  0.0847 -0.0643
26168W        W42352   4.319   2.797   1.188  0.0483 -0.0211 -0.3000
26169W        W42353   0.865  18.430  12.633 -0.1200  0.3608  0.0545
26170W        W42354  16.265   8.383   4.414 -0.2840 -0.1420 -0.0500
26171W        W42355  11.882  10.088  12.249  0.1450 -0.0251 -0.0178
26172W        W42356  10.026   7.158   4.984 -0.0963  0.1255 -0.1572
26173W        W42357  13.641   6.758  14.237 -0.0185 -0.1426  0.0670
26174W        W42358   5.343   4.442  13.033  0.1415  0.1128 -0.0300
26175W        W42359  16.855   9.828   0.130  0.0602 -0.2285 -0.3227
26176W        W42360  12.190   7.946  11.960 -0.2555  0.1609 -0.3074
26177W        W42361  17.982  18.221   5.301 -0.1149 -0.0752  0.0863
26178W        W42362   8.960  15.756  13.483 -0.2237 -0.0748 -0.0788
26179W        W42363   1.114  12.830   4.722  0.0270 -0.1986  0.3039
26180W        W42364   7.602  14.203   1.901  0.1084  0.2218  0.0881
26181W        W42365   1.878   0.648  10.810 -0.0643  0.0357  0.1013
26182W        W42366  16.708  16.935   3.510  0.0780  0.2176  0.1889
26183W        W42367  10.705   3.538   2.310  0.1170  0.1965  0.1326
26184W        W42368  15.592   0.526  15.126 -0.0922  0.0227 -0.3450
26185W        W42369  14.269   5.294   1.872 -0.2430  0.1834  0.0143
26186W        W42370  18.590  17.490   1.630  0.1329  0.1148  0.0469
26187W        W42371   9.104  10.584   5.033  0.3025 -0.0901 -0.1443
26188W        W42372  14.009  17.762  15.344  0.1402  0.1290  0.3373
26189W        W42373   8.080  18.671   0.279 -0.1281  0.4697  0.1250
26190W        W42374   7.689   9.698  12.265 -0.1282  0.1274  0.3135
26191W        W42375   5.218  17.532   4.629  0.2209  0.0468  0.0541
26192W        W42376   8.207   0.568  14.857 -0.2080 -0.0706  0.2736
26193W        W42377  17.464  12.699  12.594  0.3308 -0.0784 -0.0229
26194W        W42378  17.500   9.295   2.618  0.0656  0.4271 -0.0171
26195W        W42379   9.893  11.721  12.883 -0.1113 -0.1531  0.3528
26196W        W42380   6.681  16.611  13.038  0.0261  0.0218  0.2354
26197W        W42381  14.807   2.006  11.719  0.1719  0.1734  0.1016
26198W        W42382   4.142  16.740   1.712 -0.1963 -0.2851  0.0466
26199W        W42383   0.039   9.771  13.760 -0.0970 -0.0631 -0.0985
26200W        W42384  13.049   9.338   2.047  0.0288  0.0929 -0.4862
26201W        W42385   8.910  16.677   3.911 -0.1928  0.1816  0.2096
26202W        W42386   8.319  12.186   0.068 -0.0173  0.0506 -0.2259
26203W        W42387   1.981   3.544  13.319 -0.4612  0.2728 -0.0635
26204W        W42388   5.839   3.002  11.864  0.1710  0.1365  0.1451
26205W        W42389  17.545  11.355  10.406  0.1106 -0.5393  0.1100
26206W        W42390   2.062  13.000  10.282  0.2222 -0.1972 -0.1052
26207W        W42391  17.155  11.360  14.513 -0.0065  0.1859 -0.1483
26208W        W42392   0.951   4.962   1.345  0.0531 -0.1625  0.0725
26209W        W42393   5.441   9.611  13.109  0.5272 -0.1301  0.1695
26210W        W42394  10.506  17.380   5.149  0.2481  0.1632 -0.1215
26211W        W42395  16.608  16.393   0.658  0.4660 -0.1788  0.3249
26212W        W42396   1.696  14.074  11.849 -0.0150 -0.1235 -0.3727
26213W        W42397   8.417  12.818  10.506  0.0473  0.0549  0.0281
26214W        W42398   7.366  18.831   4.714 -0.0989  0.1446  0.1520
26215W        W42399   0.052   9.413   4.704 -0.2526  0.0558  0.1359
26216W        W42400  12.857  18.043   3.323 -0.2910 -0.2773 -0.0587
26217W        W42401  11.022   1.371  11.046 -0.2439 -0.3802  0.1299
26218W        W42402   3.697   1.509   0.445 -0.1707 -0.0099 -0.1620
26219W        W42403  13.103  17.489  14.299 -0.0597 -0.2883 -0.1968
26220W        W42404  17.413  17.961  14.482 -0.1168  0.1294 -0.0621
26221W        W42405   4.738  17.411   6.049 -0.1392  0.2996  0.1805
26222W        W42406  18.277   4.792   2.633 -0.5932 -0.2146  0.0589
26223W        W42407   4.083  13.537   3.397  0.2506  0.2395 -0.2541
26224W        W42408   9.516   4.894  13.323 -0.1610  0.0152 -0.0422
26225W        W42409   5.609  10.007  14.450 -0.0244 -0.2197 -0.0491
26226W        W42410  10.708   1.347  13.577 -0.2279 -0.1881 -0.1007
26227W        W42411  10.630  15.884   4.338  0.1666  0.1588  0.0444
26228W        W42412  11.130   0.262  14.181 -0.0800  0.2702 -0.0053
26229W        W42413   9.753   3.368   4.926 -0.1262 -0.1364 -0.0543
26230W        W42414  18.845  14.288  13.668 -0.0690  0.2157 -0.2957
26231W        W42415  15.215   8.307  11.981  0.0990  0.2710 -0.0405
26232W        W42416  12.029  17.828  12.348  0.2099 -0.2479  0.1443
26233W        W42417   7.300  17.641   4.310  0.0575 -0.2023  0.1128
26234W        W42418   5.624  11.720  15.411 -0.0223 -0.0363 -0.3246
26235W        W42419   1.559   3.089   4.380 -0.1558 -0.4379  0.0007
26236W        W42420   5.730   0.840  14.267 -0.1563 -0.0186  0.0778
26237W        W42421  11.451   5.678  11.623  0.0826  0.2452 -0.0237
26238W        W42422  14.769  15.690   0.546 -0.2888  0.3220  0.1937
26239W        W42423  17.518  10.154   4.216  0.1878 -0.1812 -0.1606
26240W        W42424  18.240  13.204   5.708 -0.0103  0.1363 -0.1120
26241W        W42425  10.100  14.569   2.527  0.0415  0.0551 -0.1165
26242W        W42426   7.106   2.432  14.879 -0.0756 -0.0987  0.0642
26243W        W42427  11.821  16.544   1.203 -0.1521  0.0544  0.1110
26244W        W42428  17.800  13.560  11.814  0.0754  0.1280 -0.3001
26245W        W42429   6.701  10.929  11.346 -0.0551  0.0964  0.2380
26246W        W42430  14.286   2.851   1.145  0.1317  0.1359  0.0208
26247W        W42431   0.843  13.339  10.505  0.1133 -0.2835 -0.1674
26248W        W42432  15.502  14.739   0.057 -0.4745  0.0308  0.1619
26249W        W42433   7.645   4.290   5.711 -0.2050  0.1505  0.1784
26250W        W42434  14.495  14.570  13.086  0.1039 -0.1232 -0.0066
26251W        W42435  17.483   2.855   4.949  0.1863 -0.3862 -0.0721
26252W        W42436  15.610   8.008  15.137  0.7534 -0.0799  0.0910
26253W        W42437  17.840  12.780   5.310 -0.0705 -0.1234  0.0683
26254W        W42438   1.714   6.219   1.565 -0.3366  0.0803  0.1089
26255W        W42439  17.305  16.361   1.926  0.0121 -0.3025  0.1509
26256W        W42440   9.404  10.567  14.667 -0.0982  0.0169 -0.1776
26257W        W42441  13.444   8.354  13.170 -0.2091  0.0767 -0.1884
26258W        W42442  13.302  14.173   1.503 -0.0155  0.1487 -0.1504
26259W        W42443   6.353   1.558   0.207 -0.3813 -0.0859 -0.0392
26260W        W42444   3.279   8.825   3.750 -0.1830  0.1844 -0.0817
26261W        W42445   1.565   3.534  12.306  0.0666 -0.1490  0.1767
26262W        W42446   0.050  11.756   1.102 -0.0114 -0.0002 -0.0911
26263W        W42447   8.001   0.587   1.898  0.3161 -0.1381 -0.0120
26264W        W42448   0.162   6.971  10.945  0.2403  0.1849 -0.0329
26265W        W42449   1.729  14.785   3.427 -0.2995 -0.1534  0.4488
26266W        W42450  14.720   9.027  10.497  0.2262  0.1018 -0.0163
26267W        W42451   8.391   3.560  15.044 -0.1086 -0.1165 -0.1254
26268W        W42452   1.760   1.240  14.942  0.2673 -0.0502  0.1360
26269W        W42453   0.306  13.066  11.303 -0.1795 -0.1131 -0.0619
26270W        W42454   4.156  10.159  12.607 -0.0602 -0.0270 -0.1849
26271W        W42455   6.079  15.046   4.397  0.2989 -0.1261 -0.0120
26272W        W42456   8.097   9.116   5.441  0.1953 -0.1488 -0.1108
26273W        W42457   0.586  17.880  14.379  0.1481  0.0074  0.0132
26274W        W42458   6.035  10.221  14.265  0.2453 -0.1255  0.2403
26275W        W42459   1.337  10.728  14.624  0.0945 -0.0813  0.1108
26276W        W42460  11.273  16.804  11.307  0.0119  0.0972 -0.2918
26277W        W42461   3.410   5.634   4.091 -0.3282 -0.4497 -0.1461
26278W        W42462   3.818   5.817   3.828 -0.0801 -0.1061 -0.2785
26279W        W42463   1.258   8.285  11.522 -0.0172  0.1036 -0.3286
26280W        W42464   4.837  10.573   1.443  0.1085 -0.0059 -0.0815
26281W        W42465   4.486  12.897   4.360 -0.1018  0.3895 -0.2958
26282W        W42466   8.890   1.431   4.255 -0.0275  0.0198 -0.0795
26283W        W42467   9.661  16.280   2.015  0.0050 -0.0174  0.0306
26284W        W42468   8.655  10.787   2.991 -0.1732 -0.3068  0.2912
26285W        W42469  12.039  11.426   5.615 -0.1549  0.0122 -0.0479
26286W        W42470   8.479  18.018   3.071  0.1390  0.2471  0.2314
26287W        W42471  12.282   1.962  11.136 -0.2119 -0.1242  0.3421
26288W        W42472   8.921  15.180   2.526 -0.5164  0.1146  0.4318
26289W        W42473   9.089   2.824  15.207  0.2911 -0.0794 -0.0046
26290W        W42474  17.932   3.917  15.249  0.2038 -0.1518 -0.0524
26291W        W42475  16.495   8.437  11.379 -0.2113 -0.0180  0.0631
26292W        W42476   6.290   7.924   4.989  0.0490  0.0415  0.0938
26293W        W42477   4.836   6.818  12.759 -0.0550  0.1475 -0.0409
26294W        W42478   4.341  14.342  13.891  0.0758 -0.0613 -0.3712
26295W        W42479   6.060  15.301  13.031 -0.0482 -0.1165  0.0625
26296W        W42480  18.719   4.018   2.340  0.0136 -0.1654 -0.0915
26297W        W42481   5.017  14.734  13.406 -0.1175  0.3563  0.5626
26298W        W42482   8.588  15.735  11.541  0.1893  0.1382  0.0712
26299W        W42483   9.254   9.926   5.169 -0.3283 -0.2136  0.1901
26300W        W42484   2.939   1.476  12.545 -0.0469  0.1666  0.0766
26301W        W42485   9.528   9.630  13.877 -0.0406 -0.0867  0.4041
26302W        W42486   7.136   1.398   5.252  0.0552  0.1114 -0.2789
26303W        W42487   4.406   4.784  11.362 -0.1301 -0.0963 -0.0748
26304W        W42488   1.739  10.663   2.734 -0.4549 -0.0188 -0.1086
26305W        W42489  10.386   1.189  11.884  0.0043 -0.4957  0.2428
26306W        W42490   8.016   8.471   5.344 -0.0283  0.2068  0.2236
26307W        W42491   2.475  15.881  15.332 -0.3185 -0.2519  0.0367
26308W        W42492   4.883   7.749   2.581 -0.0852  0.2796  0.1182
26309W        W42493   7.493  15.445   1.470 -0.0713  0.1807  0.4663
26310W        W42494  11.417  10.790  13.043  0.0176 -0.0786  0.1162
26311W        W42495   1.823  14.328  13.345  0.3845 -0.0012  0.1324
26312W        W42496  11.342   6.781   3.792 -0.0155 -0.1501  0.0107
26313W        W42497   9.296   6.195   2.154 -0.5147  0.1699 -0.2273
26314W        W42498  15.159   9.982   2.025  0.1922 -0.1013  0.0975
26315W        W42499  16.835  16.044  11.030  0.2367  0.0343  0.1002
26316W        W42500  18.230   4.755   2.114 -0.0390  0.1521  0.0495
26317W        W42501  18.176  16.979  14.528 -0.2158  0.2809 -0.0010
26318W        W42502   4.550  18.558   3.897  0.1912  0.0876 -0.1837
26319W        W42503   9.811   4.440   1.849  0.0622  0.1499 -0.1600
26320W        W42504  15.964   5.282  12.643  0.1791  0.0802  0.2307
26321W        W42505  13.656   7.530   1.100 -0.0615  0.0610 -0.1968
26322W        W42506  11.677  11.071   5.318 -0.1214 -0.1585 -0.0176
26323W        W42507  17.079   1.635  11.873  0.0472 -0.3686 -0.1085
26324W        W42508  12.808   3.539   4.345  0.2300 -0.1285  0.2705
26325W        W42509  15.996  10.422  15.129 -0.0036 -0.0003 -0.0990
26326W        W42510  10.407   3.607  15.328 -0.0513  0.4863  0.4726
26327W        W42511  16.276  15.891   1.652  0.1235 -0.1945  0.0770
26328W        W42512  17.513  17.719  12.627 -0.1919  0.1361  0.2265
26329W        W42513  10.100  17.111   1.352  0.0986  0.0683  0.0779
26330W        W42514  18.741  13.654   1.843 -0.0039 -0.1613 -0.0254
26331W        W42515  13.053   7.569  12.711  0.2271 -0.0095  0.0698
26332W        W42516   6.684   1.595   5.047 -0.1244  0.2990 -0.1553
26333W        W42517   8.689   4.448  14.214 -0.0921 -0.0275  0.0129
26334W        W42518  14.941   5.929  10.411 -0.1185 -0.0589 -0.0137
26335W        W42519  10.230  14.145  11.305 -0.2089 -0.1158  0.3135
26336W        W42520   8.098   6.702   4.635 -0.3304  0.1398 -0.2243
26337W        W42521   2.354  11.420  14.619 -0.1434  0.1196 -0.0623
26338W        W42522  17.105   3.856  13.639 -0.2255 -0.0848  0.1076
26339W        W42523   5.896  10.286   2.211  0.0147 -0.3941 -0.0924
26340W        W42524  13.422  15.134  14.339 -0.1560 -0.1119  0.2357
26341W        W42525  17.032   8.803   2.314 -0.0548  0.4795 -0.0460
26342W        W42526  18.242   6.021  14.642  0.3211 -0.0150 -0.1288
26343W        W42527   0.975  15.686  15.533  0.1056  0.3955 -0.1456
26344W        W42528  17.050  14.934   0.065  0.3388 -0.3591  0.1004
26345W        W42529   9.493  17.888   4.340  0.1969  0.1216  0.0410
26346W        W42530   7.102  12.209  12.813 -0.0184 -0.0289  0.0277
26347W        W42531   1.588   0.307   0.547  0.1280 -0.0114 -0.1458
26348W        W42532  10.276  16.226   4.398 -0.1088  0.0258  0.2197
26349W        W42533  18.771  16.730   5.873  0.2399 -0.2859 -0.1780
26350W        W42534  18.415   0.007  15.107 -0.2113  0.0802  0.2778
26351W        W42535  15.746   4.848   4.919 -0.2429 -0.1546 -0.2662
26352W        W42536  13.783  13.488   1.959  0.4737  0.3385 -0.0897
26353W        W42537   0.724  15.619  10.717  0.0516 -0.1118 -0.0283
26354W        W42538  11.661   7.758   9.983 -0.1960  0.0448 -0.2495
26355W        W42539  18.034  11.241  14.370 -0.0395 -0.0718  0.0176
26356W        W42540  14.676   7.861  14.442  0.2183 -0.0155 -0.0954
26357W        W42541   3.751  11.810   2.185 -0.1609 -0.0773  0.1089
26358W        W42542  16.491   8.238  15.224 -0.1796 -0.1095 -0.1044
26359W        W42543   2.613   3.672  15.398 -0.1755 -0.1346 -0.1474
26360W        W42544  13.812   3.006  14.923 -0.0871  0.2971 -0.0892
26361W        W42545   2.701   5.577   3.497  0.0384  0.0455 -0.2097
26362W        W42546   6.195  18.377  14.565 -0.3765  0.1755  0.1366
26363W        W42547   5.661  16.580  13.037 -0.2316  0.0420 -0.0661
26364W        W42548   4.532  11.569  13.827 -0.0033  0.2732 -0.1806
26365W        W42549   7.920   4.371  12.900  0.2639 -0.0082  0.0120
26366W        W42550   6.818   8.281   2.007 -0.3191  0.2379  0.0824
26367W        W42551  10.198   8.344  10.954 -0.0367  0.1486  0.0868
26368W        W42552   3.895   5.264   5.371  0.0634  0.0212 -0.1340
26369W        W42553  15.114  17.525  15.454  0.0614  0.1218 -0.0685
26370W        W42554  10.302   3.266   5.044 -0.0344  0.2796  0.0206
26371W        W42555   7.256  11.622   0.468 -0.1998  0.1968  0.1767
26372W        W42556   6.588  16.354   2.954 -0.0109 -0.0696 -0.0421
26373W        W42557   7.182  17.892  12.838  0.1213  0.0091 -0.1986
26374W        W42558   2.319   5.515   4.879 -0.1319  0.0733  0.2135
26375W        W42559  18.167  16.749   0.704  0.0918  0.1103 -0.1843
26376W        W42560   8.501   6.078  15.125 -0.1501 -0.0383  0.1586
26377W        W42561   9.902  11.313  14.556 -0.2075  0.1645 -0.0852
26378W        W42562   7.437  17.281  10.828  0.0118  0.0342 -0.1683
26379W        W42563  12.645   3.077   0.808 -0.2065  0.2429 -0.1698
26380W        W42564   4.951  17.852  12.767  0.1529 -0.0675 -0.1571
26381W        W42565  10.158  18.810   5.013  0.1988 -0.0648  0.1411
26382W        W42566   9.234  13.130   3.240  0.2514  0.0830  0.0554
26383W        W42567  12.980   5.972   1.373  0.0159 -0.0889  0.1128
26384W        W42568  18.300  15.078   3.067  0.1354 -0.1874 -0.0069
26385W        W42569   3.810  13.414   2.277 -0.1592  0.1026 -0.1797
26386W        W42570  15.882   5.605  11.681 -0.0326 -0.1930 -0.0592
26387W        W42571  15.574   1.256   5.996 -0.0872  0.0337  0.1795
26388W        W42572   6.198   6.511   3.448 -0.0108 -0.0900 -0.0830
26389W        W42573   3.400   7.291   2.785  0.0735  0.0930  0.0678
26390W        W42574  11.987   2.184   2.495 -0.0853 -0.1345 -0.0803
26391W        W42575  10.073   2.629  15.517 -0.0588  0.0630  0.0886
26392W        W42576  12.464   1.823   0.753  0.0270 -0.0806 -0.0487
26393W        W42577  12.541   1.588  10.797  0.2537  0.2902 -0.1527
26394W        W42578  18.078  14.792   0.045 -0.1484 -0.0913  0.0813
26395W        W42579   8.543  13.105   4.001 -0.0012 -0.0937 -0.1690
26396W        W42580  13.269  13.117  12.276 -0.2368 -0.1011 -0.0379
26397W        W42581  11.443  18.407   2.430 -0.2938  0.1313  0.0232
26398W        W42582  14.790   6.626  13.121 -0.0773  0.0121  0.1098
26399W        W42583   5.745  14.605   4.513 -0.2113 -0.0650 -0.0803
26400W        W42584  11.063   2.833   4.107  0.1474 -0.0943 -0.0600
26401W        W42585   9.725   7.738  13.917  0.0213  0.0073  0.1157
26402W        W42586  11.042  16.038   3.945 -0.0564  0.1357  0.1489
26403W        W42587  18.137  10.931   2.863 -0.1584 -0.3771  0.1660
26404W        W42588  16.043   9.151   3.988  0.1011  0.0212 -0.0183
26405W        W42589   1.855   8.033   4.689 -0.2574 -0.0455  0.1034
26406W        W42590  12.307   3.742  12.760 -0.3372 -0.0134 -0.0272
26407W        W42591  12.960   3.796  14.293  0.0876  0.2232 -0.1088
26408W        W42592  12.978   2.900  13.594 -0.1359  0.0292 -0.4115
26409W        W42593   4.301   8.084   3.618  0.2090  0.2180  0.0070
26410W        W42594   3.479   5.058   5.826  0.1712 -0.0111 -0.1429
26411W        W42595   5.472   1.738   3.582 -0.1324  0.1800  0.1561
26412W        W42596  13.263  15.379   2.360  0.1142  0.0648  0.0185
26413W        W42597  17.123   3.255   4.875  0.2365 -0.1499 -0.3578
26414W        W42598   7.716  16.809   0.258  0.0632 -0.0829 -0.1589
26415W        W42599   7.513   5.191   1.959  0.0829  0.2153 -0.0358
26416W        W42600  16.409  11.282   4.067  0.1608  0.0195 -0.1978
26417W        W42601  14.184  16.778   0.482  0.1331 -0.1581 -0.1452
26418W        W42602   8.814  13.211  10.487  0.1396  0.0737 -0.0353
26419W        W42603   6.197   0.565   2.977  0.0291 -0.0237 -0.3032
26420W        W42604  17.120   8.992  12.395  0.1647  0.0077 -0.2104
26421W        W42605   3.575   2.681   3.805 -0.0844  0.0978  0.0373
26422W        W42606   1.790   0.456   3.152 -0.3552 -0.0257 -0.1298
26423W        W42607   3.382   4.014   1.002 -0.1515  0.1245 -0.1323
26424W        W42608  17.029   6.979   2.171 -0.1902  0.0333 -0.1007
26425W        W42609   4.894  13.016  11.581  0.2802  0.0695 -0.2161
26426W        W42610   3.394   4.363   4.578  0.0717  0.1269  0.0870
26427W        W42611   5.842   8.147  15.362 -0.2352 -0.0721  0.1694
26428W        W42612   7.445  11.259  14.588  0.0791 -0.2561 -0.3909
26429W        W42613  16.229  12.973  15.317 -0.2371  0.1137 -0.0286
26430W        W42614  14.382   8.652   0.620 -0.0392  0.0366  0.0369
26431W        W42615  18.269  14.244  14.474  0.1644  0.3963 -0.0720
26432W        W42616   5.595   5.756  14.167 -0.7143  0.0452 -0.0823
26433W        W42617   7.590  17.759   3.804 -0.0776 -0.1388  0.2116
26434W        W42618  11.156   6.258  13.904  0.2484 -0.1202  0.3858
26435W        W42619   1.802  13.794  10.628 -0.2992 -0.2532 -0.0962
26436W        W42620   1.278  17.122   3.129  0.3303  0.1802  0.1679
26437W        W42621  16.450   0.325  13.123  0.0461 -0.0925  0.1311
26438W        W42622   9.025   5.555  13.678 -0.0949  0.0654 -0.2436
26439W        W42623  16.910   3.325   2.335 -0.0525 -0.1324  0.1464
26440W        W42624  12.319   9.283   1.345  0.0244 -0.0881  0.1474
26441W        W42625   1.070  14.857   4.217 -0.1730 -0.5580  0.0208
26442W        W42626  14.671  13.093   4.746  0.3473  0.3143  0.0314
26443W        W42627   8.178   3.983   3.154  0.0748  0.3319 -0.0520
26444W        W42628  16.200  16.447   3.769 -0.2395 -0.2890  0.0414
26445W        W42629  13.428  16.282   3.230 -0.4325 -0.0010  0.0000
26446W        W42630   2.194   6.004   2.976 -0.2215  0.1326 -0.0451
26447W        W42631  10.938   6.078   1.548 -0.1644 -0.2338 -0.1766
26448W        W42632   4.478   6.306   4.151 -0.1737 -0.0214 -0.3554
26449W        W42633  18.207   4.402   1.174  0.0915  0.5033  0.4694
26450W        W42634   7.312   5.833  11.068 -0.0543 -0.4222  0.1919
26451W        W42635   0.876  18.044   2.691  0.0388 -0.1302 -0.1331
26452W        W42636   9.664   5.195   4.404 -0.1236  0.1283  0.0788
26453W        W42637  11.692  11.576  12.622 -0.0048  0.1456 -0.1545
26454W        W42638  16.722   0.552  13.838 -0.3790  0.0433  0.1249
26455W        W42639   2.463  16.991   0.984 -0.1583 -0.0300  0.1680
26456W        W42640   3.017   3.475   3.266 -0.1478 -0.1472  0.0786
26457W        W42641   5.902   2.199   4.011  0.1318 -0.0894  0.2571
26458W        W42642   3.991   1.518  13.788 -0.0974  0.0187  0.0361
26459W        W42643  12.877   4.876  14.032  0.1455  0.0936 -0.0941
26460W        W42644   3.390  14.018   3.723  0.2987 -0.2473 -0.1386
26461W        W42645   3.781   0.762   3.762  0.0501 -0.2626  0.1521
26462W        W42646  13.554   4.789   2.211 -0.0956 -0.0565 -0.2521
26463W        W42647  12.136   6.032  13.014  0.1115  0.2209  0.2327
26464W        W42648   3.080   7.953  10.955  0.0040 -0.1515 -0.3241
26465W        W42649   8.367  15.680  14.736  0.2620  0.3557 -0.0376
26466W        W42650  18.034  18.498  11.080 -0.0430  0.0356 -0.2233
26467W        W42651  10.044   8.783   4.594 -0.2950  0.0294  0.1531
26468W        W42652  11.244   2.153   3.603  0.4269 -0.2561  0.1169
26469W        W42653  18.524  16.199  14.536  0.0005 -0.2732 -0.2664
26470W        W42654  12.409   9.403  12.728  0.0685  0.0506  0.0662
26471W        W42655  10.408  13.615  13.786  0.2508  0.4006 -0.3545
26472W        W42656   1.814   1.035  14.468  0.2603  0.1859 -0.3943
26473W        W42657   2.211   1.874   0.084 -0.2973  0.3758 -0.0277
26474W        W42658   6.027  13.965  12.989  0.1994 -0.0602  0.0342
26475W        W42659   7.402   8.884  12.076  0.1280 -0.1161  0.1521
26476W        W42660  14.690   2.636   5.008 -0.1758  0.3153  0.2642
26477W        W42661   8.714   9.061   0.599  0.1311  0.0447 -0.1741
26478W        W42662   9.908  17.720   2.750  0.1557 -0.0261 -0.4609
26479W        W42663  17.773  18.191   4.754 -0.3484  0.0426 -0.0526
26480W        W42664   1.351   0.070  13.679 -0.0850  0.3352  0.0088
26481W        W42665   2.595  13.429  13.649 -0.0918  0.1804 -0.1509
26482W        W42666  12.805  11.579   2.720  0.1650  0.0396 -0.0992
26483W        W42667  10.020   8.733   1.495  0.2739 -0.1707  0.0283
26484W        W42668   3.539  11.380   3.099 -0.0856  0.0035 -0.2638
26485W        W42669   6.345  18.186   2.119 -0.1560 -0.1296 -0.2813
26486W        W42670  13.460   9.087   0.619 -0.0249  0.0238  0.3631
26487W        W42671   5.722  13.672  11.147  0.2984 -0.1045  0.0024
26488W        W42672  15.372   6.643  10.734  0.1476 -0.0979 -0.1380
26489W        W42673   5.096  13.494  10.255 -0.4754  0.0422  0.2219
26490W        W42674   0.211   0.465  13.470 -0.0759 -0.1976  0.0120
26491W        W42675  10.567  13.066   1.225  0.0405  0.1594 -0.4122
26492W        W42676  17.827   5.972   0.007  0.1824  0.2439  0.2483
26493W        W42677  17.581   5.831   3.564  0.2617  0.0882 -0.1841
26494W        W42678  18.086   4.034   2.912  0.2111  0.1434  0.0559
26495W        W42679   5.553   6.372   1.771  0.1354  0.1862 -0.1088
26496W        W42680   2.309   0.672   5.797 -0.1555 -0.2239  0.2182
26497W        W42681   3.770   2.173  13.679 -0.0286  0.0245  0.3290
26498W        W42682  13.642  13.179   4.950 -0.6254 -0.1698 -0.4442
26499W        W42683  10.619   0.425  12.653  0.1535  0.0386  0.1774
26500W        W42684  10.125  11.530   1.182 -0.1500 -0.2333 -0.2605
26501W        W42685  10.705  13.628   1.312 -0.0461 -0.3275  0.2048
26502W        W42686   4.199   5.937   2.941 -0.1446 -0.0113  0.0345
26503W        W42687   6.037  17.628  13.910 -0.0476 -0.2548 -0.2224
26504W        W42688   3.012  10.354   1.889  0.2138 -0.2537  0.1128
26505W        W42689  16.596   2.554   4.622  0.1699  0.0091 -0.1989
26506W        W42690   5.672  14.520   0.448 -0.2439 -0.2053  0.0901
26507W        W42691   0.096   7.442  15.494  0.2149 -0.0350 -0.1784
26508W        W42692  10.667  18.740  12.399 -0.2179 -0.0756 -0.0700
26509W        W42693  10.490   4.799  11.837 -0.0883  0.1448 -0.3355
26510W        W42694  16.172   6.074   1.786 -0.1839 -0.0643  0.2973
26511W        W42695   3.854  18.630   5.550  0.0730  0.1317 -0.0921
26512W        W42696  12.777   9.245   0.369  0.1983  0.1433  0.1150
26513W        W42697  14.297  18.229  11.733  0.0423  0.2874  0.0482
26514W        W42698   6.080  15.604   5.112  0.0450  0.1052 -0.2185
26515W        W42699  12.944   9.760   3.881  0.1520  0.1040 -0.0155
26516W        W42700  12.605  18.201   0.086 -0.4955  0.0135  0.1068
26517W        W42701   7.504  14.766  11.510  0.2660  0.2608  0.0505
26518W        W42702   9.549  14.412   0.300  0.0925 -0.0662  0.2553
26519W        W42703  10.076   8.506   4.146  0.0799  0.0848  0.1774
26520W        W42704   9.054  10.241   3.644 -0.0227  0.1427  0.0086
26521W        W42705   1.154   3.735  14.418 -0.1483 -0.0776  0.0817
26522W        W42706  11.590   5.317   2.111  0.0607 -0.4621 -0.1734
26523W        W42707  16.187  14.166   5.261 -0.2266  0.2119 -0.1525
26524W        W42708   6.126   0.834  13.445 -0.0364  0.0420  0.0712
26525W        W42709   1.275  10.948  11.793 -0.1157 -0.0720 -0.0020
26526W        W42710   0.471  15.261   3.716  0.1287 -0.0515 -0.1572
26527W        W42711   2.331   9.559   1.979  0.0647 -0.0184  0.2157
26528W        W42712   9.054  12.034   1.022 -0.1110 -0.1317 -0.1027
26529W        W42713  16.222  15.288   0.886  0.0809  0.0120  0.2440
26530W        W42714   2.677  14.274   5.120 -0.0147 -0.0034 -0.2927
26531W        W42715   5.330   6.597  14.122  0.0709 -0.3155  0.1073
26532W        W42716  18.001   3.754   1.082 -0.0054  0.0490  0.0791
26533W        W42717   7.550   8.212  11.012 -0.0099  0.1311  0.3192
26534W        W42718   2.097  12.325  15.420  0.2970 -0.0184 -0.1978
26535W        W42719   3.162   9.409   0.161  0.0755 -0.2794 -0.0011
26536W        W42720   9.951   6.275  11.680  0.1753 -0.0471  0.2517
26537W        W42721  15.387   7.217   4.982 -0.0661 -0.0045  0.5749
26538W        W42722  15.206   0.133  13.089 -0.0220  0.0929  0.2168
26539W        W42723   8.883   2.724  13.782 -0.5584 -0.2897 -0.0227
26540W        W42724  17.231  13.896   4.589 -0.1740 -0.0706 -0.0323
26541W        W42725  17.019  18.176  14.178 -0.2026 -0.1525  0.2419
26542W        W42726  16.436   0.533   3.709  0.1099 -0.1629  0.2676
26543W        W42727  13.681   9.104   1.066 -0.0379  0.0943  0.2780
26544W        W42728  16.510   1.957   2.062  0.0088 -0.2230 -0.0698
26545W        W42729   7.835  12.590   4.002 -0.0998  0.1393  0.2115
26546W        W42730  12.136  13.782  15.232 -0.0168  0.1279  0.2095
26547W        W42731  13.837  17.523  13.935  0.0991 -0.1156  0.3167
26548W        W42732   1.596   0.676   4.355 -0.0446 -0.0800 -0.1679
26549W        W42733   5.331  15.009  11.799 -0.0204 -0.1090 -0.1347
26550W        W42734   2.306  15.918  13.660 -0.0387 -0.0910  0.1223
26551W        W42735   3.977   7.629   1.782 -0.1519  0.2557  0.0389
26552W        W42736  12.475   8.954  12.426  0.1551  0.0582  0.0865
26553W        W42737   8.101  11.571   4.137  0.2388  0.2695 -0.0442
26554W        W42738   6.553   8.389   4.078  0.0665  0.0146 -0.2753
26555W        W42739   5.122   7.961  14.195  0.1251  0.3016  0.1729
26556W        W42740  14.233  13.944   0.368  0.0000  0.0511  0.1013
26557W        W42741  10.635  16.243  13.599  0.1946 -0.0969  0.2643
26558W        W42742   0.551  13.335   1.339 -0.4830 -0.1000  0.0704
26559W        W42743   8.020   5.719   2.425 -0.0631  0.1551  0.2768
26560W        W42744   0.542  12.432   0.219 -0.2013 -0.0355  0.0823
26561W        W42745  18.522  17.593  10.566  0.0270 -0.1013 -0.3207
26562W        W42746  16.930  13.622   5.025 -0.0104  0.0394  0.0335
26563W        W42747   8.455  13.032   1.116 -0.2572 -0.2868  0.2956
26564W        W42748  10.737   6.644   4.926  0.0032  0.1355 -0.1421
26565W        W42749  16.740   5.930  14.607  0.0617  0.1588 -0.2063
26566W        W42750   3.968   0.164  11.669 -0.2816  0.1280  0.3009
26567W        W42751   3.659  16.019   5.858 -0.0225 -0.0628 -0.2606
26568W        W42752   3.019  12.472  12.785 -0.0788  0.0177  0.1565
26569W        W42753  14.271   0.777  15.298  0.0658  0.1840 -0.0296
26570W        W42754  11.880   9.080   3.610 -0.2131 -0.0048  0.1992
26571W        W42755  13.077  16.551   3.017  0.4738  0.1599  0.1218
26572W        W42756  13.296  15.698  15.131  0.0320 -0.1152  0.1411
26573W        W42757  14.877   0.849  14.353  0.1689  0.3244 -0.0141
26574W        W42758   4.343  18.816   5.637 -0.0573  0.4042 -0.1947
26575W        W42759  18.785  11.953   3.831 -0.0921 -0.1336 -0.1737
26576W        W42760  17.740   5.036   0.572 -0.0765 -0.1588  0.0470
26577W        W42761   2.397   6.641  14.556 -0.0724 -0.3314 -0.0468
26578W        W42762   4.014  16.076   0.874  0.0787  0.2791  0.0107
26579W        W42763   1.622  12.669  14.130 -0.2117 -0.0399 -0.3815
26580W        W42764  18.244  10.782   1.526 -0.3120 -0.2813 -0.0893
26581W        W42765  18.151  15.031   0.471  0.0332 -0.1392 -0.0460
26582W        W42766   7.404   0.526   4.725 -0.2600 -0.1464  0.1244
26583W        W42767  12.640   8.990  15.485 -0.3119 -0.1004  0.2295
26584W        W42768  16.666   2.666  11.155 -0.3822 -0.0248  0.1085
26585W        W42769  12.462   9.171   6.030  0.2498 -0.0552  0.0160
26586W        W42770  15.588   9.964  14.844 -0.1331  0.0101 -0.0626
26587W        W42771   5.540   8.148  13.908  0.0786 -0.2588  0.0815
26588W        W42772  16.395  13.531   0.082  0.1923 -0.2921 -0.1627
26589W        W42773  16.732   7.783   9.758  0.1773 -0.1155  0.1503
26590W        W42774   8.340  11.780   3.627  0.0350 -0.0364 -0.0013
26591W        W42775  11.035  13.858   5.100 -0.0007  0.0027 -0.1956
26592W        W42776   1.405   4.240  14.090  0.1063  0.0951  0.0488
26593W        W42777   8.824   3.259  13.557  0.1391  0.2165 -0.1229
26594W        W42778  15.470  16.408  10.731  0.1251  0.0081  0.1156
26595W        W42779  17.497   5.452   0.051  0.3567  0.1545  0.1584
26596W        W42780   3.629   9.669  15.238 -0.0346 -0.0500  0.0185
26597W        W42781   6.425   6.039   5.169  0.1261  0.0129  0.2634
26598W        W42782  17.121  15.651   3.732 -0.3408 -0.2495  0.0171
26599W        W42783  15.557   3.020   2.395 -0.1755  0.3982 -0.3138
26600W        W42784  14.433  11.620   1.342 -0.1935 -0.0055 -0.0281
26601W        W42785  12.713  15.629   0.313  0.2691  0.0882 -0.1285
26602W        W42786   4.143   9.381   2.317  0.1364  0.0121  0.1288
26603W        W42787  16.277  18.461   3.814  0.1449 -0.0262 -0.2268
26604W        W42788  17.268   9.884   3.505  0.1789 -0.3392  0.1693
26605W        W42789   8.140  15.712   2.432  0.1549 -0.0876  0.1407
26606W        W42790   0.834  11.956  12.437  0.3385  0.0412 -0.0182
26607W        W42791   9.159   1.682   3.839  0.0130 -0.0080  0.2269
26608W        W42792  14.900   4.978  14.557  0.0620  0.0111  0.3241
26609W        W42793  17.264  18.212   5.977  0.0821  0.0315  0.1207
26610W        W42794   9.019   0.883  12.168  0.0556  0.0802  0.2066
26611W        W42795  10.046   7.166   1.343  0.1481 -0.2266 -0.0351
26612W        W42796  10.350   0.181  13.384 -0.2623 -0.1356 -0.1927
26613W        W42797  13.038   6.011  12.943 -0.1276 -0.0806 -0.2418
26614W        W42798  16.608   7.889   3.755  0.1885  0.0620  0.3423
26615W        W42799   7.671  11.961   3.860  0.2864 -0.0349  0.0393
26616W        W42800  11.810   1.347   0.994 -0.1275  0.0929  0.1320
26617W        W42801  11.810  11.176   1.382 -0.1863  0.0345  0.0234
26618W        W42802   9.306   3.857   2.488 -0.4384  0.0292  0.0360
26619W        W42803  11.653   9.433  12.870  0.2356 -0.1048  0.3685
26620W        W42804  14.141   1.605  12.269 -0.3659 -0.0105 -0.1376
26621W        W42805  11.586  10.515  11.354  0.0904  0.1404  0.0538
26622W        W42806  10.049  10.291   0.275 -0.1122  0.0730  0.0689
26623W        W42807   4.318   2.676  11.215 -0.1865 -0.0756  0.0990
26624W        W42808  13.877   5.191  12.827 -0.2583  0.2739  0.2020
26625W        W42809   4.245   5.455  10.870 -0.2122  0.0268  0.1962
26626W        W42810  17.368   9.942  14.280  0.0052  0.1541  0.1146
26627W        W42811  14.054   3.480  12.219 -0.0816  0.0591 -0.0843
26628W        W42812  18.851   6.086   1.732 -0.4021  0.1939  0.4780
26629W        W42813  11.597   4.848  12.056 -0.2664 -0.0842  0.0567
26630W        W42814  13.795   8.042  12.980  0.1050 -0.0573 -0.1948
26631W        W42815   5.123   6.393  14.675 -0.3265  0.4224 -0.2277
26632W        W42816  17.673   4.942  10.471 -0.2754  0.3112  0.2639
26633W        W42817   3.670   5.751  14.239  0.1982 -0.1088 -0.1135
26634W        W42818  17.831  14.490   1.449  0.2782  0.1089 -0.3026
26635W        W42819  12.105  15.738   1.501 -0.1997 -0.1992  0.0074
26636W        W42820  17.774   0.638   0.174 -0.0013  0.0020 -0.1273
26637W        W42821  12.456  14.937  12.851  0.1134  0.1071 -0.0250
26638W        W42822   4.941  11.688  12.872 -0.0360 -0.2058  0.1893
26639W        W42823  12.378  10.615  13.452 -0.0657  0.5433 -0.0538
26640W        W42824  17.315   7.441   2.111 -0.1497  0.2119 -0.0123
26641W        W42825   3.076  12.042   0.949  0.1246 -0.5234 -0.2667
26642W        W42826  10.657  12.779  13.241 -0.1160 -0.2141 -0.3165
26643W        W42827   8.149   3.553   1.166  0.0915  0.4967  0.1825
26644W        W42828  15.008   9.575  13.344  0.0989  0.1272  0.2016
26645W        W42829   7.131  17.289   0.796 -0.0216 -0.0437 -0.1458
26646W        W42830   0.969   5.645   3.862 -0.0295  0.2841 -0.0146
26647W        W42831   6.962   4.770  11.968  0.0444 -0.3364  0.0718
26648W        W42832  17.722   2.639   3.284 -0.1683  0.2231  0.1922
26649W        W42833   0.637  11.286   0.950  0.0750 -0.0239 -0.3822
26650W        W42834   4.440  16.950   3.720  0.1253 -0.0078 -0.2432
26651W        W42835   2.913   4.941  11.535 -0.2072  0.0555 -0.0885
26652W        W42836  18.408  11.355   0.640  0.1332  0.1142  0.3127
26653W        W42837  18.598   2.436  14.339  0.0113 -0.1311 -0.1507
26654W        W42838  13.505   1.455   5.370 -0.0087  0.0197 -0.1037
26655W        W42839  10.859   1.790   0.863  0.0280 -0.3847 -0.2892
26656W        W42840   1.040  16.291   0.262 -0.3837 -0.2481 -0.0736
26657W        W42841  14.786   4.355   0.242  0.0498  0.5109 -0.0130
26658W        W42842  10.794  16.766  11.490  0.0604 -0.0701 -0.1862
26659W        W42843   3.746  13.898   3.314  0.1839  0.0668  0.1630
26660W        W42844  13.484  18.498   2.167 -0.1199  0.1128  0.0674
26661W        W42845   3.922  18.469   1.637  0.0178  0.2045 -0.2870
26662W        W42846   3.546   6.609   3.969 -0.1138 -0.0988 -0.3101
26663W        W42847   8.955   7.307  11.908 -0.1994 -0.1142  0.1235
26664W        W42848   1.615   0.847  13.066 -0.2362  0.0974  0.2290
26665W        W42849  18.442   4.583  13.358 -0.1959  0.0279  0.0022
26666W        W42850   6.153  18.809  12.354 -0.3088  0.0773 -0.1212
26667W        W42851   5.548  12.110   4.909 -0.1262  0.0108 -0.0832
26668W        W42852   1.121  11.975  12.993  0.0460  0.2845 -0.1190
26669W        W42853  11.716   2.647  13.772 -0.0825 -0.0626  0.3290
26670W        W42854   2.911   0.260   0.716  0.0643 -0.2234 -0.2025
26671W        W42855   2.299  10.646  14.747 -0.0063  0.0894 -0.0677
26672W        W42856   7.980  14.181   1.385  0.1969  0.1543 -0.0951
26673W        W42857  11.172  16.264   4.400  0.0082  0.2054 -0.3498
26674W        W42858  18.602  14.982   4.144  0.3391 -0.1689 -0.0793
26675W        W42859   8.028   1.132   4.774  0.0921  0.0806  0.1108
26676W        W42860   5.103  17.118  11.128 -0.5171  0.5418  0.0374
26677W        W42861  11.244  13.921  15.287  0.3150  0.1542  0.0837
26678W        W42862   4.049  15.615  11.428 -0.2139  0.2566  0.2964
26679W        W42863   4.251  12.794   1.596  0.2982 -0.0915 -0.1672
26680W        W42864   7.486   5.872  12.103  0.1109  0.0364  0.1700
26681W        W42865   1.704   2.221  11.806 -0.4788 -0.1215  0.0802
26682W        W42866   2.777  13.477  11.306  0.0784  0.1007  0.1305
26683W        W42867   6.645  18.017   3.577 -0.3572 -0.2447 -0.0101
26684W        W42868   4.569  18.093  12.445 -0.2191  0.0513  0.3211
26685W        W42869   0.522  13.459  13.980 -0.1611 -0.1856  0.0547
26686W        W42870   5.488   5.255  15.366 -0.0560 -0.1284 -0.2144
26687W        W42871  11.437  11.876   2.115 -0.0677  0.0115  0.1972
26688W        W42872  17.715  15.987   0.486  0.2616  0.0892 -0.0753
26689W        W42873  12.384   0.589   1.796 -0.2197  0.0422  0.1646
26690W        W42874   7.843   1.896  14.023  0.2296  0.2370  0.1788
26691W        W42875  18.095  14.218   2.966 -0.1347 -0.0293 -0.0358
26692W        W42876  13.701  11.519  13.224  0.0595  0.1786 -0.1198
26693W        W42877  13.104  16.654  15.155  0.0106 -0.1084  0.2646
26694W        W42878  18.636  16.901   3.975  0.1703  0.2979  0.3418
26695W        W42879  16.773  12.019  13.449  0.0140 -0.0316  0.2162
26696W        W42880   7.157  13.430  11.569 -0.1278  0.0453  0.2356
26697W        W42881   0.207  16.076   9.716  0.1938  0.0339 -0.1273
26698W        W42882  11.152   0.187  12.244  0.0411 -0.1854  0.1057
26699W        W42883   1.798   4.342   0.702 -0.0037  0.0333 -0.2163
26700W        W42884   0.492  16.444   5.193 -0.0252  0.2719  0.0824
26701W        W42885  15.935  13.257   2.303 -0.0333 -0.0130 -0.2479
26702W        W42886   0.869   2.733   0.603  0.1879 -0.0966 -0.1387
26703W        W42887   3.025   8.467  15.417 -0.1297  0.1763 -0.2187
26704W        W42888   0.439   5.242  10.967  0.1146  0.5363 -0.2145
26705W        W42889  12.977   6.289  14.471 -0.0359 -0.0813  0.0179
26706W        W42890  12.769   8.947   5.668 -0.2855  0.4647  0.0591
26707W        W42891   8.883   5.540   3.374  0.0640 -0.2827  0.2615
26708W        W42892   0.479  18.479  11.940  0.1043 -0.0967  0.2967
26709W        W42893   2.587  10.647   2.144 -0.0067 -0.0941 -0.0891
26710W        W42894   4.624   6.690   0.155 -0.0161 -0.0888 -0.0906
26711W        W42895   3.772  14.631  11.137 -0.0297  0.0704 -0.0524
26712W        W42896   9.978   6.404   4.486 -0.2175 -0.2235 -0.2513
26713W        W42897   7.282  14.541  13.182 -0.2136 -0.5196 -0.0989
26714W        W42898  10.539   6.957   2.939  0.2702 -0.0609  0.2474
26715W        W42899   5.890   2.311   1.905 -0.0574 -0.2348 -0.4453
26716W        W42900   6.005   1.465   4.768 -0.2140 -0.0748 -0.2706
26717W        W42901   4.889  11.034  13.394  0.1821 -0.2921 -0.2184
26718W        W42902   4.109  11.131  12.843 -0.1802 -0.2955 -0.2283
26719W        W42903   0.793  15.132  10.636 -0.1629 -0.1642 -0.0962
26720W        W42904  11.029  13.727   4.250 -0.0266 -0.0286 -0.3937
26721W        W42905  13.077  13.860   4.468  0.2966  0.0859  0.1054
26722W        W42906   0.899   6.963   1.656  0.1673  0.0461  0.1133
26723W        W42907   0.761   2.923  10.869  0.1447  0.0358  0.0678
26724W        W42908   8.503  17.996   4.186  0.0028  0.0793  0.0525
26725W        W42909  10.828   1.705   5.577 -0.0879  0.1924  0.0284
26726W        W42910   6.881   7.166   5.189  0.1637 -0.1658 -0.0589
26727W        W42911  11.214   7.962  10.679  0.3453 -0.3024 -0.0983
26728W        W42912  17.500   4.186   4.556 -0.2844  0.1978 -0.2728
26729W        W42913   1.433   2.669  15.322 -0.0417  0.1558  0.1827
26730W        W42914  15.441   6.782   0.319  0.0460  0.2058  0.0956
26731W        W42915  14.091  15.884   4.410  0.1417  0.0431 -0.1594
26732W        W42916   9.911   2.133   9.990  0.1331 -0.1143 -0.2622
26733W        W42917  16.524  15.573  13.128 -0.2107  0.2861 -0.0222
26734W        W42918   4.104  12.816   0.092  0.3143  0.0150  0.2957
26735W        W42919   1.170   8.553  12.736  0.0942 -0.1457 -0.1495
26736W        W42920  10.967  17.239  15.282 -0.0081  0.0371  0.0675
26737W        W42921   9.450  15.795   2.920 -0.0781  0.0708 -0.0342
26738W        W42922   1.748   1.818   9.714 -0.0661  0.2776 -0.0631
26739W        W42923  15.057   5.965   4.416 -0.0423 -0.1841  0.4139
26740W        W42924   5.303   0.971   3.388  0.1445  0.2270  0.1635
26741W        W42925   0.411   5.507  12.712  0.1009 -0.0710  0.2038
26742W        W42926   1.203  11.354   5.476 -0.2315  0.0728 -0.2339
26743W        W42927  12.877  18.760  13.565 -0.0440  0.2189 -0.0902
26744W        W42928   4.828  17.729   3.679 -0.1370  0.1316 -0.1587
26745W        W42929  18.630   4.282   1.907 -0.3018 -0.0304 -0.0708
26746W        W42930  14.911   7.207   0.504  0.0267 -0.0270  0.1649
26747W        W42931   6.289   4.613   1.292 -0.2805 -0.2537 -0.0158
26748W        W42932  10.026  13.255  11.298 -0.0561  0.0815  0.1074
26749W        W42933   2.108  17.837   2.432 -0.1103  0.3150  0.1175
26750W        W42934   2.643  18.600   0.040 -0.0564  0.2594 -0.0153
26751W        W42935  10.633   0.057  15.211 -0.2142  0.0112  0.0539
26752W        W42936   7.146  15.173   1.220 -0.0521 -0.1229  0.1450
26753W        W42937  11.379  13.026   3.596 -0.0126 -0.1396 -0.0438
26754W        W42938   6.050  16.490  15.435  0.2455 -0.1742  0.2115
26755W        W42939  14.902  10.055   0.728  0.0763  0.0164 -0.1345
26756W        W42940   9.566   4.942  11.373 -0.2060  0.3057 -0.1828
26757W        W42941  15.718  14.793  15.116 -0.0826 -0.0047  0.1451
26758W        W42942  12.849  15.071  11.242  0.1392 -0.0593 -0.0093
26759W        W42943  11.081  15.329  15.314  0.2634  0.2378  0.0677
26760W        W42944  18.529  11.155  13.648 -0.1270 -0.0002  0.1273
26761W        W42945   6.919   4.085  11.094 -0.0938  0.0473 -0.1452
26762W        W42946  13.326   2.511   2.031 -0.3766  0.2414  0.1124
26763W        W42947  13.392   8.478   9.679  0.5023  0.5594 -0.1688
26764W        W42948   7.508   4.591  14.286  0.2632  0.2279 -0.0384
26765W        W42949   8.761  12.325   0.718  0.0703  0.1563  0.0780
26766W        W42950   3.574  10.118  13.704  0.1956 -0.0742 -0.2896
26767W        W42951   2.945   2.350  13.964  0.0356 -0.3482  0.2630
26768W        W42952  12.405   8.064  10.976 -0.0090 -0.1067 -0.2157
26769W        W42953   2.728   7.584  10.839  0.0658 -0.1364  0.0742
26770W        W42954   7.821  18.740  11.905  0.1373  0.1474  0.4122
26771W        W42955  13.700   2.893   4.739 -0.1389  0.0999 -0.1130
26772W        W42956   0.321  10.242  15.043  0.0082 -0.2633  0.0499
26773W        W42957  16.531  18.189  14.176  0.2182  0.0944 -0.1380
26774W        W42958   4.369   6.386   3.148 -0.0647 -0.1447  0.1177
26775W        W42959   3.293   6.292   3.080 -0.2374 -0.2615  0.1435
26776W        W42960  10.400  17.880   5.032  0.0422 -0.0215 -0.0497
26777W        W42961  15.879   6.275  12.994  0.1139  0.0830 -0.3695
26778W        W42962   6.553   2.585   5.376  0.1956  0.3516 -0.2300
26779W        W42963   1.050  14.979   0.600 -0.0143 -0.1519  0.1608
26780W        W42964  12.396   4.064  10.927  0.0529 -0.1722  0.0519
26781W        W42965   6.225   1.266   3.714 -0.2476  0.0230  0.0148
26782W        W42966   6.478  14.405   3.352  0.0730 -0.0304  0.1886
26783W        W42967  13.485   3.594  11.611  0.1981 -0.0785  0.1225
26784W        W42968   0.944   5.317   2.398 -0.2012  0.0318 -0.3432
26785W        W42969  16.779  14.156   0.754 -0.0294 -0.1669 -0.1647
26786W        W42970   8.528  14.464   5.790  0.0700  0.1153 -0.1532
26787W        W42971  14.890  17.045  11.155  0.1392 -0.2778 -0.2936
26788W        W42972  18.086   7.308   3.816  0.0662  0.0890 -0.0804
26789W        W42973   3.804   1.259   0.834  0.1416  0.1710  0.0427
26790W        W42974  14.942   8.739  11.012 -0.2653  0.3352  0.4762
26791W        W42975   6.051   0.935   2.075 -0.2665  0.0194 -0.0933
26792W        W42976   6.085  11.269  13.646 -0.0129  0.0171 -0.0407
26793W        W42977   3.797  17.160  12.131 -0.3113  0.0001 -0.0649
26794W        W42978  16.128   5.301   2.088  0.0864  0.2293 -0.2773
26795W        W42979  17.775   3.503  11.515  0.1651  0.0591 -0.2925
26796W        W42980   4.377   4.516  13.973  0.0056  0.1612  0.1639
26797W        W42981   5.346  14.840  13.003 -0.0155  0.5313  0.1464
26798W        W42982  13.281   0.545   3.967  0.0915  0.0988  0.0693
26799W        W42983   3.620   5.798  14.790 -0.2007  0.0995  0.1313
26800W        W42984   0.257  13.535  14.895  0.1629  0.1281 -0.0307
26801W        W42985   7.992   4.922   4.221  0.1125 -0.0373  0.1439
26802W        W42986   6.963   2.373   5.535 -0.1214  0.2125  0.2213
26803W        W42987   8.265  13.962   2.877 -0.0514 -0.1608  0.1940
26804W        W42988   0.662   8.515  13.835  0.0530 -0.0189 -0.1153
26805W        W42989   5.311   5.642  11.086 -0.2511 -0.0721 -0.6350
26806W        W42990   1.688  17.608  11.831 -0.1708 -0.2904  0.0091
26807W        W42991   6.885   0.244  10.930 -0.1744 -0.0796 -0.0541
26808W        W42992   8.151   3.657   2.696 -0.2643 -0.3156  0.1545
26809W        W42993   7.384   4.633   3.013  0.0628 -0.0574  0.1589
26810W        W42994   5.407  18.808   1.275  0.1917  0.1973  0.1831
26811W        W42995  14.850  14.336   1.640  0.0049 -0.1703 -0.0885
26812W        W42996  17.126   2.698   1.215  0.0955  0.1510 -0.0859
26813W        W42997  15.196   0.673  13.264  0.1713 -0.0814 -0.6194
26814W        W42998   5.185   4.618   2.557 -0.0047  0.0411 -0.2188
26815W        W42999   9.755  18.064  14.371  0.2546  0.3442 -0.1171
26816W        W43000  18.487  10.586   4.459  0.0401  0.0722  0.3205
26817W        W43001   9.651  10.193   1.573 -0.1279 -0.0491  0.1110
26818W        W43002   7.691   7.279  13.177 -0.2795 -0.2868 -0.1021
26819W        W43003   2.496   7.684  12.474 -0.3050  0.2017  0.2339
26820W        W43004  15.674  14.392   1.576  0.0739 -0.2147  0.1728
26821W        W43005   1.799  18.377   5.068 -0.0479  0.1800  0.1690
26822W        W43006   5.231  12.862   5.176 -0.3224 -0.1502 -0.0786
26823W        W43007  16.283   7.963   4.766 -0.2558 -0.0026 -0.0548
26824W        W43008   4.340  15.267  12.594  0.2493 -0.0543 -0.0880
26825W        W43009   8.943   8.954  14.568  0.1219 -0.2837  0.0968
26826W        W43010  12.380  13.355  13.730  0.1915 -0.1254  0.0438
26827W        W43011  12.362   0.393   2.279 -0.1294 -0.2898 -0.0644
26828W        W43012   1.823  11.996  13.624 -0.1013  0.0814  0.1711
26829W        W43013  11.219   3.464  12.131 -0.0944 -0.1336 -0.1716
26830W        W43014  10.397   0.787  12.200 -0.1332 -0.0142 -0.2777
26831W        W43015   5.894  14.146   2.448 -0.2071  0.3069 -0.1144
26832W        W43016  12.077   5.525  12.248 -0.1689  0.1619 -0.0166
26833W        W43017  11.783   9.781   1.315 -0.0316  0.1791 -0.0653
26834W        W43018   4.341  18.422  12.760  0.3351  0.2169 -0.2308
26835W        W43019  14.627  17.244  12.608 -0.1402  0.0683 -0.0803
26836W        W43020   3.705  11.945  15.369  0.0875 -0.0489 -0.0415
26837W        W43021   8.515  12.535  15.265 -0.1025 -0.4278  0.1411
26838W        W43022  11.934   3.338  13.197 -0.1663 -0.2920  0.1454
26839W        W43023   4.144   8.231   0.897  0.1819  0.0422  0.1085
26840W        W43024   7.426   8.575  15.505  0.3509  0.1069  0.0274
26841W        W43025  10.961   0.783   1.014 -0.2428 -0.1420  0.2036
26842W        W43026   3.278   0.347   3.185  0.0251 -0.1735  0.2205
26843W        W43027   0.958  10.349   1.287 -0.1394 -0.0892  0.1296
26844W        W43028  16.702   7.518  13.729 -0.3416  0.3421  0.3400
26845W        W43029   5.654   2.527   1.341 -0.0229  0.1562  0.0399
26846W        W43030   2.019  13.024  12.343  0.0761  0.0273 -0.0898
26847W        W43031   9.934  12.013  10.716 -0.0923  0.0668 -0.1150
26848W        W43032   8.825   3.415   5.310 -0.0343 -0.0282  0.1780
26849W        W43033  17.053   9.979  13.305 -0.0393 -0.2938  0.0908
26850W        W43034   2.878  12.505  14.269 -0.0052 -0.2142  0.0466
26851W        W43035  18.055  11.676   0.466  0.0581 -0.1228  0.1132
26852W        W43036   0.455   3.395   2.229  0.2187 -0.0379  0.2249
26853W        W43037  14.292   8.588  12.508  0.0748 -0.2609 -0.1005
26854W        W43038  10.625  16.292  11.282  0.3259  0.1257  0.1015
26855W        W43039  15.381  13.335  15.105  0.2727  0.1378 -0.0889
26856W        W43040  10.643  11.152   0.516 -0.1553 -0.0444 -0.1525
26857W        W43041   0.747   7.131   1.132 -0.1571  0.2197  0.5560
26858W        W43042   3.400   2.833   2.500  0.4529 -0.0601  0.1416
26859W        W43043   7.375  15.951  13.472  0.2721 -0.1357  0.0146
26860W        W43044   1.747  17.872   5.420 -0.0855 -0.4701 -0.1364
26861W        W43045   9.455   7.698  11.478  0.2757 -0.0367  0.2022
26862W        W43046  11.220  15.155  13.636  0.3018  0.0586  0.0297
26863W        W43047   1.528   4.955   4.693  0.0184  0.0073 -0.1257
26864W        W43048  13.773  11.119   4.654  0.2224  0.3739  0.2013
26865W        W43049   7.104  17.157  15.287 -0.3583  0.1016  0.0047
26866W        W43050   2.253   9.670  14.023  0.1470 -0.1169 -0.1820
26867W        W43051   4.195  17.842   5.197  0.1348 -0.0844 -0.1622
26868W        W43052  16.156   7.466   4.488  0.1721 -0.1354 -0.1463
26869W        W43053   0.435  10.986   0.140 -0.1218  0.2909 -0.3028
26870W        W43054   5.524   1.246  14.534 -0.1959 -0.1093  0.0915
26871W        W43055   8.609   5.565  15.105  0.0651 -0.0490 -0.0157
26872W        W43056  11.303   5.845  10.283  0.0789 -0.1670 -0.2548
26873W        W43057  16.166   5.960   0.859  0.1174  0.1476  0.0768
26874W        W43058   2.559  14.570  11.491  0.1652  0.0937 -0.1142
26875W        W43059  14.892   6.701   0.769  0.1109 -0.2420 -0.0163
26876W        W43060   8.041   2.295   0.779  0.2342  0.2683  0.0893
26877W        W43061  10.033  18.388   4.664 -0.3446  0.0119  0.0510
26878W        W43062   8.601  10.962   4.510 -0.3606 -0.1897 -0.1101
26879W        W43063  18.683  12.939   1.302  0.0459  0.1398 -0.1881
26880W        W43064  10.518  15.362   4.721 -0.0025 -0.1156  0.4913
26881W        W43065  10.511   2.301   3.478 -0.1648  0.1623  0.0447
26882W        W43066   9.099   9.155  14.090  0.0553  0.0507 -0.0440
26883W        W43067  12.404  14.581  13.553  0.0641 -0.0081 -0.1835
26884W        W43068   1.191   3.242   3.187  0.1634 -0.0450 -0.0747
26885W        W43069  18.701  15.610   3.286 -0.0049  0.0001  0.1770
26886W        W43070  17.490  18.552  11.447 -0.0324  0.1329 -0.1111
26887W        W43071   9.955  12.748  13.692 -0.1774 -0.1868 -0.1761
26888W        W43072  15.560  15.651  13.227  0.2693 -0.0361  0.0396
26889W        W43073   4.204  18.271   2.637 -0.0109 -0.1151 -0.0701
26890W        W43074  18.531  18.083  14.701 -0.1196 -0.0225 -0.1474
26891W        W43075  14.273   2.275  15.172  0.1304  0.0594  0.0461
26892W        W43076  12.920   9.510   4.855  0.4176 -0.2601 -0.1276
26893W        W43077   0.294   6.679  13.577  0.0369 -0.1978 -0.2583
26894W        W43078  16.863   1.433   1.133  0.0089  0.0924  0.1832
26895W        W43079   1.074  16.683   0.684 -0.0557 -0.0901  0.0720
26896W        W43080   0.810   4.893   2.195  0.1509  0.0622 -0.0726
26897W        W43081  15.475   4.029   0.512 -0.0326  0.0035  0.2572
26898W        W43082  16.569  17.459   5.714 -0.2970 -0.1361  0.0820
26899W        W43083   3.450  18.834  15.108  0.1545 -0.3308  0.2019
26900W        W43084  16.814   8.119   1.532 -0.0013  0.0976  0.0455
26901W        W43085   8.878   8.464   2.869  0.0336  0.0330 -0.3269
26902W        W43086  18.341   9.759  14.926 -0.1757  0.2015 -0.0068
26903W        W43087   7.718   3.954  12.070  0.1943  0.0891  0.1640
26904W        W43088   9.746   7.564   2.669 -0.1850 -0.0120  0.2650
26905W        W43089  16.239  10.649  12.221 -0.1705  0.0852  0.2687
26906W        W43090   8.065  16.117   1.489  0.0471 -0.1693 -0.4366
26907W        W43091   4.664  15.437   0.413 -0.2036 -0.0773 -0.2563
26908W        W43092  10.909   9.926  15.358 -0.1263 -0.0393  0.1010
26909W        W43093   5.205  17.678   3.293  0.0106 -0.1701 -0.0692
26910W        W43094  14.823  15.244   2.577  0.2952  0.1948  0.1406
26911W        W43095   6.082   8.324  13.801  0.0180 -0.0881  0.0669
26912W        W43096   2.376   3.064  10.646  0.1148 -0.2570 -0.1279
26913W        W43097   1.357   6.985   3.508  0.2805  0.0975 -0.0783
26914W        W43098  17.203   8.363   6.272 -0.3903  0.2985  0.1658
26915W        W43099  11.631   4.754  10.903  0.0223 -0.0788 -0.1868
26916W        W43100  18.022   1.231  14.568  0.1778  0.3353  0.0368
26917W        W43101  16.442  17.425   1.550  0.0660  0.1499 -0.0085
26918W        W43102  13.904   0.554   1.055 -0.0227  0.0866  0.0564
26919W        W43103   1.907   6.008  14.306 -0.0296  0.0292 -0.0593
26920W        W43104   9.522  14.988  14.537  0.0283  0.3402 -0.0566
26921W        W43105   2.873  16.082   2.422 -0.1159  0.1230  0.1747
26922W        W43106  10.127   5.098  12.614 -0.2427 -0.1282  0.1600
26923W        W43107   1.915   5.957   0.270 -0.3029 -0.1857  0.0576
26924W        W43108   6.829   4.584  11.376 -0.0494 -0.0076 -0.0271
26925W        W43109   4.766   9.144  11.709 -0.0393 -0.1265 -0.1312
26926W        W43110   6.565   3.446   2.209  0.0145  0.3484  0.2386
26927W        W43111   5.291  14.123  15.317 -0.1261 -0.0287  0.2384
26928W        W43112  16.376  13.373   3.254  0.0081  0.1399  0.0479
26929W        W43113  12.372  16.932   0.625 -0.1053 -0.1607 -0.1890
26930W        W43114  14.770   9.483   3.275 -0.3162 -0.0873  0.1029
26931W        W43115  13.860   8.645   5.052  0.2277  0.0250  0.0841
26932W        W43116  13.110   4.261   3.573  0.0117  0.5375 -0.0166
26933W        W43117  14.813   7.343  14.392  0.0725 -0.0909  0.1332
26934W        W43118   9.206   5.749   0.338 -0.0031 -0.0509 -0.0937
26935W        W43119  11.089  12.737   4.261  0.0224 -0.2004  0.0055
26936W        W43120   9.080   7.576   1.784  0.1058  0.1752  0.2061
26937W        W43121  18.508   9.930  12.152  0.0226 -0.1951  0.1606
26938W        W43122  15.430  18.512   3.817 -0.4313  0.2814 -0.0669
26939W        W43123  18.029   0.975  12.445  0.2860 -0.1194  0.0058
26940W        W43124   8.839   4.687  13.774 -0.0296  0.0092 -0.3933
26941W        W43125  17.014  12.136  13.892  0.0188  0.1676 -0.3606
26942W        W43126   5.475  18.696  14.241  0.0385  0.2764  0.0685
26943W        W43127  11.376   4.121   1.121 -0.1302 -0.0393 -0.1271
26944W        W43128  12.980   9.301   5.940  0.0704 -0.0657 -0.2388
26945W        W43129   5.102  17.669   5.148 -0.1331 -0.1110 -0.1611
26946W        W43130  13.232   6.959   3.842 -0.0169 -0.0405 -0.1232
26947W        W43131   4.722  13.173  13.080  0.0123 -0.0302  0.3501
26948W        W43132   7.031  13.296  12.936  0.0779  0.1916  0.2364
26949W        W43133  10.129   7.203  15.076 -0.0488  0.3827 -0.1473
26950W        W43134  14.390   9.251  13.840  0.0437 -0.3252  0.4102
26951W        W43135   6.645   9.880   1.417  0.1245  0.0179 -0.0733
26952W        W43136  12.484  14.926  14.225  0.0670  0.0002  0.0453
26953W        W43137  18.000   4.574   5.668 -0.1568  0.0088  0.2741
26954W        W43138   3.571  16.833   3.261  0.2037 -0.1876 -0.0638
26955W        W43139  16.124  17.326   4.298 -0.2562  0.1261 -0.3053
26956W        W43140  15.039   0.574   0.015 -0.0598  0.0552  0.2324
26957W        W43141   0.458   0.578   2.219  0.0043  0.0669 -0.2272
26958W        W43142   5.639   5.847  10.812 -0.0248  0.0315 -0.0037
26959W        W43143   7.489   5.913   3.164  0.1392  0.0514  0.0563
26960W        W43144  13.331  10.456   5.071 -0.2143 -0.2559  0.1362
26961W        W43145   8.575   8.411   4.470 -0.1374  0.3978  0.1253
26962W        W43146  10.619  17.222   0.142 -0.2186 -0.0462  0.1419
26963W        W43147  15.525   3.303  11.045 -0.0483 -0.0291  0.2032
26964W        W43148   9.182  18.191   0.889 -0.1775 -0.3264 -0.1407
26965W        W43149  15.663  15.585   0.933 -0.1705  0.2629  0.0215
26966W        W43150   0.706  11.610   5.358  0.2694 -0.0145  0.2396
26967W        W43151   9.757  14.619   5.360  0.0159 -0.1207 -0.3241
26968W        W43152   4.862   3.675  14.786 -0.0799 -0.3045 -0.1018
26969W        W43153   3.021  11.051   5.012 -0.3477 -0.1333 -0.0206
26970W        W43154   5.785  14.934  15.504 -0.0721 -0.3072 -0.0049
26971W        W43155  12.670  11.296   5.620 -0.2163  0.3407 -0.1864
26972W        W43156  16.430   6.952   5.179  0.1409  0.3173 -0.2145
26973W        W43157   7.319   7.658  10.466 -0.4127  0.0622  0.3199
26974W        W43158  17.017  15.547  13.401  0.2165 -0.0356 -0.1900
26975W        W43159   4.396   2.718  13.302  0.1780 -0.4344  0.3563
26976W        W43160  14.318   5.776  13.486 -0.1495  0.2292 -0.1738
26977W        W43161  13.967  18.069   2.714  0.0290 -0.2220 -0.0828
26978W        W43162  14.138   7.160   3.910  0.1841 -0.2498 -0.0240
26979W        W43163   2.128  10.918  14.332  0.0887 -0.3206  0.3201
26980W        W43164  11.193  16.472   0.455 -0.0253 -0.0746 -0.0086
26981W        W43165   2.481  11.516   4.332 -0.1952 -0.2954  0.0858
26982W        W43166   0.211  10.654   5.017  0.2275  0.1302 -0.0337
26983W        W43167  14.832   2.528  11.789  0.0375 -0.0606  0.2114
26984W        W43168  15.394  14.296  13.284 -0.0102 -0.0925  0.0586
26985W        W43169  10.720   6.404   1.235  0.0746 -0.2450  0.1650
26986W        W43170   0.359  12.685  14.467  0.2866  0.0493  0.2404
26987W        W43171  13.512  18.755   1.725 -0.2264  0.1935  0.0017
26988W        W43172  15.932  12.691  14.318  0.0740 -0.0904  0.2807
26989W        W43173  14.886   3.500   4.877  0.0575  0.0964 -0.0412
26990W        W43174   3.343   5.371   1.031 -0.0533 -0.2232  0.0507
26991W        W43175  14.557   6.826   1.622 -0.1804  0.2547 -0.1216
26992W        W43176   7.756   2.940   1.575  0.3476  0.1330  0.0453
26993W        W43177  18.842  14.942  10.746  0.0487  0.1222 -0.2597
26994W        W43178  11.061  13.962  11.904  0.2948  0.3098 -0.2257
26995W        W43179   9.595  17.320   3.817  0.1734  0.2523 -0.3109
26996W        W43180  13.801  10.878  15.368  0.0706 -0.0603  0.0822
26997W        W43181  15.189  10.037  11.076  0.2439  0.1363 -0.1434
26998W        W43182  16.004   2.638   1.094 -0.0088 -0.1851  0.1212
26999W        W43183  11.928   2.090  11.729  0.1298  0.2030  0.3535
27000W        W43184   9.918  10.226   3.055 -0.2171  0.1497  0.2415
27001W        W43185   4.330  16.341  10.844  0.0234  0.1494  0.0631
27002W        W43186   4.212  10.807   1.013  0.1242 -0.2458  0.0243
27003W        W43187   8.324   0.747   4.518 -0.1106 -0.0687  0.3424
27004W        W43188  14.773  18.763  14.939 -0.4443  0.2958  0.2662
27005W        W43189  18.189  18.456  13.848  0.2177  0.0687 -0.0174
27006W        W43190   2.781  12.512   1.962  0.0756 -0.0064  0.1775
27007W        W43191  11.660  16.591   2.101  0.0391  0.2719 -0.1787
27008W        W43192  12.048  16.266  15.338  0.1690 -0.2272 -0.0973
27009W        W43193   4.058  12.340   1.385  0.2780  0.2048 -0.2550
27010W        W43194  10.444  18.351  12.772 -0.1428  0.0751 -0.0962
27011W        W43195  16.287  17.389   0.295 -0.1150 -0.2063  0.0001
27012W        W43196  16.983   9.582  15.266  0.0370  0.2618  0.0287
27013W        W43197   3.035   6.930  14.331 -0.3819 -0.1912 -0.1132
27014W        W43198   0.905  12.519   3.804  0.2804 -0.1531  0.0330
27015W        W43199  17.991  13.023   4.054  0.1027  0.0813  0.0440
27016W        W43200   0.763  13.795  10.700  0.1436  0.1235  0.0648
27017W        W43201   0.303   0.889  13.797 -0.2417  0.2213  0.0822
27018W        W43202  10.000   6.813   1.051  0.3152  0.2208  0.1646
27019W        W43203   3.004   3.438   0.542 -0.1666  0.0587  0.0764
27020W        W43204   6.191  11.981   2.817 -0.1417 -0.0057  0.1840
27021W        W43205   7.102   3.473  13.587 -0.3697  0.3111 -0.0266
27022W        W43206   4.486   0.212  11.540  0.2162  0.1762 -0.0465
27023W        W43207   1.720  11.543   0.317 -0.1361 -0.1834 -0.1135
27024W        W43208  17.931   8.153  13.128  0.1452 -0.4635  0.1468
27025W        W43209   6.745   3.227   1.288 -0.4364 -0.1147  0.1937
27026W        W43210   0.851  11.931  11.929  0.3452  0.2259  0.0535
27027W        W43211  18.773   5.008  10.600  0.4063  0.0038  0.2976
27028W        W43212  13.693   6.982   4.094  0.0198 -0.1662 -0.0405
27029W        W43213  16.369   3.717   0.607 -0.0135 -0.0401  0.2465
27030W        W43214   5.990  11.718  13.342 -0.0260  0.0484 -0.0219
27031W        W43215   3.484   9.133   9.642 -0.3420  0.1556  0.2096
27032W        W43216   3.225  10.458  10.981 -0.1809  0.0997  0.1719
27033W        W43217  13.687  14.951   2.203  0.0506  0.1822 -0.3254
27034W        W43218  18.245   0.346   0.814  0.3088 -0.1292 -0.0646
27035W        W43219  13.563   6.895  12.207 -0.0275  0.3682  0.0619
27036W        W43220  17.767   0.376   5.088  0.1423  0.1598 -0.1489
27037W        W43221  13.490  18.660  12.393 -0.2436 -0.0117  0.2049
27038W        W43222   5.313  11.663   4.742 -0.0432 -0.1507 -0.1040
27039W        W43223   4.685   3.442   4.529  0.1355 -0.1985 -0.1539
27040W        W43224  10.740   6.932  12.765  0.0172  0.4120 -0.2376
27041W        W43225  18.843   5.740  14.983  0.1227  0.1126 -0.3308
27042W        W43226  11.676   3.174  11.492  0.4023 -0.0973  0.4594
27043W        W43227   1.931   1.102  12.547 -0.1264 -0.1136  0.1218
27044W        W43228  11.693  12.975  11.013  0.2384 -0.1371 -0.0545
27045W        W43229   1.731  10.480   1.537 -0.2429  0.0030  0.0968
27046W        W43230  14.309  15.246   2.334 -0.0998  0.0733 -0.0323
27047W        W43231   5.310  17.985  15.032  0.1073 -0.3209  0.1516
27048W        W43232  13.502   8.608   0.896 -0.0915 -0.2286  0.1761
27049W        W43233   5.242   5.335  11.585 -0.2169 -0.1448  0.0768
27050W        W43234   2.445  10.674  12.588 -0.2284  0.2500 -0.1160
27051W        W43235   6.038  16.528  13.617 -0.1662 -0.2003  0.2539
27052W        W43236  13.695   2.799  15.339 -0.2568  0.3289  0.1066
27053W        W43237  13.440  12.524   1.501 -0.4119 -0.0195  0.1793
27054W        W43238   4.806   2.821  12.654 -0.0437  0.0626  0.0446
27055W        W43239   5.832   0.655   2.616 -0.0464 -0.0240  0.1682
27056W        W43240  10.083  18.735  13.681  0.0920  0.1640  0.0254
27057W        W43241  11.400  14.245  13.463 -0.0724 -0.4334  0.2094
27058W        W43242  10.807   4.482   5.192 -0.0026  0.1562 -0.0245
27059W        W43243  16.704   0.214  15.264 -0.0417  0.0553 -0.0579
27060W        W43244   4.754  10.711  14.068 -0.2256 -0.0900 -0.1911
27061W        W43245   7.938   2.371  12.271 -0.0973 -0.2954 -0.2897
27062W        W43246   5.053  16.835  15.004 -0.0919 -0.0600 -0.1191
27063W        W43247   1.848  18.055  14.205  0.1459  0.2547  0.2702
27064W        W43248   0.387  17.136  11.800  0.0610 -0.1264 -0.3167
27065W        W43249   6.074   8.544   3.309  0.1114  0.2618  0.2453
27066W        W43250   7.584   8.128  12.556  0.1072 -0.0481 -0.2267
27067W        W43251  14.994   7.995  13.977  0.3574  0.0878  0.2841
27068W        W43252   4.472   6.004  11.227  0.2650 -0.1390 -0.0432
27069W        W43253   8.575   5.740  11.868  0.0912  0.0266 -0.0544
27070W        W43254  15.658   2.360   1.242 -0.1200  0.0719 -0.0523
27071W        W43255   5.584   9.543  13.665  0.1645 -0.2435  0.2719
27072W        W43256   8.354   2.116   0.099 -0.0833  0.1959  0.1653
27073W        W43257   1.272  14.866   4.670  0.0539 -0.1144  0.0042
27074W        W43258   7.158   9.856  11.656 -0.1346  0.0969 -0.0396
27075W        W43259   8.569   1.206   4.709  0.0323  0.1561  0.2448
27076W        W43260   5.074  10.531   2.001 -0.0516 -0.2891  0.0687
27077W        W43261   8.812   7.120  10.855 -0.1502  0.0592  0.2037
27078W        W43262   2.488   2.814   0.101 -0.3343  0.0030  0.2401
27079W        W43263  12.836  12.267  11.066 -0.1161  0.0323  0.1217
27080W        W43264   1.103  11.217   2.293  0.2721 -0.0015 -0.1978
27081W        W43265   1.788  16.815  13.623 -0.1509 -0.2333 -0.0313
27082W        W43266  10.241  14.057  14.077 -0.0855  0.0168  0.3162
27083W        W43267   8.850  13.470   6.248  0.2321 -0.1079 -0.0718
27084W        W43268   7.064  16.290  13.246  0.1052  0.0634  0.1101
27085W        W43269  15.947   4.185  14.607 -0.2888 -0.0225 -0.2165
27086W        W43270   4.254   0.382  14.941 -0.1666  0.1643 -0.1162
27087W        W43271   8.198   8.682  14.114  0.2465 -0.3657 -0.0108
27088W        W43272  17.240   9.399   3.560  0.4638 -0.1240  0.0625
27089W        W43273  10.209   3.410   0.385  0.1523  0.0354 -0.0469
27090W        W43274  14.366   8.772  14.155  0.1499  0.1992 -0.4705
27091W        W43275   1.543  18.721   0.039 -0.2188 -0.3146 -0.0009
27092W        W43276   1.220   8.563   0.546  0.0455  0.0570 -0.1960
27093W        W43277  14.002   2.424  13.768 -0.2567  0.0227  0.2639
27094W        W43278  11.646  10.252  13.653 -0.0306 -0.2115  0.1125
27095W        W43279   5.302  17.513   5.600 -0.1985  0.1557 -0.2111
27096W        W43280  10.125  14.536  14.183 -0.1375 -0.0438 -0.2214
27097W        W43281   0.648   9.869  10.857 -0.0425 -0.0045  0.2187
27098W        W43282   0.450  12.322   1.580 -0.0217 -0.1193 -0.2415
27099W        W43283  15.638  18.512   2.896 -0.1676 -0.0649 -0.1025
27100W        W43284   2.601   9.131   9.633  0.0168  0.0304  0.1168
27101W        W43285   7.203   7.973  12.838  0.0241  0.1065  0.2898
27102W        W43286   2.670   5.047  13.691 -0.0679 -0.1630 -0.0636
27103W        W43287   0.766  18.446   1.647 -0.1250  0.5291 -0.1752
27104W        W43288   2.502   7.452   5.068 -0.0216  0.0077  0.3366
27105W        W43289   5.746   1.732   1.820 -0.2226 -0.2014 -0.3725
27106W        W43290  13.663  12.100  13.205 -0.0947  0.1204  0.2874
27107W        W43291  16.270   0.773   2.244  0.2098 -0.0817 -0.4145
27108W        W43292  10.673  11.286  13.335 -0.0189 -0.0878 -0.5632
27109W        W43293  18.590   7.736  12.690  0.1236 -0.0297  0.1233
27110W        W43294  10.147  15.592  13.193 -0.3598 -0.0885  0.2526
27111W        W43295   4.514   6.720   2.713 -0.0082  0.0080  0.3209
27112W        W43296  15.599   6.130   0.905  0.3212  0.1296 -0.1437
27113W        W43297   7.075  10.996  13.075  0.0474  0.2561  0.2024
27114W        W43298   0.116  17.810   5.802  0.1228  0.1937  0.0753
27115W        W43299  12.356  16.971  11.455  0.1250 -0.4073  0.0018
27116W        W43300   3.648  11.571  11.665 -0.0067  0.3687  0.0732
27117W        W43301  14.067   0.306  11.786 -0.1046  0.1348  0.2069
27118W        W43302   9.917  16.737   0.573  0.4150 -0.1926 -0.2755
27119W        W43303  12.190   3.669   2.583 -0.2724  0.2933  0.0079
27120W        W43304  13.985  11.241  12.379 -0.0379 -0.2572 -0.1782
27121W        W43305  14.765  17.310   4.434 -0.0418 -0.2454 -0.0919
27122W        W43306  14.243  13.709  12.489  0.2002 -0.0435  0.0761
27123W        W43307   6.691  10.284  14.258  0.1196  0.1584  0.0044
27124W        W43308  13.677  12.375   3.905  0.2641  0.1275  0.0052
27125W        W43309  18.068   7.243   4.322  0.0819 -0.0131 -0.0192
27126W        W43310  12.610   7.538   2.635  0.2766 -0.0593  0.0891
27127W        W43311  18.166   1.744   0.676  0.0036 -0.0590 -0.0665
27128W        W43312  18.465  18.211  12.977 -0.2114 -0.5168 -0.0139
27129W        W43313  14.433   9.526   1.498 -0.1260  0.0724 -0.3220
27130W        W43314   4.458   3.766  11.313  0.1916  0.0891 -0.2969
27131W        W43315  10.341  11.332  14.348  0.1432 -0.2524 -0.0641
27132W        W43316  13.248   7.273  12.263 -0.0535 -0.1927 -0.0091
27133W        W43317  14.144  12.086   4.406 -0.1097  0.3849 -0.4241
27134W        W43318   9.985  15.456   5.414 -0.0253  0.1449 -0.3145
27135W        W43319  17.411   3.892   1.643  0.1721 -0.0763 -0.4862
27136W        W43320   3.152   1.240  11.747  0.2984 -0.1084 -0.2244
27137W        W43321   9.292   6.010   1.197  0.0028 -0.0988 -0.3425
27138W        W43322  11.913   2.702   2.727  0.1953  0.1183  0.0741
27139W        W43323   1.511  12.283  13.857  0.1647 -0.1867  0.0125
27140W        W43324  12.525  16.737  10.654 -0.0089 -0.1448  0.0264
27141W        W43325   8.710   4.080  10.672 -0.1244 -0.0418 -0.0544
27142W        W43326   8.798   2.968   1.713  0.0346 -0.0675  0.1306
27143W        W43327   8.794   1.542   3.513  0.0174 -0.4158  0.1460
27144W        W43328  17.782  14.382  14.289  0.1181  0.0760 -0.4799
27145W        W43329   3.412   9.821   3.989 -0.1421 -0.3123  0.0150
27146W        W43330   3.154  11.928  10.779 -0.0183  0.3297  0.1201
27147W        W43331   3.992  18.512  13.248 -0.0060  0.1421  0.1424
27148W        W43332  14.326   6.694   4.155 -0.1170  0.0228 -0.1684
27149W        W43333  11.707   9.399   4.490  0.1946 -0.1855 -0.0266
27150W        W43334  15.978  12.181  11.159  0.1333  0.1245  0.2343
27151W        W43335  14.912   5.877   0.290 -0.2184  0.0801  0.4088
27152W        W43336   6.737  15.631  14.919 -0.2642  0.1966  0.1586
27153W        W43337   0.189  16.901  15.021  0.1430  0.0591  0.0230
27154W        W43338  10.887  10.124   3.967 -0.0058  0.0467  0.1719
27155W        W43339  11.648   6.313  13.907  0.4557 -0.0326 -0.0855
27156W        W43340   5.715  11.157  11.315  0.1924 -0.2215  0.0108
27157W        W43341   3.060   3.815  11.772  0.2018 -0.0246 -0.0393
27158W        W43342   8.685  16.326   0.704 -0.0433  0.2266 -0.0778
27159W        W43343  17.593  15.141  12.943  0.0383 -0.0427 -0.0067
27160W        W43344   8.320  16.736   2.385 -0.2293  0.1298  0.1224
27161W        W43345   0.211   9.648  11.615  0.2078 -0.1387 -0.0998
27162W        W43346   0.978   7.168  12.332 -0.1091  0.1178 -0.0632
27163W        W43347   8.336  11.891   5.505  0.1286 -0.0926 -0.0127
27164W        W43348   6.152  17.976  15.413 -0.1525  0.1728  0.1116
27165W        W43349   0.927  18.530  11.057 -0.2953  0.0709 -0.0515
27166W        W43350  13.496  16.975  15.277  0.1116 -0.0423  0.1350
27167W        W43351  17.430  10.067   5.253  0.0323 -0.1168  0.3322
27168W        W43352  17.999  15.308   4.301 -0.3135 -0.0898 -0.2795
27169W        W43353   7.244  17.288   1.343 -0.4051 -0.3357 -0.0655
27170W        W43354   3.816   2.542  11.452  0.1561 -0.1053  0.0377
27171W        W43355   4.172  15.836   3.067 -0.1575  0.0240 -0.1490
27172W        W43356   2.584   9.361   3.773 -0.2800 -0.1391  0.0434
27173W        W43357   8.420   0.072  14.891 -0.1216  0.1617  0.0273
27174W        W43358   3.714  14.205   2.917 -0.0119 -0.2922 -0.2010
27175W        W43359   3.539  15.583   1.313  0.1575  0.1330 -0.1150
27176W        W43360   0.300   5.773  13.076  0.2427 -0.1229 -0.2921
27177W        W43361   0.727  18.382  14.960 -0.0890 -0.1307 -0.1315
27178W        W43362   3.982   5.089   2.699 -0.0076  0.0444  0.0355
27179W        W43363  16.521  18.277  15.400  0.1593 -0.2462  0.2272
27180W        W43364   2.801   0.706  10.716 -0.0235  0.1159  0.0230
27181W        W43365   1.238   5.717  11.145 -0.1393 -0.0101  0.0519
27182W        W43366   3.546  18.485  10.940 -0.3283 -0.2104  0.4603
27183W        W43367   7.752   8.187  13.478  0.0135  0.0431  0.4548
27184W        W43368  12.531  12.566  11.324 -0.2226  0.2491  0.1846
27185W        W43369  18.798   3.261  11.130  0.3544 -0.1266  0.0467
27186W        W43370   3.315   8.171  11.747 -0.2081 -0.2826  0.3028
27187W        W43371   8.202   8.213  14.640  0.2123  0.0733 -0.0149
27188W        W43372   9.661   9.852   4.934  0.1249 -0.0897  0.4743
27189W        W43373   2.175  12.634   4.572 -0.2099 -0.0268  0.1278
27190W        W43374  17.379   1.165   0.937  0.2030 -0.1353  0.1661
27191W        W43375   9.426  17.233  11.102 -0.0796 -0.1402  0.0897
27192W        W43376   2.302  10.743  11.152  0.1043  0.1042  0.1343
27193W        W43377  14.305   1.721   3.856  0.0711 -0.1396 -0.2033
27194W        W43378  15.646  13.875   1.652  0.0577  0.1207  0.4157
27195W        W43379   4.752   9.303   1.627  0.4070  0.2094 -0.1745
27196W        W43380  13.883   1.080   5.752 -0.0010 -0.0155  0.1740
27197W        W43381   0.484  17.690  15.123 -0.0025  0.0090  0.1929
27198W        W43382   9.054   5.024   3.459 -0.1975  0.0711 -0.1635
27199W        W43383  13.557  16.168  12.384  0.0156 -0.2456 -0.1852
27200W        W43384  16.389  12.498   2.767 -0.1027 -0.0490 -0.1046
27201W        W43385   3.773   2.422   4.283 -0.1482  0.2922 -0.1372
27202W        W43386  18.463   0.337  11.886  0.1248 -0.2893  0.4496
27203W        W43387   3.452   0.238   3.670 -0.2452  0.2610  0.2461
27204W        W43388   2.934  12.953   4.837 -0.0258  0.3079 -0.1572
27205W        W43389   7.263  18.322   0.665 -0.1533  0.0550 -0.0697
27206W        W43390  18.744   2.917   0.261  0.0287 -0.1805 -0.0993
27207W        W43391  12.731   4.771   3.792  0.1167 -0.0451  0.0456
27208W        W43392   7.241   2.821   3.051  0.1936 -0.1457  0.1250
27209W        W43393   9.196  13.706   3.581 -0.1741 -0.0026  0.0614
27210W        W43394   0.376  17.391   2.379  0.0212  0.0478 -0.1456
27211W        W43395   6.705  11.338   3.429 -0.1606 -0.1131  0.0926
27212W        W43396  10.581   6.542  15.422  0.0120 -0.1612 -0.2677
27213W        W43397   5.274   1.332  15.255 -0.0276  0.0368 -0.2087
27214W        W43398  14.706  18.835  12.333 -0.0651 -0.0716  0.0376
27215W        W43399   3.190   5.416   0.021  0.2148  0.1708 -0.0670
27216W        W43400  18.152  14.171   5.496 -0.0706  0.1347 -0.1816
27217W        W43401   4.342   5.580  11.847 -0.2173 -0.1554  0.1229
27218W        W43402   7.358  15.021  14.465 -0.2370 -0.0277 -0.0338
27219W        W43403   1.209  11.280   9.775 -0.0646  0.0220 -0.1564
27220W        W43404  12.198   7.664   5.172 -0.1554  0.0959  0.0657
27221W        W43405  17.545   4.397  12.297  0.2272  0.3926 -0.0424
27222W        W43406  12.768  12.098   4.448 -0.0441  0.2005  0.1525
27223W        W43407   1.325  15.785  14.235 -0.0968 -0.1210  0.2024
27224W        W43408  17.984  15.180  15.103  0.0030  0.1315 -0.1396
27225W        W43409  11.467   9.211   0.701  0.2306 -0.0110 -0.2082
27226W        W43410   2.755   7.250  15.432  0.3643  0.3089 -0.1853
27227W        W43411   8.378   2.410  15.209  0.1380 -0.1167 -0.0787
27228W        W43412  15.472  18.704   3.311 -0.0391  0.1713 -0.2871
27229W        W43413  12.883   4.104  10.903  0.1879 -0.0636  0.0068
27230W        W43414  16.123  14.380  15.168 -0.2558 -0.3751  0.2649
27231W        W43415  15.380   8.301   3.569 -0.2228  0.1661 -0.0686
27232W        W43416  17.778  10.725  13.728 -0.1947  0.0940 -0.5400
27233W        W43417  17.842  17.564  10.449 -0.0150 -0.2466 -0.4067
27234W        W43418  12.243  12.175  11.185 -0.1531  0.1144  0.2741
27235W        W43419   2.614  18.466   0.746 -0.2021  0.0313 -0.0283
27236W        W43420   6.868  12.631   0.680 -0.1314  0.0073  0.1397
27237W        W43421   5.348  11.504   0.268  0.0022  0.1318  0.2105
27238W        W43422   9.533  15.014   3.727  0.0901 -0.1031 -0.2437
27239W        W43423   9.934  16.615   1.585  0.0016  0.1360 -0.0569
27240W        W43424  13.704   8.893   0.215  0.5374 -0.1686  0.0482
27241W        W43425  10.482   9.399   1.383 -0.3410  0.0241 -0.1877
27242W        W43426  18.539   7.259   2.385  0.1823  0.0239  0.0420
27243W        W43427   0.654  14.012  14.750  0.0017  0.4062  0.0788
27244W        W43428  12.992   0.151   1.671  0.1474 -0.1313 -0.2362
27245W        W43429  11.252   7.872   3.570 -0.1436 -0.0306  0.0525
27246W        W43430  14.641  18.046   1.103 -0.0850 -0.1122  0.0349
27247W        W43431  16.146   5.244  15.145  0.2070 -0.1064  0.3507
27248W        W43432   2.615   1.038   2.995  0.2448 -0.0254  0.0502
27249W        W43433   4.369   5.097  12.175  0.0816  0.3188 -0.1457
27250W        W43434   0.048   8.654   2.962 -0.2306  0.0898 -0.1146
27251W        W43435   1.549  15.560  13.841  0.1886 -0.4586 -0.2107
27252W        W43436  15.958  13.282   0.081  0.1822 -0.0842  0.1718
27253W        W43437   6.628  17.164   4.983  0.0226 -0.2122  0.0137
27254W        W43438  12.208   1.930  10.635  0.2358 -0.0298 -0.0636
27255W        W43439   6.943  17.025  11.390 -0.3267 -0.1886 -0.1104
27256W        W43440  12.301  18.109   2.465 -0.0689 -0.0925 -0.0128
27257W        W43441  15.476  14.720  10.833  0.1342  0.0923 -0.0099
27258W        W43442   8.873  11.663   2.716 -0.3261 -0.1225  0.0057
27259W        W43443   1.977   2.415   4.525 -0.0410  0.0309 -0.0876
27260W        W43444   9.074   3.117   2.806  0.0029 -0.0284  0.1211
27261W        W43445  14.812   5.741  11.513 -0.0510  0.3711  0.2893
27262W        W43446  17.417  11.463   1.436  0.1645  0.1025 -0.0719
27263W        W43447  14.947  17.436   3.008 -0.0176 -0.1738 -0.2191
27264W        W43448   9.169   0.392   1.639  0.2674 -0.1044  0.0187
27265W        W43449   7.619   9.583  11.764 -0.0216  0.1753  0.1055
27266W        W43450   2.637  15.451   1.034  0.1199  0.1299  0.0531
27267W        W43451  17.976  13.157  13.031  0.0503  0.2526  0.2178
27268W        W43452   6.635   7.812  11.031 -0.1734 -0.1242 -0.2567
27269W        W43453   5.677   0.823  13.199  0.3968  0.1840 -0.3215
27270W        W43454   6.697   5.480  14.102 -0.1815  0.2503  0.0374
27271W        W43455   5.192  14.683   2.248  0.1675  0.0899 -0.0754
27272W        W43456   9.037  12.777   2.677 -0.0188  0.1307  0.1134
27273W        W43457  14.620  14.272  15.403  0.0168 -0.3354 -0.0762
27274W        W43458   4.611  14.003  10.927  0.4174 -0.0153  0.1351
27275W        W43459   8.860   8.158  14.575 -0.0039  0.1359  0.1481
27276W        W43460   2.651  11.756  13.022 -0.0698  0.0016  0.1768
27277W        W43461  15.465  11.569   3.638 -0.0241 -0.1931 -0.3271
27278W        W43462   2.984   7.357   2.298  0.1530 -0.1060 -0.1519
27279W        W43463   5.167   8.948  13.931  0.0840  0.1323 -0.1023
27280W        W43464   5.528  16.387  11.092 -0.0699  0.0552  0.1027
27281W        W43465  15.492   8.969   0.020  0.0109  0.0670  0.0614
27282W        W43466   2.605   5.914  11.945  0.0559  0.1431  0.0788
27283W        W43467   4.517   8.672  10.797 -0.0254  0.2573  0.0749
27284W        W43468  15.013  13.346   3.264 -0.0452 -0.1640  0.3583
27285W        W43469   2.181   1.667   1.208  0.1313  0.0289  0.1778
27286W        W43470   8.514  10.585   1.298  0.0262  0.0140 -0.0592
27287W        W43471   1.346   0.369   0.157  0.1568 -0.0614 -0.0385
27288W        W43472   2.966   2.892  14.539 -0.2381  0.0899 -0.1535
27289W        W43473   5.873   5.425   2.911 -0.3676 -0.0472 -0.0229
27290W        W43474  11.976   9.325  11.572 -0.1815  0.0053  0.2192
27291W        W43475  16.537  10.806  11.845 -0.2537  0.3153 -0.1110
27292W        W43476  12.884   4.549  11.123  0.1200  0.1623  0.2442
27293W        W43477   0.794  13.285   4.784 -0.0601 -0.1553 -0.5171
27294W        W43478  10.519   7.578   0.879  0.2877 -0.2138 -0.0892
27295W        W43479  18.583   6.898  11.767 -0.3169  0.1465  0.0192
27296W        W43480  13.096   0.037  11.536  0.4400 -0.0476 -0.0247
27297W        W43481  18.696   5.109   2.400  0.2414  0.2880  0.0138
27298W        W43482  13.560   5.323  14.410  0.2842 -0.1929  0.0421
27299W        W43483   3.276   9.471   1.943 -0.4418 -0.1390  0.2578
27300W        W43484   4.322   5.542   3.476  0.0128 -0.0801  0.4202
27301W        W43485  10.927  17.921   1.584 -0.1986  0.1717 -0.2033
27302W        W43486  17.853  10.176  14.408 -0.1310  0.1987  0.3387
27303W        W43487   0.758  10.923   4.288 -0.0447  0.0526  0.0022
27304W        W43488   9.961  16.518  14.205  0.2883  0.1856 -0.1669
27305W        W43489  17.710   0.850  14.093 -0.0440 -0.1315 -0.0358
27306W        W43490   3.334  14.401   2.034 -0.0570  0.0795 -0.0186
27307W        W43491  10.288  13.140   4.091  0.1739  0.0845 -0.1812
27308W        W43492  11.786   1.146   3.205 -0.1185  0.3610  0.0710
27309W        W43493   2.546  14.347   4.525  0.0587 -0.0482 -0.2070
27310W        W43494   5.405   6.203  12.036  0.1923 -0.0065  0.0266
27311W        W43495   6.548   1.750  13.675  0.0158 -0.2782  0.0106
27312W        W43496   6.807   8.838  14.259 -0.0498 -0.0881  0.0688
27313W        W43497   7.754  17.874  14.115  0.1351 -0.0803 -0.0575
27314W        W43498  12.371  11.908   4.263 -0.1160  0.0048 -0.0397
27315W        W43499   9.225  17.766   1.094 -0.0929 -0.2745  0.0960
27316W        W43500   6.493   7.978  13.751 -0.2374 -0.1516 -0.4012
27317W        W43501   7.879   8.037  14.206  0.1771 -0.1310 -0.1283
27318W        W43502   7.055  12.184   0.064 -0.2039 -0.0530 -0.1860
27319W        W43503   1.722   3.137  11.766 -0.1659  0.0353  0.0690
27320W        W43504   7.606   7.586  12.659  0.0493  0.4507  0.1150
27321W        W43505  12.007   4.384   3.235  0.0282 -0.0570  0.0464
27322W        W43506   5.475   4.786   3.928 -0.1310 -0.0694  0.2726
27323W        W43507   1.246  17.436  11.628 -0.2678  0.1087  0.3392
27324W        W43508   6.837  12.321   1.488  0.1688  0.0510 -0.1656
27325W        W43509   9.863  11.769   5.321  0.0500 -0.0585 -0.2129
27326W        W43510  14.301  12.839  15.247 -0.0032  0.0661  0.1185
27327W        W43511   2.250   3.181  13.791  0.1415 -0.1025 -0.0054
27328W        W43512  18.785   5.445  13.808 -0.3518  0.0054 -0.1128
27329W        W43513   0.014   1.084  13.448  0.1991  0.3986  0.1233
27330W        W43514  16.391   9.071   9.783  0.1976  0.4986  0.2383
27331W        W43515  14.004  15.070   2.858 -0.0983 -0.1613  0.0419
27332W        W43516   8.130  17.291   5.491 -0.0569 -0.1988 -0.2686
27333W        W43517  13.785   2.715  11.002  0.0126  0.0044 -0.0269
27334W        W43518  12.793   0.188   2.585  0.1458  0.0390 -0.0896
27335W        W43519  11.548  11.664  13.609 -0.2576 -0.1931 -0.1194
27336W        W43520   7.080   1.813   2.141  0.2357 -0.3473 -0.3366
27337W        W43521  16.178  10.881  14.141  0.0373  0.0119  0.0523
27338W        W43522   2.947   7.924  12.020 -0.2678 -0.1310  0.3771
27339W        W43523  16.921   3.127   0.866 -0.0548 -0.1922 -0.1139
27340W        W43524  15.231   1.826   5.330  0.2334  0.1502 -0.0333
27341W        W43525   7.473   4.425  13.815 -0.1797 -0.3082  0.0332
27342W        W43526   6.664   4.991   2.676 -0.1793  0.0606  0.0878
27343W        W43527  16.902  11.346  15.532  0.2405  0.0843 -0.0291
27344W        W43528   3.458  14.597   0.450  0.1782  0.1112 -0.2657
27345W        W43529  18.558  14.010   4.071 -0.0294 -0.4230 -0.0052
27346W        W43530  11.210   8.622  12.405 -0.0333  0.3971 -0.3910
27347W        W43531   4.249  11.729   1.456 -0.0000  0.1746 -0.0404
27348W        W43532   6.283  12.886  11.642 -0.1019 -0.0375  0.0264
27349W        W43533  16.487   1.500   2.954  0.0576  0.2179 -0.1718
27350W        W43534   2.120   5.775   2.123 -0.1248  0.0795 -0.2938
27351W        W43535  18.311   1.479  14.132  0.1382  0.0366 -0.0178
27352W        W43536  15.857   0.065  13.647  0.0378 -0.1073 -0.1176
27353W        W43537   7.526   1.598   3.893  0.3409 -0.1750 -0.0651
27354W        W43538   8.314   0.158   3.317  0.0761  0.0568 -0.2788
27355W        W43539  16.284  18.782   1.753 -0.0830 -0.1613  0.1455
27356W        W43540   9.650  15.937   3.784  0.1058 -0.3646 -0.2677
27357W        W43541  12.189  14.772   3.683  0.0891  0.1610  0.2718
27358W        W43542   2.968  17.463  11.955 -0.1670  0.0890 -0.4888
27359W        W43543   0.186  14.149   5.236 -0.1599 -0.1742 -0.1497
27360W        W43544   6.082   1.134  11.979  0.2499  0.1889  0.0849
27361W        W43545  14.205   3.056  11.476  0.0598 -0.0424  0.1604
27362W        W43546   0.906  16.410   3.737  0.0297  0.2683 -0.2311
27363W        W43547  14.025  16.279   0.734  0.1048  0.0745  0.3080
27364W        W43548  13.614  12.125   1.816 -0.2804 -0.2872 -0.0556
27365W        W43549   6.093  16.477   1.586 -0.3139 -0.4118  0.0073
27366W        W43550   5.690   0.953   1.297  0.2869  0.0561  0.1488
27367W        W43551  16.505  11.067   1.571  0.1566  0.2635 -0.1128
27368W        W43552   3.682  12.336  14.581  0.1251  0.1914 -0.0937
27369W        W43553   1.330   8.576  11.135  0.1836 -0.2466 -0.0249
27370W        W43554  12.833  18.547   3.280  0.1411  0.2220 -0.0293
27371W        W43555  13.744   3.569  14.525 -0.0547  0.2667  0.0086
27372W        W43556   7.478   7.391  13.611 -0.1167  0.4781  0.0322
27373W        W43557   8.639   8.867   4.647  0.2455  0.1084 -0.0922
27374W        W43558  15.374   6.086  14.384  0.1369  0.3545 -0.0809
27375W        W43559  14.603   6.289   3.046  0.0935 -0.4207 -0.0127
27376W        W43560   1.827   2.308  13.684  0.2210  0.1946 -0.4010
27377W        W43561   8.965  14.301   1.161 -0.3547 -0.1047  0.2391
27378W        W43562   7.979   9.103   1.208 -0.2718  0.3291  0.0149
27379W        W43563  11.886  13.538  14.565  0.0303  0.1380 -0.0817
27380W        W43564  12.712  18.408   2.696  0.0710 -0.0795 -0.1018
27381W        W43565   2.896   3.043   2.516  0.1939 -0.3426  0.0241
27382W        W43566   3.089   5.941   1.883  0.1793 -0.1179 -0.1323
27383W        W43567  11.971  15.535   2.295 -0.1082  0.3880 -0.1347
27384W        W43568   8.528   7.655  14.735 -0.0307 -0.1197 -0.0537
27385W        W43569  16.458  10.561  11.430  0.0350  0.3157 -0.1568
27386W        W43570   6.795   8.233  11.399 -0.3134 -0.1411  0.2371
27387W        W43571   9.368   9.682  13.370 -0.1286  0.0504  0.1334
27388W        W43572  13.363  18.649  15.220 -0.1644  0.3052  0.3385
27389W        W43573  12.538  10.622   1.440 -0.2255  0.2089 -0.2123
27390W        W43574  15.279   4.348  13.120 -0.0892 -0.3379 -0.0079
27391W        W43575  13.612   1.224   0.829  0.2430 -0.0960 -0.0345
27392W        W43576  10.727  10.372  12.473 -0.3527 -0.2295 -0.2145
27393W        W43577   8.357  10.513   4.454 -0.0221  0.3105 -0.2949
27394W        W43578   5.336  10.438  13.765 -0.1506  0.2214  0.2786
27395W        W43579   4.583   1.224  14.603  0.2622  0.1935  0.1048
27396W        W43580   3.966   6.388   5.151  0.1060 -0.2057  0.1752
27397W        W43581   6.452   0.131   3.040  0.0279  0.2728 -0.1816
27398W        W43582   2.459   3.954  14.996  0.1196  0.2060 -0.0531
27399W        W43583   3.256  11.639  12.460  0.0063 -0.0514 -0.1087
27400W        W43584   9.458   2.567   3.846 -0.0360 -0.0744 -0.1755
27401W        W43585   1.734   5.342   1.350 -0.2115 -0.2405  0.0429
27402W        W43586  13.851   2.872   9.742  0.0852 -0.1549  0.1652
27403W        W43587  13.092   9.926  12.933  0.1263 -0.0801 -0.3019
27404W        W43588   8.622  14.851   4.598 -0.1649 -0.3468  0.0275
27405W        W43589  13.614   7.735   5.607  0.0109  0.2798 -0.0802
27406W        W43590   0.887   0.917   0.532 -0.1095  0.0501  0.0872
27407W        W43591  17.477   4.983   4.123  0.3156  0.0740  0.3143
27408W        W43592   3.745  15.039   4.733  0.0063  0.1907 -0.1585
27409W        W43593   4.987  14.517   0.493  0.1890  0.0446 -0.0164
27410W        W43594  17.850  13.543   1.304 -0.3211  0.2594  0.3877
27411W        W43595   8.320   8.149  15.435 -0.1589  0.1395  0.1724
27412W        W43596   8.694   5.275   1.370 -0.0295 -0.0408 -0.1145
27413W        W43597   8.905  11.087   4.087 -0.0970 -0.2268  0.2248
27414W        W43598  11.849   6.812   0.784  0.0920  0.1349  0.2020
27415W        W43599  11.375   8.257   2.910  0.1542 -0.1730 -0.1058
27416W        W43600   6.037  12.365  13.999  0.0423  0.2089 -0.1204
27417W        W43601   0.342   1.191  15.268  0.0214  0.3101 -0.2956
27418W        W43602   3.423   7.959  12.185 -0.3949 -0.0554 -0.0849
27419W        W43603   0.884   6.392   1.726  0.0604  0.0459 -0.0077
27420W        W43604   4.239   9.988   2.966  0.2363 -0.1923 -0.0976
27421W        W43605  14.237  10.504   1.191 -0.0184 -0.2742  0.0263
27422W        W43606  16.972  10.204   3.996  0.1238  0.4439  0.3391
27423W        W43607  16.341  18.508  11.284  0.0745  0.0608 -0.0555
27424W        W43608   3.523  10.562   2.112  0.1322 -0.1315 -0.1562
27425W        W43609  14.902  16.164   5.065  0.0281  0.0705  0.0066
27426W        W43610  13.747   3.864  11.970 -0.1963  0.0060  0.3110
27427W        W43611   8.333   3.754   1.621 -0.0240  0.1682  0.1227
27428W        W43612   9.596  14.486   9.550  0.2307 -0.0082  0.0627
27429W        W43613   9.889   6.862  11.844  0.2996  0.0830 -0.3085
27430W        W43614  13.743   1.929   0.683  0.3018 -0.0210  0.4849
27431W        W43615  17.018   1.983  12.828  0.2402 -0.0413  0.0226
27432W        W43616   3.905   6.666  14.194  0.4224  0.3044 -0.1166
27433W        W43617   6.183   0.191   2.569 -0.3220  0.0482  0.2677
27434W        W43618  17.461  16.705  10.199  0.0235 -0.0851  0.0657
27435W        W43619   2.521  17.183  11.772  0.0203 -0.0792  0.3505
27436W        W43620  11.803   2.278   3.891 -0.1289 -0.1687  0.1242
27437W        W43621   0.363   0.722  14.891 -0.0427 -0.1916  0.2642
27438W        W43622  11.725   8.784   9.843 -0.2480 -0.0191  0.0877
27439W        W43623  16.066   3.003  15.276 -0.0775 -0.4496 -0.0460
27440W        W43624   5.649   6.207   0.809  0.4979 -0.1890  0.0271
27441W        W43625  16.392   0.865  10.664  0.0729  0.1377 -0.3699
27442W        W43626   4.898  16.626  14.533  0.0414 -0.0026 -0.0099
27443W        W43627   9.876  13.582  10.936  0.1944  0.2134 -0.3069
27444W        W43628   6.804  13.915  10.597  0.2531  0.3048 -0.1279
27445W        W43629  10.867   2.180  11.120 -0.1687  0.1830 -0.0860
27446W        W43630   4.556   7.982  13.518 -0.1500  0.1186 -0.0853
27447W        W43631  12.173  11.341  14.972  0.0398 -0.4776 -0.0636
27448W        W43632   9.991  13.111  14.742 -0.1503 -0.2330  0.1455
27449W        W43633   4.872   4.635   0.650  0.2060  0.1007 -0.2317
27450W        W43634   4.708   5.055   1.446  0.2757  0.1262 -0.1677
27451W        W43635  14.079   8.815   4.634  0.0375 -0.1107 -0.0831
27452W        W43636   6.649  11.422   1.725 -0.3046  0.1736 -0.1440
27453W        W43637  16.314   5.983   0.391 -0.3193  0.0448  0.0900
27454W        W43638   6.751  10.809   4.148 -0.3235 -0.1045  0.0797
27455W        W43639  12.251  14.489  14.034 -0.4598 -0.3057  0.0301
27456W        W43640   2.690  17.426   4.394  0.1381  0.2711  0.1844
27457W        W43641   6.406   4.879   1.919  0.0274  0.0684  0.5127
27458W        W43642   4.108   1.066   3.982 -0.0856 -0.0914 -0.0961
27459W        W43643   5.699   3.035   4.530  0.2591 -0.1905 -0.0454
27460W        W43644  13.345  17.877  11.668  0.0632 -0.3868  0.0557
27461W        W43645  10.656  11.773   4.404 -0.1161 -0.1315 -0.1622
27462W        W43646  16.527  14.790   1.896  0.1046  0.0672 -0.3365
27463W        W43647   8.293   3.080  12.021  0.0102 -0.0307  0.1016
27464W        W43648  13.561   9.005  11.574  0.1525 -0.2011 -0.3164
27465W        W43649   5.103  13.474   3.170 -0.2583  0.1010 -0.0650
27466W        W43650  13.290  15.852  11.308 -0.1123  0.1352  0.0584
27467W        W43651  10.660   0.408   4.776 -0.0194 -0.0391 -0.1082
27468W        W43652   8.146   4.292   4.063  0.0290 -0.0992  0.0185
27469W        W43653  16.005  16.795   1.331 -0.0420 -0.3095 -0.0290
27470W        W43654  10.825   4.955   5.086  0.1309  0.0355 -0.0299
27471W        W43655   4.948  15.618  13.824 -0.3292 -0.0606  0.1482
27472W        W43656  18.726   9.513  14.675  0.1963  0.1915 -0.3021
27473W        W43657  15.530  16.730  13.289  0.3478  0.2301  0.0286
27474W        W43658  11.609   8.089  10.975  0.1024 -0.1768  0.1412
27475W        W43659   8.484   8.307  12.962  0.1042  0.0865  0.3940
27476W        W43660   1.157   3.055  11.247 -0.2624  0.0326 -0.0800
27477W        W43661  15.857   6.882   3.737  0.2556 -0.1560 -0.1851
27478W        W43662  15.140  12.074   5.137  0.2292  0.1958  0.1355
27479W        W43663  12.490  18.519  14.695  0.0936 -0.0271  0.3348
27480W        W43664  16.583  12.760   1.764  0.0423 -0.2239  0.0085
27481W        W43665   4.111  16.319  14.182  0.1813  0.1850  0.0941
27482W        W43666  12.397  13.133   3.570  0.2700 -0.1826  0.0367
27483W        W43667   3.454   7.325  11.316  0.3013 -0.1099  0.0875
27484W        W43668   0.362  12.767  11.889  0.0012  0.0482  0.1031
27485W        W43669   6.561  13.565   3.310  0.1141 -0.2299 -0.1221
27486W        W43670   4.670  10.670   0.980 -0.0950  0.5639  0.1143
27487W        W43671  15.804   1.669  12.783 -0.1438  0.0862 -0.0885
27488W        W43672  18.043  12.038   5.288 -0.1456 -0.2097 -0.4606
27489W        W43673   2.377  16.846  12.182 -0.2948  0.0398 -0.1930
27490W        W43674  10.593   9.273  10.988 -0.0619 -0.0753 -0.0247
27491W        W43675  12.776   8.480   2.933  0.0540 -0.1807 -0.1070
27492W        W43676  14.754  15.965  12.435  0.2664 -0.2042 -0.0913
27493W        W43677  18.427   8.846   3.662 -0.1078  0.1765 -0.0825
27494W        W43678  16.627  10.072   0.567  0.1009  0.0597 -0.1577
27495W        W43679  13.008   1.618  12.236 -0.0366 -0.1391  0.0046
27496W        W43680  13.580   7.706   2.125  0.1210  0.1113 -0.1312
27497W        W43681   5.256   8.112   4.977 -0.1325 -0.3138 -0.0084
27498W        W43682  16.240   6.051  14.777 -0.4091 -0.2217  0.0837
27499W        W43683   4.518   3.127  15.454 -0.4560 -0.2838  0.2536
27500W        W43684  13.026   3.802   0.174  0.2520  0.2443 -0.3457
27501W        W43685   4.434   8.982  14.390 -0.2746 -0.1404  0.0316
27502W        W43686  15.458   8.978  15.044  0.0410  0.0231  0.0721
27503W        W43687   3.677   4.535  12.135 -0.0944 -0.0973 -0.1108
27504W        W43688  18.562  17.300  14.116 -0.0904 -0.2427 -0.2553
27505W        W43689   2.842   5.376   3.021  0.0697  0.1495 -0.1221
27506W        W43690  11.439  18.535  12.029 -0.1806  0.1719 -0.0463
27507W        W43691  12.210   9.748   0.958  0.0889 -0.0584  0.0773
27508W        W43692   9.738  14.830  10.630  0.0332  0.2035 -0.0470
27509W        W43693   3.811   2.154   4.893 -0.0448  0.1835  0.2674
27510W        W43694   7.223  16.077  14.564  0.1436  0.2554 -0.1225
27511W        W43695  13.709  14.981  13.188  0.2566  0.2802  0.0513
27512W        W43696   8.269  16.509   5.070 -0.1991  0.1818  0.0698
27513W        W43697   1.577   6.326  13.648  0.3250 -0.2477 -0.0151
27514W        W43698   3.312   6.174  14.739  0.1915 -0.1769  0.0886
27515W        W43699   0.706  12.307  11.149  0.2121 -0.4049 -0.1393
27516W        W43700  14.382   6.367   5.073  0.2815  0.5150 -0.2131
27517W        W43701  11.428   0.488   4.284  0.0804  0.1809  0.3103
27518W        W43702  17.300  10.357   3.626  0.2937 -0.0889 -0.3314
27519W        W43703   3.826  17.868   2.813 -0.2038 -0.0141 -0.0735
27520W        W43704   0.584   4.682  15.450 -0.1846  0.3671  0.0961
27521W        W43705  15.948  10.985  11.969  0.0053 -0.1362  0.0382
27522W        W43706   8.626   5.518   1.889  0.0534 -0.1920  0.1296
27523W        W43707   6.268  11.489  10.677  0.1679  0.1903  0.0696
27524W        W43708   3.544   8.359  12.994 -0.2617  0.2914  0.2512
27525W        W43709   2.409   8.499  10.980 -0.1237 -0.1347  0.1200
27526W        W43710  18.625   3.563   0.501 -0.1779  0.5413 -0.2432
27527W        W43711   0.984  15.670  12.577  0.0480 -0.0688 -0.1667
27528W        W43712  10.719  10.755   3.974 -0.3542 -0.1003  0.0229
27529W        W43713   7.090   7.090   3.249  0.4468 -0.2132 -0.0126
27530W        W43714  18.460  12.827   4.269  0.0287  0.1762  0.0503
27531W        W43715  11.689   8.088  14.216 -0.1901 -0.1590  0.1556
27532W        W43716   0.703   7.444  12.598 -0.2757  0.0697 -0.3256
27533W        W43717   9.728  18.634  15.210  0.6171 -0.0274 -0.0141
27534W        W43718   8.637  12.582   0.243  0.0667  0.3114 -0.1912
27535W        W43719   5.783   7.175   1.462  0.2108 -0.0588  0.1143
27536W        W43720   4.591   7.163   4.388 -0.1370 -0.3282 -0.0801
27537W        W43721   5.680  11.580  13.757 -0.0618 -0.1088 -0.1498
27538W        W43722   2.330  13.612  11.514  0.2480  0.0405  0.0371
27539W        W43723  16.425   0.499   4.234  0.2309  0.0483 -0.1399
27540W        W43724  15.650  18.031   2.659  0.0988 -0.0779  0.0403
27541W        W43725  13.726  14.343   5.396  0.1363 -0.0464 -0.0024
27542W        W43726  17.727   5.361   3.034 -0.2838  0.3075 -0.0649
27543W        W43727   5.717  12.596   4.824  0.0312 -0.1016 -0.1318
27544W        W43728  12.065   5.139  11.875  0.0792  0.0325  0.1425
27545W        W43729  11.234   5.778   4.762  0.0998  0.1404 -0.4463
27546W        W43730   6.229  15.965   5.473 -0.3075  0.4848 -0.2286
27547W        W43731  15.735   9.039   2.512  0.2773  0.0554  0.0289
27548W        W43732  13.731  18.822   0.696  0.0287  0.1389 -0.4977
27549W        W43733  10.007  16.200   3.608 -0.2220  0.1281  0.0629
27550W        W43734   6.276   6.686  11.088 -0.1532  0.2264  0.1342
27551W        W43735  18.489   6.925   1.608 -0.1822 -0.0772 -0.1257
27552W        W43736   0.396   5.256   0.692 -0.3153 -0.1443  0.3596
27553W        W43737  13.303   4.762   1.086  0.1801  0.0825 -0.1191
27554W        W43738   7.968   6.744   1.160  0.2916  0.5037  0.0065
27555W        W43739  18.453   7.976  11.872 -0.0722  0.0575 -0.1148
27556W        W43740  16.663   6.602   4.292 -0.1452 -0.1310 -0.0341
27557W        W43741   1.907  14.221  15.388  0.1513  0.2577 -0.1134
27558W        W43742   0.277   3.896  13.063  0.1514  0.0205 -0.0820
27559W        W43743  13.785   2.983   2.741  0.1572 -0.1213 -0.1325
27560W        W43744   3.499   0.778   4.656 -0.2738 -0.2543  0.1257
27561W        W43745   1.054  15.301   4.401 -0.2117 -0.4049 -0.0828
27562W        W43746   6.329  16.112  12.839  0.2490  0.0743 -0.2180
27563W        W43747  12.283   9.788  15.368  0.2526  0.1714 -0.1725
27564W        W43748  13.606  13.591   2.443 -0.0323 -0.0347 -0.1632
27565W        W43749  16.772   9.089   1.767  0.0873 -0.1594 -0.0768
27566W        W43750   9.946  13.295   5.062  0.1835 -0.3890 -0.1522
27567W        W43751   1.855  11.641  10.778  0.0139  0.1179 -0.0293
27568W        W43752   0.262  14.792  11.285  0.0189  0.3331  0.2539
27569W        W43753   7.181  12.836  12.902 -0.2983 -0.4032  0.0988
27570W        W43754   8.619   2.971   5.494 -0.1276  0.1681 -0.2345
27571W        W43755   9.275   3.377   5.140 -0.0800 -0.1567  0.1713
27572W        W43756  11.621  17.748   0.724  0.0522  0.1098  0.0308
27573W        W43757   8.970  18.637   1.098 -0.0756  0.0852 -0.3546
27574W        W43758   8.888   7.540   0.563 -0.0085  0.0007  0.2179
27575W        W43759  10.698   6.952   5.382 -0.2744  0.0441 -0.2622
27576W        W43760   2.474   0.788   0.114 -0.0386  0.0974  0.0235
27577W        W43761  12.394  11.910  10.382  0.0084 -0.0461 -0.1450
27578W        W43762   6.455  15.979   4.267  0.0454  0.1207 -0.3401
27579W        W43763  18.088  18.170   0.493  0.1276 -0.0462  0.0243
27580W        W43764  18.317   6.974   4.635 -0.0864  0.0522  0.0388
27581W        W43765   3.567  18.797  11.706  0.0662  0.1654 -0.0452
27582W        W43766  10.010  12.466  14.158 -0.4046 -0.2291 -0.3119
27583W        W43767   1.875  11.248  13.970 -0.0967 -0.0188 -0.4731
27584W        W43768  15.074  16.014   2.906 -0.1043 -0.2182 -0.0054
27585W        W43769  15.886   9.101   0.345  0.0582 -0.2705 -0.1177
27586W        W43770   1.724   3.819   0.641 -0.0816  0.1181  0.0165
27587W        W43771  10.414  17.789   2.454  0.0949 -0.0533 -0.2078
27588W        W43772  16.039   5.202  10.912  0.0523  0.0806 -0.1908
27589W        W43773  17.967  12.154   3.695  0.0771 -0.0365 -0.0426
27590W        W43774   4.333  12.218   1.778  0.0293 -0.4341  0.0568
27591W        W43775  10.875  14.332   5.234 -0.0498  0.0918 -0.4321
27592W        W43776   4.794   6.063   2.254  0.2819  0.0690  0.2172
27593W        W43777   4.916   8.100   4.191  0.0899 -0.1067 -0.2054
27594W        W43778   7.756  15.928  12.682 -0.0426 -0.0630 -0.0847
27595W        W43779  17.577  14.499  12.139 -0.0164  0.3622 -0.1895
27596W        W43780   6.169  17.146  10.941 -0.1820  0.5190  0.0054
27597W        W43781  12.626   2.225  11.363  0.3700  0.1493  0.1133
27598W        W43782  11.776   6.872   5.804  0.1576 -0.0321  0.2878
27599W        W43783   6.675   5.019   4.941  0.1280 -0.3779 -0.2098
27600W        W43784   0.495  11.044  11.110 -0.2152 -0.0429 -0.1906
27601W        W43785   6.129   0.382   2.006  0.0327  0.0130  0.2168
27602W        W43786   6.795  12.587  15.380 -0.2604 -0.1356 -0.0656
27603W        W43787  12.653  15.454   4.919  0.1357  0.0824 -0.0410
27604W        W43788  11.740  11.438   4.980  0.1102  0.2594 -0.1459
27605W        W43789  17.006   0.085  13.132 -0.0740 -0.0881  0.3823
27606W        W43790   2.572   4.326  13.636  0.0218 -0.1453 -0.0053
27607W        W43791  18.436  14.071  13.116 -0.1378  0.1743 -0.0875
27608W        W43792  17.321   2.482  14.346 -0.2853  0.0740  0.2530
27609W        W43793  10.746   6.554   3.230 -0.1334 -0.1526 -0.1765
27610W        W43794   1.885   8.747  10.646  0.0085 -0.0517 -0.3195
27611W        W43795  17.717   2.468   0.437  0.0736 -0.0909  0.4540
27612W        W43796  13.212   4.256  14.271 -0.0146  0.3160  0.1258
27613W        W43797   8.920   6.233  12.414 -0.0459  0.2539 -0.2177
27614W        W43798   3.868   1.169  12.462 -0.0555 -0.1016  0.3492
27615W        W43799   8.474  12.576  14.286  0.1017  0.0053 -0.2278
27616W        W43800  17.831  10.435  12.305 -0.0696 -0.2756  0.0756
27617W        W43801   2.522  10.100  11.094 -0.0018 -0.3175  0.1441
27618W        W43802   0.890   1.850   1.050  0.0675 -0.0878  0.2959
27619W        W43803   8.095  18.528   1.172 -0.0632 -0.1822 -0.3770
27620W        W43804  12.307   2.306   0.987  0.4037  0.0164  0.0011
27621W        W43805   6.257   8.403  12.628 -0.2349  0.0927 -0.1150
27622W        W43806  11.158   2.199   2.949 -0.1959  0.1848 -0.0124
27623W        W43807   9.126   1.591   1.114  0.3079 -0.0668  0.0321
27624W        W43808  12.544   0.380  13.243 -0.1791 -0.1433 -0.1435
27625W        W43809   5.816   7.346  13.692 -0.2192 -0.0728 -0.1236
27626W        W43810  10.315  12.774  15.251 -0.0774 -0.0281  0.1531
27627W        W43811   2.949   5.266  12.953 -0.3518 -0.0451 -0.0659
27628W        W43812   0.257  11.480   0.104 -0.0455  0.3042  0.0691
27629W        W43813   6.918   6.962   0.428 -0.0392 -0.0833 -0.1349
27630W        W43814   3.583   0.795  12.286  0.3410  0.0707  0.6595
27631W        W43815  16.225   6.042   3.855 -0.0567  0.2813  0.0130
27632W        W43816   9.663   3.423  12.137  0.1796 -0.0209  0.3179
27633W        W43817   2.899  12.719  11.146 -0.0886  0.2552 -0.1241
27634W        W43818   4.198   0.031  12.524  0.2894 -0.1151  0.0215
27635W        W43819  12.099  16.061   1.087  0.1673  0.0696  0.1929
27636W        W43820  14.938  14.323  12.980 -0.2225  0.2802 -0.1030
27637W        W43821   6.765  18.344  15.046  0.0674  0.1137  0.1246
27638W        W43822   5.185   8.592   4.709  0.3010 -0.0859  0.0238
27639W        W43823   5.570  14.642   1.716  0.0038 -0.0867  0.3814
27640W        W43824   9.615  10.446   2.657  0.0558 -0.1750 -0.1330
27641W        W43825   9.591   8.143  10.655 -0.1479 -0.0753  0.0695
27642W        W43826   1.580   7.266  13.374  0.2770 -0.2798 -0.1563
27643W        W43827  13.513   0.256  13.179  0.0121 -0.0292  0.1081
27644W        W43828   3.795  10.860   4.275 -0.1311 -0.0079  0.0226
27645W        W43829   6.777  13.238   3.700  0.4084  0.2037 -0.1216
27646W        W43830  11.928   7.682   0.485  0.2765 -0.0617  0.0749
27647W        W43831   3.278  13.637   4.723  0.3426 -0.1927 -0.0224
27648W        W43832   6.735  13.912  14.501 -0.0528  0.0084  0.1341
27649W        W43833   8.407   9.932  11.658  0.2662  0.0879 -0.0690
27650W        W43834  11.204   4.040  13.185 -0.2645 -0.3432 -0.0003
27651W        W43835   6.775   4.282   1.922  0.2438  0.1578  0.0247
27652W        W43836  11.757  17.264  13.259 -0.0449 -0.0361 -0.0212
27653W        W43837   1.373   8.447   2.247  0.1254  0.0059  0.0769
27654W        W43838  10.931   5.820  11.075 -0.0412 -0.1854  0.2193
27655W        W43839   6.285  12.519   0.565  0.0735  0.0396  0.1160
27656W        W43840   3.755   3.547   2.665  0.2048  0.1357 -0.1389
27657W        W43841   0.795  18.147  10.796 -0.0860 -0.1783 -0.0577
27658W        W43842   0.246  12.939  13.637  0.4157 -0.2758  0.1534
27659W        W43843  18.346   7.228  15.339  0.1117  0.1527 -0.1948
27660W        W43844  17.301   3.962  12.112  0.0170  0.0345  0.0800
27661W        W43845  10.677   3.594   4.871  0.2711 -0.1221  0.1199
27662W        W43846   6.660  10.247  10.745 -0.3812  0.6037 -0.1652
27663W        W43847   4.449  17.969   2.282 -0.0882  0.5099 -0.0401
27664W        W43848   8.647  11.931   5.004  0.1435 -0.4462 -0.2593
27665W        W43849   0.178  17.499   1.410  0.2676  0.1100  0.0060
27666W        W43850  17.430   5.315   2.584  0.2572 -0.2166  0.0998
27667W        W43851  16.731   3.229  13.992  0.1637  0.2409  0.0694
27668W        W43852  14.179   9.387   1.038  0.3144  0.1450 -0.2674
27669W        W43853  10.442   7.228   6.340  0.1682  0.0975  0.1434
27670W        W43854   9.643   3.303  12.845 -0.0968  0.2695 -0.2082
27671W        W43855  14.746   5.377  11.099  0.0573 -0.1227 -0.0096
27672W        W43856  17.506  14.760   2.014  0.0975 -0.0496  0.0811
27673W        W43857  14.653  12.064   5.336 -0.2833 -0.1036 -0.1118
27674W        W43858   0.929   4.907  15.164  0.0209  0.0935 -0.1473
27675W        W43859  14.496   5.438   0.155 -0.1285 -0.0582 -0.0288
27676W        W43860   5.139   3.340  13.851  0.0549 -0.3076 -0.3498
27677W        W43861   9.856  17.555  14.173  0.0668 -0.0245  0.1532
27678W        W43862  16.174   4.136  12.057  0.1470 -0.1232  0.1650
27679W        W43863   0.752   3.385  11.528  0.1446 -0.3294  0.3846
27680W        W43864   5.233   3.380   1.693  0.0839  0.0777  0.4235
27681W        W43865  12.502   1.315   0.893 -0.3185 -0.1324 -0.0310
27682W        W43866   0.397  15.688   0.959 -0.1225  0.0451  0.0141
27683W        W43867   4.018   8.714   5.677 -0.1572  0.1277 -0.0466
27684W        W43868  17.580  10.779  14.944 -0.2506  0.2234 -0.1465
27685W        W43869   1.518   2.779   5.312 -0.1196  0.1133  0.2184
27686W        W43870  12.770  11.075  13.021  0.1777 -0.0918 -0.1544
27687W        W43871   4.674   0.700   2.893  0.1076 -0.2636 -0.0987
27688W        W43872   2.668  16.633  14.946  0.0679  0.0567 -0.2279
27689W        W43873   5.161   1.977   4.340 -0.2163 -0.3525 -0.4096
27690W        W43874   3.766   0.859   5.043 -0.0367  0.1140  0.1177
27691W        W43875   8.970   9.153   4.962  0.2046  0.0650 -0.1760
27692W        W43876  10.700   3.967   0.644 -0.0084 -0.3984  0.0029
27693W        W43877   8.177  18.397  12.449  0.0174  0.1194  0.0596
27694W        W43878   8.826  11.824  14.940  0.1285 -0.1296  0.2582
27695W        W43879   1.612   4.655   1.923  0.0039 -0.1183 -0.0846
27696W        W43880   7.093   1.684   1.420  0.2125  0.0597  0.2697
27697W        W43881  10.488   5.470  14.765 -0.1209 -0.1770 -0.0609
27698W        W43882   9.888  13.899   1.506 -0.2381  0.0368 -0.2371
27699W        W43883   9.134   3.307  11.192  0.0925  0.0998  0.1584
27700W        W43884  15.656   5.521   5.596  0.1509  0.1765  0.2788
27701W        W43885  17.791   7.277   1.046 -0.2201  0.3181  0.2191
27702W        W43886  16.453   6.153   4.271  0.4084  0.1197  0.2094
27703W        W43887   9.410   7.728  15.280  0.0912 -0.0898  0.0215
27704W        W43888  12.152  13.976  14.756  0.3220 -0.0079 -0.0785
27705W        W43889  16.961   5.472   2.922 -0.0101 -0.1014 -0.0546
27706W        W43890   8.701   3.092  12.395  0.2265  0.0825  0.0482
27707W        W43891   3.569   5.348  13.887  0.0272 -0.2553  0.0678
27708W        W43892  14.917   8.616   1.029 -0.2200 -0.1272 -0.1336
27709W        W43893   5.033  17.264   3.049  0.1580  0.1401 -0.1308
27710W        W43894   6.922  12.659  13.864  0.1431 -0.1338 -0.1035
27711W        W43895   0.617   4.791  12.268 -0.0465 -0.0213  0.2534
27712W        W43896  10.654  16.312  12.720 -0.2976  0.1169  0.2728
27713W        W43897   4.037   3.069   4.963 -0.2805 -0.0028  0.1160
27714W        W43898   4.406   9.563  14.845 -0.3942 -0.1101  0.2314
27715W        W43899  10.961   9.450   0.002  0.1578 -0.0755  0.2227
27716W        W43900   2.397  13.715  14.482  0.2562 -0.0790 -0.0384
27717W        W43901   3.733   5.908  12.301  0.0698  0.0548  0.1787
27718W        W43902  16.555   6.452  15.021 -0.1486 -0.2370  0.0315
27719W        W43903  17.779   3.372  13.959 -0.2769  0.0391 -0.0710
27720W        W43904   0.412  14.086   3.849  0.3476 -0.0631 -0.1190
27721W        W43905   8.712   3.171  10.810 -0.1677 -0.4755  0.1361
27722W        W43906   5.699  18.602  11.089  0.1648 -0.0496 -0.0531
27723W        W43907  12.511   6.627  12.240  0.3954 -0.0706 -0.1048
27724W        W43908  14.387   1.121   1.316  0.0618  0.3017 -0.1285
27725W        W43909  11.467  16.160   1.855 -0.3585  0.1832 -0.1349
27726W        W43910   0.037  16.433  15.200 -0.2701  0.1823  0.1044
27727W        W43911  16.216   1.975  11.582 -0.0085 -0.1331 -0.2666
27728W        W43912   4.619  13.513  11.823  0.0934 -0.0136  0.0999
27729W        W43913   6.553  17.913  10.384 -0.0553 -0.3932  0.0790
27730W        W43914  15.113   1.836   1.800  0.1743  0.3039  0.0657
27731W        W43915  11.808   7.291  12.594  0.1969  0.1921  0.1599
27732W        W43916  12.902  17.568   2.068  0.4037 -0.2588 -0.0868
27733W        W43917  14.354   4.064   4.607  0.3094 -0.1742 -0.1580
27734W        W43918  15.925   2.934   2.748 -0.0405  0.0387 -0.1576
27735W        W43919   3.810   7.590  10.916  0.0489  0.1117  0.0504
27736W        W43920  18.318  12.601  15.164 -0.1644  0.4440 -0.3159
27737W        W43921   3.339   9.624  14.814  0.2808 -0.0270 -0.1015
27738W        W43922  16.279   0.824   1.298 -0.0097 -0.1795  0.3449
27739W        W43923   7.465  16.004   0.736  0.5632  0.0171  0.1035
27740W        W43924  18.650   8.498  13.505  0.1478 -0.0124 -0.2563
27741W        W43925  12.759   6.086   1.830 -0.2430 -0.0212 -0.1575
27742W        W43926   5.435  12.044   0.327  0.0868 -0.0523 -0.1633
27743W        W43927   3.537   9.314  10.864  0.1892  0.0451  0.1384
27744W        W43928   9.961  15.131   3.388  0.1067 -0.1020 -0.0383
27745W        W43929   4.249  14.963   4.584 -0.1419 -0.0390 -0.1710
27746W        W43930   7.753  10.418  13.566 -0.0889 -0.0860  0.0062
27747W        W43931  10.111   9.684  11.435 -0.1375 -0.0707  0.0468
27748W        W43932   8.003   5.560  13.471  0.1235 -0.1420  0.0484
27749W        W43933  14.280   3.887  15.224  0.1969 -0.0435  0.4017
27750W        W43934  15.589  13.201  12.583  0.0912 -0.1174  0.0145
27751W        W43935   1.167   7.805  14.480 -0.0528 -0.1441  0.0926
27752W        W43936  13.416   4.587  13.362 -0.2000 -0.0553 -0.0814
27753W        W43937  11.679  15.105   4.816  0.2841  0.3865 -0.3309
27754W        W43938   9.127   5.090  14.875 -0.1396 -0.0069  0.1021
27755W        W43939  15.215   8.762  11.892 -0.2237  0.3043  0.2151
27756W        W43940  18.066   5.813   3.545 -0.0689 -0.0458  0.4613
27757W        W43941  10.355  18.280  10.808 -0.0283 -0.2585  0.4400
27758W        W43942   9.212   2.386   1.898 -0.2057  0.1146  0.0647
27759W        W43943   0.186  16.286   5.753 -0.0033 -0.1309 -0.2566
27760W        W43944   6.497  15.884  14.124  0.1555  0.1994  0.0212
27761W        W43945   3.852  10.004   9.519  0.4158  0.2156  0.1294
27762W        W43946   4.277   4.172   6.090 -0.0281 -0.2281 -0.0736
27763W        W43947  12.928   9.197  13.529  0.0634 -0.1604 -0.0442
27764W        W43948  11.474   0.573  15.341  0.0873 -0.0633  0.1267
27765W        W43949   2.379  10.120   4.279 -0.0168 -0.1245 -0.1608
27766W        W43950  16.643   7.219  11.971 -0.0775 -0.0906  0.0874
27767W        W43951   0.803   6.559  13.516 -0.0973 -0.0571 -0.0644
27768W        W43952  17.295   6.834   4.891  0.0764  0.0073  0.0718
27769W        W43953  12.499   4.177  13.106 -0.2073 -0.1039  0.0786
27770W        W43954  10.960   1.369  15.521  0.1120  0.2846  0.2087
27771W        W43955   0.612   6.131  12.939 -0.2281 -0.3931 -0.1707
27772W        W43956   0.283  13.699   5.337  0.1533 -0.1187 -0.1204
27773W        W43957  12.294  14.428  13.013  0.0914  0.1029 -0.0160
27774W        W43958  10.918   1.331  11.628  0.1067  0.1662  0.0971
27775W        W43959   8.218   2.587   2.323  0.1601 -0.3002 -0.0068
27776W        W43960   3.711  10.835  11.990  0.1345 -0.3500 -0.2689
27777W        W43961   3.868   1.995   5.349  0.1181 -0.1000  0.0826
27778W        W43962  18.106   9.726   1.339  0.4186 -0.0984  0.1880
27779W        W43963   1.271   8.705   3.257  0.0134  0.0122 -0.3903
27780W        W43964  18.169  10.163   0.450  0.0178  0.1301 -0.2964
27781W        W43965  12.919  11.447  12.692 -0.0725  0.0927 -0.3224
27782W        W43966   3.247  13.240  11.858 -0.2751  0.3635 -0.1179
27783W        W43967  17.601   6.520   4.568 -0.0678  0.0842  0.0898
27784W        W43968   3.221   5.044   3.515  0.2875  0.0073  0.2713
27785W        W43969  12.082  12.345   3.447 -0.0976  0.2588  0.0163
27786W        W43970   0.573  11.269   3.845 -0.1782  0.1041 -0.1301
27787W        W43971  11.377   2.399   0.963 -0.2593 -0.1888  0.1698
27788W        W43972   5.708  18.660   0.078 -0.0837 -0.0071  0.1855
27789W        W43973   5.592  12.542   0.206 -0.1618 -0.2862  0.2260
27790W        W43974   5.383  17.614   2.836 -0.1534  0.3250  0.3127
27791W        W43975   8.450   5.885  13.293 -0.0895 -0.0870  0.1602
27792W        W43976  14.492  10.314  12.140  0.0609  0.2645 -0.1256
27793W        W43977   0.607   8.800   5.186  0.1398  0.2780  0.4775
27794W        W43978   2.428  13.724  15.020  0.1061 -0.2978 -0.1732
27795W        W43979  15.600  14.012   0.704  0.0284 -0.0442 -0.0739
27796W        W43980   3.313  15.971   1.619  0.0938 -0.0311 -0.0735
27797W        W43981  13.919  15.233   0.038  0.0827 -0.1234 -0.1396
27798W        W43982  13.320  15.584   1.477  0.2404  0.1198 -0.1164
27799W        W43983  10.489  12.688  12.339  0.4358  0.4538 -0.2025
27800W        W43984   8.810   5.668  14.139 -0.1055  0.0306  0.0685
27801W        W43985   4.202   9.949  14.529 -0.1943  0.0425  0.0650
27802W        W43986   0.709   1.285  12.071 -0.0617 -0.2658  0.2118
27803W        W43987   6.896  15.474   2.616  0.0469 -0.0783 -0.5296
27804W        W43988   7.360   7.004   0.023 -0.0853  0.1037  0.2359
27805W        W43989   6.499  12.372  11.248  0.0644  0.0953 -0.0329
27806W        W43990  10.191   8.186  12.240 -0.2424  0.3255  0.0794
27807W        W43991  10.379  14.762  12.227  0.1845  0.0359 -0.3308
27808W        W43992   4.757  12.240   0.788 -0.0080 -0.0153 -0.0599
27809W        W43993  17.981   9.217  12.638  0.2105  0.1816  0.1466
27810W        W43994   0.645   3.421   1.166  0.1260  0.0583 -0.1894
27811W        W43995  10.045   0.036   3.518 -0.3217  0.3028  0.2601
27812W        W43996  15.776   1.885   2.583  0.1358  0.1551  0.1613
27813W        W43997  18.647  17.044  12.344 -0.1712 -0.4500 -0.0158
27814W        W43998   9.138   4.471  13.441 -0.0272  0.0458  0.1444
27815W        W43999   0.989  15.897   0.934  0.3951  0.1799  0.0018
27816W        W44000   2.523  15.109   0.629  0.0245  0.0700 -0.0986
27817W        W44001   1.639  14.670  15.351  0.2230  0.1149 -0.2368
27818W        W44002  18.653   9.195   0.091  0.0247  0.0811 -0.0873
27819W        W44003   8.405   4.619  12.124  0.2323 -0.0534 -0.2009
27820W        W44004   6.607   8.510   3.480 -0.0168 -0.1681  0.0570
27821W        W44005   9.577  15.501  10.762 -0.4322  0.3127  0.1186
27822W        W44006   6.681   7.385  12.348 -0.0562  0.0079  0.2337
27823W        W44007   4.604   0.181  14.649 -0.2243  0.1167 -0.1793
27824W        W44008   1.060   1.035   1.548 -0.1758  0.2862 -0.1737
27825W        W44009  10.689   4.264   4.291  0.1247  0.0980 -0.2626
27826W        W44010   1.293   8.761  14.535  0.1203  0.1362  0.1611
27827W        W44011   2.745  14.294  12.816  0.0839 -0.1924 -0.0258
27828W        W44012   2.694  16.273  12.178  0.2640  0.0223 -0.0638
27829W        W44013   1.072  15.002  11.977 -0.2509  0.6377 -0.0230
27830W        W44014  16.255  18.182  12.604  0.3721  0.1002  0.1614
27831W        W44015   7.586   7.832   0.280  0.1373  0.0448  0.2764
27832W        W44016  10.622  14.721  11.085 -0.2137 -0.0704 -0.0536
27833W        W44017  12.550  15.148   0.386  0.1997  0.1016 -0.0961
27834W        W44018   0.464   7.015  12.292  0.1853  0.1634  0.1128
27835W        W44019  17.970   7.057  11.023 -0.0045 -0.1813 -0.0595
27836W        W44020   8.393  17.114   1.980  0.2091  0.3505  0.0990
27837W        W44021  16.226   3.673   4.520 -0.2003  0.1445 -0.2086
27838W        W44022   9.683   5.226  12.427  0.3016 -0.0384  0.0298
27839W        W44023  16.577  14.077  13.408  0.1942  0.0807 -0.2339
27840W        W44024   8.930   1.541   2.981 -0.3763  0.0081 -0.0449
27841W        W44025  16.500  17.371  15.379 -0.0299 -0.1411  0.1560
27842W        W44026  12.341   7.125   4.031 -0.5102 -0.0794  0.0361
27843W        W44027   9.865  11.450   3.040 -0.1405  0.0161  0.0019
27844W        W44028  12.255   3.498   2.041 -0.2565 -0.1714 -0.3629
27845W        W44029   3.435   5.898   0.937 -0.1855 -0.1857 -0.0279
27846W        W44030  15.230   3.204   1.728  0.1109  0.2458  0.0938
27847W        W44031   8.507  12.604   2.821 -0.2029 -0.1613  0.1733
27848W        W44032   0.030   3.163  10.643 -0.1808  0.1919 -0.0645
27849W        W44033   3.614   9.760   4.731  0.0399 -0.2748 -0.1221
27850W        W44034   5.544   3.664   3.277 -0.1907 -0.2060 -0.0453
27851W        W44035  14.282   2.234   3.936  0.3451  0.0781 -0.4078
27852W        W44036   2.495  16.248  14.659  0.1932  0.2197  0.2616
27853W        W44037   4.525  12.089   1.288  0.2377 -0.0145  0.0486
27854W        W44038   9.857   9.192  11.361  0.4759  0.0825 -0.0068
27855W        W44039  13.032  16.240  14.348  0.0923 -0.2372 -0.1428
27856W        W44040  16.075  15.283  13.966 -0.1022 -0.0267 -0.1101
27857W        W44041   9.798  12.511   1.891  0.0043 -0.0205  0.0240
27858W        W44042   5.668  13.845  15.444 -0.0464 -0.0925 -0.0810
27859W        W44043  16.436  12.190  13.795  0.0807  0.0045 -0.1500
27860W        W44044   4.493   6.946   1.285  0.4576 -0.0082  0.2943
27861W        W44045  14.250   1.694   1.955  0.0708 -0.0964  0.1347
27862W        W44046   6.193   5.434  13.959 -0.3350 -0.2293  0.0134
27863W        W44047  12.341   5.228   1.803 -0.1642 -0.0807  0.1969
27864W        W44048   0.240  16.675  14.495 -0.1378  0.2521  0.1401
27865W        W44049   4.452  15.309   1.479 -0.0506 -0.0499 -0.0040
27866W        W44050  13.724  18.061   2.232  0.3102 -0.1059 -0.1839
27867W        W44051  16.423   1.342   1.365  0.1026 -0.1255  0.1455
27868W        W44052  13.699  10.610  14.719 -0.2492  0.1907 -0.2540
27869W        W44053  10.208   1.999   2.469 -0.0349  0.2929  0.0118
27870W        W44054  17.747  11.809   4.967 -0.1641 -0.2404 -0.1888
27871W        W44055   2.177  14.626  13.055 -0.1320 -0.0519  0.1102
27872W        W44056   5.128   0.667  13.787  0.0071  0.1477  0.0580
27873W        W44057   5.503   3.896   2.611 -0.2182  0.1997 -0.1065
27874W        W44058  15.936  13.772  15.437  0.3353 -0.1204  0.1060
27875W        W44059  17.507   4.475  10.422 -0.3121 -0.2612 -0.1346
27876W        W44060  13.114  17.449  15.316  0.0961  0.0644  0.1599
27877W        W44061  15.990  18.696   0.689  0.1975 -0.0770 -0.2270
27878W        W44062   4.836  15.026   0.515  0.1106 -0.0628 -0.0819
27879W        W44063   4.259  12.580  15.240  0.1593  0.0043  0.0829
27880W        W44064  16.760  14.902   0.540 -0.3959  0.0889 -0.1538
27881W        W44065  10.519  16.986  11.866  0.4547  0.1627 -0.0718
27882W        W44066  16.256   1.666  11.170 -0.1041  0.0740 -0.0198
27883W        W44067  16.930  10.515  13.221 -0.1891 -0.1488 -0.0424
27884W        W44068   2.671   1.710  10.953 -0.1450 -0.0697 -0.1126
27885W        W44069  12.289  17.915  14.983  0.0237  0.0797  0.3276
27886W        W44070   3.071   3.481  15.404  0.2439  0.0441 -0.0762
27887W        W44071   4.174   8.485   3.254  0.1858 -0.0045 -0.0488
27888W        W44072  10.275   0.550  14.652 -0.0815  0.1008  0.0696
27889W        W44073   2.465  10.454   2.845 -0.1491  0.3652 -0.3293
27890W        W44074   9.991   5.692   0.726 -0.2460  0.0464  0.0121
27891W        W44075   6.276  17.762   2.418  0.0750  0.3189  0.2551
27892W        W44076  11.122  11.267  13.658  0.2999  0.1942 -0.1796
27893W        W44077   9.819  13.428   4.592  0.0947 -0.0439  0.0762
27894W        W44078  15.852   1.264  11.095  0.0959 -0.0345 -0.1760
27895W        W44079  13.513   6.808  11.263 -0.0249 -0.1244  0.0020
27896W        W44080   1.061  13.496  14.117  0.3932 -0.1766  0.1669
27897W        W44081   6.805   7.213   3.652  0.4298 -0.0089 -0.0883
27898W        W44082  17.069  14.577   2.039 -0.1751  0.1578  0.1938
27899W        W44083   2.185   5.630   3.756  0.1345 -0.0052 -0.2117
27900W        W44084  18.446   2.652   0.638 -0.3385  0.1751 -0.1310
27901W        W44085  11.064  14.381  12.826 -0.0066 -0.1945  0.1129
27902W        W44086  13.589   2.336  13.424 -0.2282 -0.1400  0.0504
27903W        W44087  12.382  12.945   2.644 -0.0034  0.0754  0.2080
27904W        W44088  10.402  13.780   2.086 -0.0251  0.1992  0.1722
27905W        W44089  16.473   7.744  12.527 -0.2002  0.2590  0.1538
27906W        W44090  16.765  16.129  12.439 -0.3075  0.3982  0.1882
27907W        W44091   8.397  17.578  12.054 -0.1279 -0.2431  0.0847
27908W        W44092   3.136   0.154  13.671 -0.0001 -0.1894  0.0664
27909W        W44093  15.371  15.228   1.369  0.1630  0.0741 -0.2219
27910W        W44094  14.359  17.882  11.384 -0.1771 -0.1101 -0.2034
27911W        W44095   4.564  17.613  14.177 -0.1219 -0.1511 -0.4464
27912W        W44096   5.338  14.190   5.186  0.2818 -0.1781 -0.1895
27913W        W44097   2.609  16.783  10.265  0.0457 -0.1565 -0.3424
27914W        W44098  15.977  17.826  14.172 -0.2673  0.3182  0.0935
27915W        W44099  17.812  10.499   2.817 -0.4272  0.1101 -0.1031
27916W        W44100   2.882  11.739   4.698 -0.1261  0.4043 -0.0163
27917W        W44101   9.411   2.493  12.702  0.3172  0.0202  0.4004
27918W        W44102  13.899   6.011   4.461 -0.2607  0.0242 -0.2420
27919W        W44103  15.194  15.872  12.667 -0.5125 -0.1180  0.1905
27920W        W44104  10.838   0.938  13.172 -0.2529  0.3574 -0.0850
27921W        W44105   3.501   8.879   4.883  0.2022 -0.0611  0.2194
27922W        W44106   6.584   3.764  11.430 -0.2180  0.0640  0.0219
27923W        W44107  16.519  14.548   0.954  0.1069 -0.2385  0.0165
27924W        W44108  18.066  17.858   0.091 -0.2807  0.0916 -0.1254
27925W        W44109   6.085  12.777  11.164 -0.0231 -0.3229  0.1522
27926W        W44110   9.479   2.146   5.112 -0.0189 -0.1162  0.0311
27927W        W44111  15.550  11.073  11.720  0.1387 -0.0338 -0.0622
27928W        W44112  18.068  12.271   4.198 -0.0525 -0.1090  0.1017
27929W        W44113   1.459   8.116   1.909  0.1148  0.0911 -0.0020
27930W        W44114  11.789  14.606  11.939 -0.1358 -0.2058 -0.0305
27931W        W44115  18.204   7.490   1.030  0.1497  0.2532  0.0139
27932W        W44116  10.304  11.945   3.171  0.0767  0.0433  0.2957
27933W        W44117   4.609   6.438   1.223  0.1670 -0.1603 -0.0128
27934W        W44118  17.987  12.534   0.746  0.2323  0.2391 -0.0033
27935W        W44119  12.542   0.969  11.302  0.2032  0.1668  0.0219
27936W        W44120  12.365  15.787   3.839  0.2616 -0.1112  0.2582
27937W        W44121  14.629  14.097  12.640  0.0886 -0.2073  0.0876
27938W        W44122  11.831  15.837  13.377  0.1844 -0.1431 -0.1284
27939W        W44123  13.851  14.831   1.747  0.3415  0.1530  0.2063
27940W        W44124  14.497  11.235  11.072  0.2308 -0.2751 -0.1177
27941W        W44125   4.698   3.916   4.726  0.2244  0.1264  0.1994
27942W        W44126   5.513   2.355   4.282 -0.2958  0.0802 -0.0169
27943W        W44127   1.075   5.799   2.423 -0.0123 -0.0378 -0.3354
27944W        W44128   3.944  16.734  11.953  0.0243  0.1485 -0.0687
27945W        W44129   3.993  10.629   3.816  0.2027 -0.2171 -0.0029
27946W        W44130  15.361   1.596  12.921  0.0251  0.1301  0.0868
27947W        W44131  15.017   9.576   0.140 -0.0397 -0.0338 -0.0594
27948W        W44132   1.901  12.200   2.635  0.3885  0.0218  0.3651
27949W        W44133  14.000   2.559   2.646 -0.4172 -0.1761 -0.2009
27950W        W44134  14.627  10.053   5.226 -0.1348 -0.0630  0.0494
27951W        W44135  13.430  15.031   3.402  0.0983  0.0444  0.1271
27952W        W44136  16.855  18.853  10.550 -0.0083 -0.0843 -0.0464
27953W        W44137  14.489  14.048  14.988  0.1973  0.1726  0.1527
27954W        W44138   6.133  14.301   0.605  0.0734 -0.1587  0.1705
27955W        W44139   1.174   4.827   5.279 -0.0001 -0.0334  0.0725
27956W        W44140  18.281  12.065  12.205 -0.1643  0.2366  0.0159
27957W        W44141   6.019   4.605   3.094  0.0346 -0.0598  0.0418
27958W        W44142  17.179   5.153  15.321 -0.1117 -0.2860 -0.2299
27959W        W44143  11.516   7.762  12.826 -0.1815  0.1785  0.0542
27960W        W44144  10.902  18.052   3.779 -0.1537 -0.0074  0.4546
27961W        W44145  18.226   0.825  10.329 -0.3695 -0.1822  0.1567
27962W        W44146   8.667   2.862  13.331  0.0973 -0.1181 -0.0256
27963W        W44147   6.366  10.319   1.463  0.3264 -0.1967 -0.1152
27964W        W44148  17.924   6.676   4.873 -0.3368  0.1646  0.1576
27965W        W44149   2.635   8.139   4.224  0.2392 -0.0017 -0.3676
27966W        W44150  14.068  15.163   5.254  0.0126  0.1420  0.0430
27967W        W44151   2.007   3.374   2.165 -0.0758  0.0088  0.1549
27968W        W44152  17.013  10.931   3.455  0.0468 -0.1195 -0.1089
27969W        W44153   9.668  17.485  11.556  0.1047  0.1066 -0.0436
27970W        W44154   1.757  10.505  14.717 -0.1960  0.0851  0.2396
27971W        W44155   4.261   9.563   4.122  0.1181  0.3276  0.1338
27972W        W44156  15.994  12.600   3.560  0.3686 -0.1334  0.2606
27973W        W44157   5.281   4.957  11.868  0.0095 -0.1075 -0.1321
27974W        W44158   9.888   6.648  12.435 -0.2820  0.0899 -0.4594
27975W        W44159   6.857  12.437  13.242 -0.1099 -0.3914 -0.1641
27976W        W44160  16.121   4.144   0.439  0.3191  0.0376  0.3147
27977W        W44161   3.543   1.600   2.639  0.0400 -0.3256  0.1523
27978W        W44162   5.038   8.580   2.447 -0.2044  0.1145  0.0040
27979W        W44163   1.188   6.233   0.850 -0.0687 -0.0417 -0.0343
27980W        W44164   3.770  15.970  11.655 -0.0537  0.0974 -0.3408
27981W        W44165   3.026   1.739  10.629  0.5785 -0.1731 -0.1241
27982W        W44166   1.498   0.787  15.240 -0.1181 -0.1673  0.0911
27983W        W44167   3.840   1.570  10.387  0.0183  0.3385 -0.2963
27984W        W44168   5.868  16.399  12.594 -0.2604 -0.1361 -0.2966
27985W        W44169   7.368  15.513  14.625  0.1329  0.2410 -0.0363
27986W        W44170  17.030   4.714   4.906  0.1782 -0.1395 -0.0570
27987W        W44171   8.253  18.484   3.272  0.3773 -0.0237  0.3854
27988W        W44172   1.660   4.473  13.716 -0.1646 -0.2172 -0.4348
27989W        W44173  13.115  18.137   4.648  0.0286 -0.0125  0.0011
27990W        W44174  12.552   6.347  13.133  0.2487  0.3302  0.0541
27991W        W44175  10.810  11.322  10.653 -0.1784  0.2711  0.0709
27992W        W44176   5.732   8.246   4.164  0.0118 -0.1126  0.1384
27993W        W44177   4.580  10.482   4.700 -0.1856 -0.0700 -0.1257
27994W        W44178   6.130   2.316   4.507  0.0425  0.0226 -0.0471
27995W        W44179  15.530   8.629  11.129 -0.0143 -0.1628  0.4153
27996W        W44180   4.687  14.368  11.439 -0.1826 -0.0487 -0.0512
27997W        W44181   6.668   2.402  12.891 -0.1436  0.2526 -0.1860
27998W        W44182   7.538   8.321   0.449 -0.1459 -0.0381  0.3745
27999W        W44183  18.614   9.576  11.368  0.0322 -0.1212  0.0193
28000W        W44184   8.191   6.322  14.747 -0.0734 -0.0659 -0.0174
28001W        W44185  14.194  14.344   4.571  0.1177 -0.0519 -0.0405
28002W        W44186  12.026  10.276  11.176 -0.0583 -0.0863 -0.2253
28003W        W44187  15.555  10.680   4.997 -0.1422 -0.1036  0.0099
28004W        W44188   4.642   3.091  13.078  0.1810 -0.1793 -0.2951
28005W        W44189   3.361  18.286  14.885  0.1025 -0.2163  0.3351
28006W        W44190  16.741  15.628  14.521  0.0987  0.3652  0.0357
28007W        W44191  16.880   5.066   0.150  0.3341 -0.0948  0.0659
28008W        W44192  12.953  11.977  11.865  0.4252 -0.0715 -0.0796
28009W        W44193   6.271   9.648  12.948  0.0921  0.0922  0.0586
28010W        W44194  13.001  17.011  12.801  0.1790 -0.1826 -0.1078
28011W        W44195  11.611   0.946   1.959  0.1099 -0.3190  0.2483
28012W        W44196  18.679   1.726  12.197  0.5133  0.0155 -0.1155
28013W        W44197   3.890  15.236  11.141 -0.0699 -0.0826 -0.0508
28014W        W44198   9.992  17.512   2.271 -0.0192 -0.0214 -0.0354
28015W        W44199  12.248  16.141  13.551  0.3522 -0.0231  0.0971
28016W        W44200   2.642  11.712   1.586 -0.0861 -0.1229  0.2439
28017W        W44201   5.279   2.112  13.716 -0.0659  0.0168 -0.0459
28018W        W44202  16.606  11.614   2.661 -0.2552 -0.2094  0.1566
28019W        W44203  14.523  14.869   0.320 -0.1956  0.0276  0.0130
28020W        W44204   6.715   7.828  12.683  0.1502  0.0238  0.1124
28021W        W44205   1.851   5.542   0.892  0.0869 -0.0390 -0.3377
28022W        W44206   0.063   0.897   4.034  0.1265  0.3415 -0.0709
28023W        W44207  18.753   3.598   3.778 -0.0635 -0.1540  0.3293
28024W        W44208  13.086   5.647   2.612  0.0737  0.3910 -0.1654
28025W        W44209  11.844  18.098   2.271 -0.0105  0.2496 -0.0432
28026W        W44210  14.027  14.808   5.664 -0.0005  0.1729  0.1057
28027W        W44211   6.816   9.668  12.872 -0.2066  0.3131  0.2146
28028W        W44212   1.492   9.328  14.567 -0.1622  0.3113  0.0718
28029W        W44213   3.044  12.962  12.204  0.1912  0.4157  0.2756
28030W        W44214  16.720   5.695  14.071 -0.0335  0.2773 -0.0928
28031W        W44215   8.384  10.593  12.295 -0.0505 -0.0267 -0.0104
28032W        W44216   6.000   9.729  15.272  0.3701 -0.0002  0.0609
28033W        W44217   6.425   1.248  13.502 -0.3162 -0.5850  0.3556
28034W        W44218  14.692   2.366   3.044 -0.0187  0.2508 -0.2409
28035W        W44219  17.938  14.674  10.936 -0.4511 -0.0588 -0.1487
28036W        W44220   2.323   3.184   2.485  0.1395  0.0093 -0.0088
28037W        W44221  11.497  18.585  14.522 -0.2680  0.0688  0.1519
28038W        W44222   4.802  11.687   2.297  0.0580  0.0327 -0.2173
28039W        W44223  16.027  10.370  14.113  0.1190  0.3335 -0.1383
28040W        W44224   0.735  16.707   0.356 -0.1437  0.0928  0.1364
28041W        W44225   0.859   0.801  12.362  0.2658 -0.0825  0.0121
28042W        W44226   4.840   4.262  14.158 -0.1046 -0.1166  0.2286
28043W        W44227   2.283  14.104  13.096  0.1396 -0.0342 -0.1189
28044W        W44228  12.836  17.129  14.984 -0.1443  0.0116  0.2905
28045W        W44229  17.180  11.031  11.780  0.3265 -0.2996 -0.1064
28046W        W44230   8.881  10.737   1.605 -0.3174  0.1039 -0.3319
28047W        W44231   5.779   8.084   1.175  0.0867 -0.0945  0.0267
28048W        W44232  10.325  16.124   3.195  0.1363  0.5099 -0.0089
28049W        W44233  11.542   1.030  14.453  0.1236 -0.0419  0.0891
28050W        W44234   0.603   0.211   3.346  0.2637 -0.0919 -0.0048
28051W        W44235  17.641   7.449   0.188 -0.0346 -0.1913 -0.0473
28052W        W44236  11.373   2.813   1.276 -0.1928 -0.1418 -0.2247
28053W        W44237   1.691  15.913  10.385  0.0118  0.0310 -0.0741
28054W        W44238   5.360   1.401   3.184 -0.4549  0.2082  0.1333
28055W        W44239   3.495   6.677   4.482 -0.2351 -0.2321  0.0634
28056W        W44240   9.767   9.337   2.111  0.1703  0.3736 -0.0736
28057W        W44241  18.836   5.437   2.038  0.0288  0.2367  0.0023
28058W        W44242  17.237   2.663  13.893 -0.0781  0.0541  0.0555
28059W        W44243  18.319  14.649  12.397 -0.0399  0.0247  0.2976
28060W        W44244  18.825   8.306  10.797  0.2616  0.0561 -0.1588
28061W        W44245  17.707   8.545   3.085 -0.1754  0.1832 -0.3982
28062W        W44246   8.065   0.238   5.566  0.0274  0.0126 -0.3186
28063W        W44247   9.217  10.691   0.799 -0.3858  0.0999 -0.1351
28064W        W44248   2.465  12.501  11.064  0.0643  0.1634 -0.0987
28065W        W44249   8.192  12.029   4.639  0.5268 -0.2989  0.0913
28066W        W44250   9.260   1.655   4.916  0.2447 -0.0227  0.2115
28067W        W44251   7.806   1.442  11.339  0.1668 -0.1744 -0.0527
28068W        W44252  14.618   0.265   5.000 -0.1104 -0.0721  0.1844
28069W        W44253   6.274  16.860  13.942 -0.0562  0.0159 -0.2699
28070W        W44254   3.563   4.627  10.111  0.0884 -0.1516 -0.0222
28071W        W44255  11.631   2.131   1.578  0.0890 -0.1015 -0.1171
28072W        W44256   7.545   0.710   3.595  0.1443 -0.1393  0.1735
28073W        W44257  13.853   7.324   3.003 -0.0724 -0.0605  0.0549
28074W        W44258   5.745  14.972  13.336 -0.0630  0.0347 -0.2181
28075W        W44259  16.727  15.598  15.003  0.3067 -0.1395  0.1313
28076W        W44260  11.468   2.493   3.158  0.0722  0.1668  0.5517
28077W        W44261   0.043  17.536  12.575 -0.0357 -0.0676  0.0385
28078W        W44262   9.720   7.680   1.407 -0.0137 -0.2955 -0.1397
28079W        W44263   3.762  15.772   3.456 -0.2533 -0.0249 -0.2771
28080W        W44264  10.889   3.054  14.600  0.0750  0.1003  0.0571
28081W        W44265   0.766   4.313  12.422  0.0640  0.1376  0.1609
28082W        W44266  14.131  15.274  13.509  0.2221  0.0966  0.1003
28083W        W44267   1.177   9.181  11.128  0.1261  0.1284 -0.1519
28084W        W44268   8.123  16.561   0.305  0.1841  0.1634  0.1373
28085W        W44269  14.535  11.853   4.294 -0.2889  0.4041 -0.0210
28086W        W44270  14.442   0.384  12.087 -0.1615  0.2509  0.1400
28087W        W44271   5.101  13.473  14.460 -0.0204  0.0648  0.1725
28088W        W44272   1.141   5.011   1.804  0.0295 -0.1079 -0.0127
28089W        W44273  10.719   5.973  14.700  0.0969  0.1711  0.0324
28090W        W44274  17.051  14.832  12.212  0.1110 -0.0382 -0.2141
28091W        W44275   7.656  13.501  12.487  0.2538  0.0518 -0.1321
28092W        W44276   8.923   2.628   3.673  0.1340  0.3146  0.0993
28093W        W44277  12.944   3.021  11.635  0.0643  0.1693 -0.0342
28094W        W44278   8.880   8.304  15.458  0.0578 -0.1022 -0.3846
28095W        W44279  12.310   0.467   4.710 -0.1375 -0.0983  0.2521
28096W        W44280   9.960  16.763   4.301  0.1247  0.3587  0.2125
28097W        W44281   3.823  16.359   1.720  0.2643 -0.0932  0.1068
28098W        W44282   7.745  11.054  11.805 -0.0856 -0.3120 -0.3508
28099W        W44283   4.853  10.678  12.986 -0.0441 -0.0804  0.1141
28100W        W44284  12.866  14.045   2.840  0.2880 -0.2133 -0.0146
28101W        W44285  15.367   1.902   1.331 -0.0300  0.2612  0.1336
28102W        W44286  16.877  14.288  14.705  0.3373 -0.0055 -0.0764
28103W        W44287   2.443   1.352   2.158  0.3918 -0.0986 -0.1748
28104W        W44288  12.586  13.616   2.755  0.1377 -0.0612  0.1317
28105W        W44289  17.785  18.505   0.237  0.0536 -0.0274  0.1123
28106W        W44290  14.576   8.474   1.371  0.3259  0.0359  0.1157
28107W        W44291   7.799   9.372   2.322 -0.0177 -0.3397  0.0990
28108W        W44292   0.726  16.585  14.329  0.0174 -0.1907  0.0240
28109W        W44293  12.724   4.384  15.065 -0.2417  0.3419 -0.0020
28110W        W44294   9.579   4.314   3.353 -0.1744  0.0655  0.0790
28111W        W44295   7.229   4.182   2.191 -0.2529 -0.1724 -0.1252
28112W        W44296   6.916  16.589  13.598  0.0274  0.2709  0.1330
28113W        W44297   3.857  13.673  15.127 -0.1965 -0.2323 -0.1416
28114W        W44298   8.749  17.964   0.163 -0.0605 -0.1188 -0.4709
28115W        W44299  10.634   7.686  14.389  0.0985 -0.1568 -0.2629
28116W        W44300  17.252  17.480   2.941  0.0034 -0.2713  0.0322
28117W        W44301   5.117   5.580   0.162  0.0520  0.0097 -0.0095
28118W        W44302  18.760  15.890  11.921 -0.0013 -0.5529  0.1170
28119W        W44303  10.610   3.715  14.033  0.0613 -0.3910 -0.1402
28120W        W44304   7.285   5.847  14.470  0.1301  0.1485  0.1776
28121W        W44305  14.769  11.112  12.760  0.0711  0.0420 -0.3459
28122W        W44306   0.317   8.677  12.034  0.0638  0.2673 -0.2104
28123W        W44307  12.569   4.466   2.849  0.1122 -0.0457 -0.1289
28124W        W44308   2.476   3.179  11.449  0.0499 -0.2628  0.3992
28125W        W44309   5.706  11.604   2.140 -0.4763  0.0013  0.1475
28126W        W44310  18.547   6.447  14.326 -0.1626  0.1500  0.1649
28127W        W44311   0.607  12.281  11.657  0.2798  0.0048 -0.0829
28128W        W44312   2.857   2.260   2.979 -0.0550  0.3476  0.2747
28129W        W44313   6.832   6.225  12.641  0.4384  0.0909 -0.0185
28130W        W44314  15.689   8.177   5.274 -0.0892 -0.1468  0.2061
28131W        W44315   9.515   8.215   4.982 -0.3263  0.2637  0.0596
28132W        W44316  10.786  10.552   3.297 -0.1280  0.2579 -0.1138
28133W        W44317  11.188   3.811   3.278  0.2623  0.0480 -0.0676
28134W        W44318   1.787  16.510   5.102  0.2355  0.0646 -0.3728
28135W        W44319  17.685  11.007   9.990  0.0347 -0.0168  0.2985
28136W        W44320  12.138   4.116   5.634  0.1256  0.0854  0.1755
28137W        W44321   5.270   1.013   0.974  0.2045 -0.2337  0.0542
28138W        W44322   3.033   0.313   3.990  0.2115 -0.0557 -0.3595
28139W        W44323  14.037   1.036  12.550 -0.0206  0.3865 -0.0671
28140W        W44324   7.118   7.993  11.832 -0.0068 -0.0955 -0.0933
28141W        W44325  10.220   8.261   2.855  0.2488 -0.0653 -0.3479
28142W        W44326   5.228  13.727  11.067  0.2501  0.2746 -0.0826
28143W        W44327   3.312  13.906  15.087 -0.3062 -0.1264 -0.3817
28144W        W44328  10.370  10.774   4.368 -0.2488  0.0781 -0.3089
28145W        W44329   0.454   5.004  11.495  0.1436 -0.2130  0.2571
28146W        W44330  10.550   0.076   4.003  0.0735  0.2546 -0.0544
28147W        W44331  18.388   5.325   1.149 -0.2475  0.0513  0.0027
28148W        W44332   0.078   6.761  14.121  0.3661  0.0047  0.1856
28149W        W44333   1.581   0.169   4.287 -0.1714  0.2718 -0.1221
28150W        W44334  13.063  17.743   2.588  0.1228 -0.3029 -0.2605
28151W        W44335   3.193   7.220   0.369 -0.0178  0.2734  0.0036
28152W        W44336  11.514   6.322   0.453 -0.2715 -0.1341  0.0121
28153W        W44337   3.802   9.272  14.386  0.1633  0.1008  0.0191
28154W        W44338   0.446  17.198  15.334 -0.1649  0.1881  0.1827
28155W        W44339  15.378   5.614   4.179  0.3425 -0.0658 -0.0635
28156W        W44340  11.834   0.334   3.955  0.1172 -0.2012 -0.0168
28157W        W44341  18.785  12.764   3.810  0.0383  0.0167  0.1461
28158W        W44342   4.668  11.239  10.976  0.3539 -0.4109  0.1820
28159W        W44343   6.179   7.373  11.496 -0.1701  0.1099 -0.0161
28160W        W44344  16.524   9.787   2.533 -0.0859 -0.0327  0.1328
28161W        W44345   2.892  11.197  11.839 -0.1100  0.0720  0.1620
28162W        W44346  15.189   7.621  12.584  0.2676 -0.1422 -0.3454
28163W        W44347  11.549  11.836   2.679  0.0467  0.2123  0.0025
28164W        W44348   2.455   4.104   1.821  0.0158  0.2737 -0.0690
28165W        W44349  15.611  11.321   1.820 -0.1488 -0.1880  0.0050
28166W        W44350   2.230   0.712  10.409  0.1372 -0.5072  0.1562
28167W        W44351   6.557  15.671  10.732 -0.0353 -0.1197 -0.4064
28168W        W44352  17.710   4.833   3.252  0.2586  0.0293  0.2173
28169W        W44353  13.011   5.458  14.887 -0.0741  0.3829  0.0283
28170W        W44354  13.737   0.285   4.676 -0.2549 -0.1995  0.2447
28171W        W44355  15.895  13.831  10.678  0.0534  0.0814 -0.1999
28172W        W44356   3.311   7.158   0.879  0.0276 -0.1825  0.1381
28173W        W44357  15.715   8.679   2.971  0.0373  0.0530 -0.0083
28174W        W44358  12.729   7.481   3.968 -0.2468 -0.2904  0.0123
28175W        W44359   4.597  15.952   2.174 -0.1069  0.2323  0.1142
28176W        W44360   3.909  11.775  13.643  0.1632 -0.0286 -0.1093
28177W        W44361   2.356   1.480  13.955  0.1403  0.2302  0.4340
28178W        W44362   0.442  16.570  13.435  0.0411  0.0504  0.0099
28179W        W44363  14.236   2.761  14.805 -0.0932 -0.0326 -0.3458
28180W        W44364   3.640  14.912   5.248 -0.0728  0.0574 -0.2608
28181W        W44365   6.827  18.434  11.190 -0.1675 -0.3719 -0.0873
28182W        W44366   5.109  11.564   1.593 -0.1106 -0.1624 -0.0877
28183W        W44367   0.761  17.253   2.075  0.0672  0.0048  0.0963
28184W        W44368   3.984  17.381   2.712 -0.1457 -0.0874  0.2332
28185W        W44369   8.390  14.556   4.952  0.2124 -0.0906 -0.1353
28186W        W44370   6.768   9.852   0.070  0.1318  0.0164 -0.1592
28187W        W44371  12.002  15.565   0.970 -0.1376 -0.0801  0.0789
28188W        W44372   1.019   1.983  12.017  0.2085  0.1374  0.0374
28189W        W44373   3.050  10.232  14.068  0.2124 -0.0328 -0.1963
28190W        W44374  15.400   0.537   3.965  0.0088 -0.0611 -0.2726
28191W        W44375   7.893  12.410  11.059  0.0726 -0.2487  0.0097
28192W        W44376  13.974   1.524   2.818  0.0311 -0.1533  0.0221
28193W        W44377   0.623  18.142  15.398 -0.1121  0.0467  0.4509
28194W        W44378   9.479  12.683  15.072  0.0915  0.0538 -0.0241
28195W        W44379  11.673   8.880  11.756  0.1945  0.3141  0.1242
28196W        W44380   2.990   0.452   4.828 -0.1772  0.0098  0.0203
28197W        W44381   9.518   0.244   4.556 -0.1538  0.1170  0.0036
28198W        W44382  16.760   8.861  11.530  0.3501 -0.1487 -0.0235
28199W        W44383   0.674  13.356   0.707 -0.0410  0.0630  0.2933
28200W        W44384  15.001   1.147   4.325  0.1141 -0.0157 -0.3051
28201W        W44385   8.889  10.996   2.520 -0.0940 -0.2396 -0.1388
28202W        W44386   5.535   4.014   5.976  0.0172 -0.1172 -0.0809
28203W        W44387   3.841  14.341  15.228  0.1513 -0.1443 -0.0204
28204W        W44388   1.695  18.364   3.132  0.0485 -0.0920 -0.0137
28205W        W44389   5.285  16.438  15.150  0.1215 -0.1199 -0.3985
28206W        W44390  15.054   5.592  15.436 -0.3388 -0.0786  0.0539
28207W        W44391   4.546  17.936  13.805 -0.0817 -0.2192 -0.2011
28208W        W44392   7.475   5.072   3.789  0.1466 -0.0542  0.1080
28209W        W44393  10.361  10.464   4.750  0.2201  0.0222  0.2847
28210W        W44394  13.188  18.665  11.119 -0.1219  0.1960 -0.5029
28211W        W44395  14.165  13.847   4.687  0.0063  0.3866 -0.0727
28212W        W44396  13.891  10.172   0.936  0.0809  0.2535  0.2271
28213W        W44397  11.686  15.943  14.554 -0.1881  0.3109  0.0209
28214W        W44398  16.452   8.070  13.681  0.0012 -0.2976  0.4303
28215W        W44399  17.805  16.162  11.087  0.3190 -0.0311  0.3579
28216W        W44400   4.708   1.962   4.195  0.1698 -0.0360  0.2618
28217W        W44401   5.406  14.857   2.697  0.1341 -0.4716  0.1444
28218W        W44402   1.490   6.812  14.330  0.1154 -0.3224  0.0331
28219W        W44403   3.381  17.530   4.116  0.1682 -0.3262  0.0067
28220W        W44404  17.545  16.814   0.665 -0.0202  0.0913 -0.1537
28221W        W44405   9.590  12.090   5.058 -0.0200 -0.1011 -0.1620
28222W        W44406   6.565   5.123  12.023  0.1135  0.1390 -0.0914
28223W        W44407   6.601  10.352   5.483  0.1764 -0.0447 -0.0827
28224W        W44408  18.217  12.895  11.324  0.2111  0.1119  0.2127
28225W        W44409   5.291  17.952   2.438 -0.0299 -0.0008 -0.1442
28226W        W44410  15.541  17.557  11.432  0.1151 -0.2087 -0.0732
28227W        W44411   6.134   5.633  12.011  0.0554  0.0057  0.0871
28228W        W44412   2.951   7.435  12.112 -0.1335  0.1779  0.1616
28229W        W44413  17.486  14.164  10.281  0.2899 -0.0825 -0.0998
28230W        W44414   6.013   8.740  12.245 -0.1509  0.2174  0.0403
28231W        W44415   1.761  11.681  14.058  0.2516  0.0461  0.0137
28232W        W44416   8.353  12.439   4.319 -0.0030  0.1704 -0.3221
28233W        W44417  11.760   5.955   1.696  0.0600  0.0949 -0.0854
28234W        W44418   6.475  12.320  15.115 -0.0321  0.2961  0.3477
28235W        W44419  18.520   2.980   2.056  0.1747  0.0795  0.0756
28236W        W44420   9.119  10.906   0.335 -0.1433  0.3005  0.2886
28237W        W44421  17.147  18.070  11.304  0.4700  0.0321 -0.0452
28238W        W44422  17.347  10.713   1.845 -0.3309 -0.3140  0.0388
28239W        W44423   3.369  11.258  14.286 -0.1108 -0.1724 -0.0631
28240W        W44424   9.777  16.621   0.106  0.0702 -0.3326  0.0830
28241W        W44425  10.425   5.546   4.295 -0.1836 -0.2120  0.3117
28242W        W44426  13.902  13.358  12.307  0.1767  0.0361 -0.0362
28243W        W44427   9.428  15.614   4.600 -0.1423  0.2795  0.0154
28244W        W44428  11.396  13.855   3.842  0.1788 -0.0519  0.2449
28245W        W44429   7.076   9.001  11.251 -0.3409  0.0460  0.0815
28246W        W44430   4.104   1.030  11.537  0.0440 -0.0129 -0.2175
28247W        W44431   3.219  13.797  14.279 -0.1119  0.2838 -0.2122
28248W        W44432   5.836   8.028  10.989 -0.1739  0.0826 -0.3893
28249W        W44433  18.195   3.717  12.164  0.0131  0.2305 -0.2013
28250W        W44434  15.282  15.194   5.040  0.1911  0.1380  0.1068
28251W        W44435   6.930   5.878   0.575  0.0824 -0.0767  0.0262
28252W        W44436   2.431  13.069  13.365  0.0884  0.1784 -0.1471
28253W        W44437   8.611  17.065   3.954  0.3732  0.0579  0.0336
28254W        W44438   3.047  17.941  11.677  0.2187  0.1662  0.3808
28255W        W44439   5.227   0.433   1.040 -0.3405  0.0539 -0.2471
28256W        W44440   4.384  10.463   1.371  0.3920  0.2998  0.2143
28257W        W44441  10.200  10.716   5.613  0.0778  0.0407 -0.1644
28258W        W44442   2.951   8.808   4.768 -0.2762 -0.0103 -0.1059
28259W        W44443   7.480   3.542   3.712 -0.0657 -0.0728  0.0669
28260W        W44444   2.796   7.027   3.459 -0.1613  0.3014 -0.2189
28261W        W44445  16.265  16.002  13.703  0.1790  0.0246 -0.1918
28262W        W44446   6.816   8.991   5.157  0.1491 -0.1884  0.1489
28263W        W44447  16.904  13.839  14.818  0.0529 -0.3154  0.0544
28264W        W44448  12.871  17.486   4.019  0.3225 -0.2757  0.0021
28265W        W44449   3.493  18.045  11.523  0.0292 -0.0363  0.1639
28266W        W44450   8.911   1.034   3.099 -0.0562  0.0861 -0.0707
28267W        W44451  17.705   0.171   0.792  0.2430 -0.3638 -0.0520
28268W        W44452   0.893  17.544  14.528 -0.1115  0.0221 -0.1622
28269W        W44453   0.709  16.389   1.972 -0.1759  0.2699  0.0503
28270W        W44454  15.317   2.306  11.588  0.3144  0.0117 -0.0335
28271W        W44455   1.249   9.200   3.444  0.1065 -0.1175  0.1328
28272W        W44456  15.679  10.839  15.319 -0.4045 -0.2404  0.0251
28273W        W44457   0.453   3.576  13.781  0.2512  0.0009  0.4093
28274W        W44458   3.250  16.146   2.707  0.0361 -0.0356 -0.1286
28275W        W44459  10.675  14.802  14.447 -0.3303 -0.0852 -0.1860
28276W        W44460   7.124  11.675   1.596  0.0707 -0.1777 -0.1621
28277W        W44461  18.564  10.006   1.207  0.0059 -0.0211  0.1516
28278W        W44462   2.242   1.844  14.351 -0.1101  0.1758  0.0012
28279W        W44463   1.082   1.341   2.453 -0.2659  0.2981 -0.1738
28280W        W44464  13.588   3.038   3.697 -0.0394 -0.0505  0.5926
28281W        W44465   6.483  16.406  13.774  0.0984 -0.2436 -0.0529
28282W        W44466   4.899   6.849   4.868 -0.3730  0.1174 -0.1349
28283W        W44467   1.864  13.938   2.398  0.1072 -0.0810 -0.2235
28284W        W44468   3.843   3.578  11.705 -0.1598  0.0830 -0.1243
28285W        W44469  13.053  14.913   3.699 -0.0111  0.1904 -0.2683
28286W        W44470  12.659  17.989   1.135  0.0896 -0.0264 -0.1227
28287W        W44471  17.610   6.299  15.074  0.0965 -0.2075  0.1509
28288W        W44472   3.443  14.043   2.483  0.3170 -0.1011 -0.3606
28289W        W44473  16.514   6.951  14.724 -0.0673  0.3936  0.1779
28290W        W44474  12.966  11.569   1.351 -0.2751 -0.0528 -0.3517
28291W        W44475   5.770   5.928   3.837  0.1489 -0.0491  0.0551
28292W        W44476   9.687  12.471   0.034  0.0676 -0.0134 -0.2715
28293W        W44477  14.350   9.253   0.606  0.3095  0.1853  0.3994
28294W        W44478  10.534   0.355  14.292 -0.2254  0.1533  0.0166
28295W        W44479  12.382   6.988  11.496  0.1094 -0.3549 -0.0905
28296W        W44480   4.743  10.972   2.254 -0.4681 -0.2929  0.2146
28297W        W44481   8.185   4.838   2.598  0.1885 -0.0774 -0.0950
28298W        W44482   8.817  18.347   3.931 -0.0060 -0.0351  0.3041
28299W        W44483   7.183   5.660  14.019  0.3140 -0.2285  0.1772
28300W        W44484   5.463  14.075   0.317 -0.2400 -0.0640  0.0044
28301W        W44485  11.542  17.148   1.913 -0.0602  0.2308  0.1332
28302W        W44486   4.341   4.808  14.456  0.3350  0.2064  0.0445
28303W        W44487  14.034   6.043  14.755  0.3506 -0.3809  0.3080
28304W        W44488  16.563   0.591   5.396  0.0267 -0.0802 -0.2236
28305W        W44489  18.323   0.828  12.899  0.3228 -0.0613  0.1373
28306W        W44490   2.811  10.798  15.369  0.1576 -0.4222  0.2417
28307W        W44491   3.958   7.017   0.909  0.0747  0.1101 -0.1669
28308W        W44492  16.374   1.144  11.104 -0.1468 -0.2018 -0.2585
28309W        W44493   3.260   7.314   4.676  0.0717 -0.2179 -0.2035
28310W        W44494   1.039   5.819   1.416  0.1348  0.0263 -0.0361
28311W        W44495  11.261   3.235   1.561  0.0128 -0.1743  0.1075
28312W        W44496   5.128  12.524   4.797  0.0827  0.0409 -0.1337
28313W        W44497   2.375   0.668  12.697 -0.2886 -0.0719  0.1086
28314W        W44498  16.932   4.979   4.534 -0.1870  0.3170  0.1116
28315W        W44499  14.985  15.582  10.797  0.0895 -0.4693  0.1917
28316W        W44500   1.311   1.774   1.952  0.1839 -0.0400  0.0898
28317W        W44501  18.624  17.292   4.354  0.5640  0.1313  0.1255
28318W        W44502   0.110   1.672   5.128  0.0265  0.2150  0.1078
28319W        W44503  17.353  17.044  13.602  0.0138 -0.1610 -0.0032
28320W        W44504  11.733  11.538   0.700 -0.1429  0.3566 -0.1617
28321W        W44505  13.099  16.607   1.130 -0.0987  0.0128  0.0322
28322W        W44506   4.184  17.470  12.999 -0.1089  0.4837  0.1774
28323W        W44507   5.943   0.784   4.036  0.0495  0.3269 -0.0862
28324W        W44508   0.107   6.384   0.795  0.0378  0.2320  0.0069
28325W        W44509  17.711   7.592   4.650 -0.1631  0.2426 -0.0628
28326W        W44510   7.070   4.439   4.427  0.1661 -0.0673  0.1020
28327W        W44511   4.141   8.114  10.321  0.1983 -0.1407 -0.0112
28328W        W44512   2.115   8.159  11.341 -0.0479 -0.1718  0.1384
28329W        W44513   9.036   6.146  15.038  0.0129 -0.0711  0.4739
28330W        W44514   2.838   7.695  12.957 -0.0861 -0.0332 -0.0981
28331W        W44515   8.805  15.505   1.414  0.0815 -0.0365  0.0907
28332W        W44516  14.563   7.915   4.155  0.0276  0.1341 -0.1105
28333W        W44517  18.347   2.046  11.752 -0.0803  0.1105  0.0261
28334W        W44518   1.137  15.210   1.541 -0.2798 -0.0619  0.1015
28335W        W44519   2.034  16.900   2.363 -0.0018 -0.0659 -0.0415
28336W        W44520  10.429   9.643   0.831 -0.1959 -0.1640 -0.1170
28337W        W44521  11.415   7.971  14.591  0.2111  0.2615 -0.1343
28338W        W44522   9.387  11.895  13.712 -0.2420 -0.0339  0.0181
28339W        W44523   8.738   9.108  12.184  0.0184 -0.0895 -0.1727
28340W        W44524   3.064   4.929  11.002 -0.2273 -0.1209  0.1120
28341W        W44525   9.028   3.980   3.908  0.0763 -0.1805 -0.1054
28342W        W44526   7.523  14.394   5.392 -0.0723 -0.0128 -0.0266
28343W        W44527  10.684   6.968  12.122 -0.0339  0.2223  0.0228
28344W        W44528  16.994  15.353   1.797  0.0657 -0.0465 -0.1843
28345W        W44529   6.791  14.417  14.483 -0.2078 -0.0218  0.1061
28346W        W44530  14.199  13.167   1.926 -0.1037 -0.1217  0.0191
28347W        W44531  10.908   4.751  12.484 -0.4588 -0.1080 -0.1110
28348W        W44532   3.107   8.911   4.236 -0.0971  0.2797 -0.1550
28349W        W44533   6.930   9.896  11.130  0.1043 -0.0037  0.1259
28350W        W44534   0.254  15.477  14.371 -0.0386 -0.1677  0.1603
28351W        W44535   5.993   2.980  12.868 -0.0944 -0.1471  0.0484
28352W        W44536  17.559   1.136   2.216 -0.0100  0.1743  0.1331
28353W        W44537   2.072   9.224   5.019  0.1285  0.0446 -0.0913
28354W        W44538   9.692   7.436  12.039 -0.1818 -0.2921 -0.1312
28355W        W44539   5.653   1.389   0.111 -0.1322  0.0685 -0.1652
28356W        W44540   0.005   1.284  10.823 -0.0733 -0.2569  0.2143
28357W        W44541  13.829   9.474  14.800 -0.2521  0.0740 -0.0628
28358W        W44542  12.146  14.748   5.407 -0.1418  0.4765 -0.1543
28359W        W44543   8.323  14.034   3.352  0.0853 -0.0123  0.3180
28360W        W44544   5.071   5.868  12.316  0.1447  0.2891  0.0623
28361W        W44545   3.996   2.322  11.025  0.2679  0.1402  0.4173
28362W        W44546   9.375  12.413  13.267  0.3213  0.1286 -0.3124
28363W        W44547  14.576   3.848  11.203  0.1123 -0.1483 -0.1163
28364W        W44548  12.239   6.476   4.807  0.4479 -0.0970 -0.0289
28365W        W44549   2.866   9.661   0.687  0.1183 -0.0466 -0.3092
28366W        W44550  11.059  15.721  13.488 -0.2382  0.1034  0.2799
28367W        W44551  16.150  12.044   0.628 -0.0532  0.0743 -0.1698
28368W        W44552   7.395   2.330   5.112 -0.1793 -0.0732 -0.2648
28369W        W44553  12.672   2.860   3.876  0.0039  0.2927 -0.1103
28370W        W44554   4.454   8.512  15.356 -0.4993 -0.4673 -0.0996
28371W        W44555   5.962  15.962   0.681  0.1946 -0.2460  0.1650
28372W        W44556   7.603   1.012   4.485  0.2643  0.2371  0.2192
28373W        W44557   4.409   6.760  11.328 -0.0178  0.4431 -0.3738
28374W        W44558   9.706   0.591  13.055  0.4206  0.1192  0.1817
28375W        W44559   4.194  17.547  11.198 -0.1211  0.0023 -0.0529
28376W        W44560  11.901  11.101   0.853 -0.2622  0.0393 -0.0282
28377W        W44561  15.898   0.198   1.632  0.3101 -0.1424 -0.2390
28378W        W44562   4.125   8.110  13.767 -0.0623  0.1485  0.1820
28379W        W44563   1.476  11.640  15.401 -0.1249  0.5408  0.0510
28380W        W44564  13.041   5.511  13.048  0.3267 -0.0857 -0.1248
28381W        W44565   9.895   9.111  13.079 -0.1455  0.1577 -0.0634
28382W        W44566   4.481  11.344   3.065  0.4325 -0.1122 -0.0531
28383W        W44567  12.969  13.322  14.834 -0.1306 -0.0959  0.3053
28384W        W44568  16.131  18.198   1.902 -0.0516 -0.2819 -0.1903
28385W        W44569  15.651  12.890   3.863 -0.0475  0.0686 -0.1179
28386W        W44570   0.006  16.320   6.214  0.1641  0.2170 -0.0229
28387W        W44571   7.959   1.012  13.539  0.1426  0.0383 -0.1646
28388W        W44572  16.927  15.591   5.103 -0.2874  0.0191 -0.1063
28389W        W44573   0.648   4.678   1.728  0.1280  0.1200 -0.2143
28390W        W44574   1.928  14.661   0.263  0.1460  0.1219  0.1567
28391W        W44575  17.536  12.229   0.992 -0.1562 -0.0570 -0.0917
28392W        W44576   9.844  14.720  12.338 -0.1207 -0.3204  0.1423
28393W        W44577  12.120  15.129   0.661 -0.1348 -0.0261 -0.1243
28394W        W44578  12.129  18.379  14.250  0.0737  0.1173  0.0358
28395W        W44579  10.858   2.733   1.579 -0.1607  0.0115  0.0878
28396W        W44580   6.201   2.949  14.638  0.1111 -0.2987 -0.1780
28397W        W44581   0.209   0.061  10.650 -0.0490  0.2902  0.0052
28398W        W44582  17.981   5.433  15.374  0.0102  0.2363  0.0663
28399W        W44583  11.912   4.074  11.873  0.3350 -0.0456  0.0473
28400W        W44584   8.517  11.013   5.514  0.0076  0.3357  0.1091
28401W        W44585  18.368   4.668  14.945  0.1321 -0.2021  0.1995
28402W        W44586  12.027  13.106   5.783 -0.0817  0.3636 -0.0703
28403W        W44587   5.776  11.088  13.319  0.1068  0.0535 -0.2312
28404W        W44588   1.862   4.442   2.948  0.1422  0.3729  0.1208
28405W        W44589   2.700   6.410  11.579  0.0371  0.1903  0.2197
28406W        W44590  11.749   3.607  11.974 -0.1125 -0.1050 -0.1251
28407W        W44591  10.578   7.517   3.025 -0.7248  0.3821 -0.3673
28408W        W44592  18.335  10.324  12.386  0.1970  0.1536  0.0242
28409W        W44593   7.827   2.068   2.149  0.0407  0.1257  0.0167
28410W        W44594   6.293   4.719  11.488  0.0133 -0.3174 -0.1252
28411W        W44595  15.162   2.934  11.330 -0.3104 -0.0419 -0.0011
28412W        W44596   5.933   4.444  11.188  0.0743  0.0232 -0.1055
28413W        W44597  10.530  18.021  14.749  0.1193  0.4257 -0.1967
28414W        W44598   5.928   7.002   0.185 -0.1065 -0.0750 -0.4106
28415W        W44599   0.917  10.996   0.647  0.0076 -0.1933  0.0174
28416W        W44600  17.993   6.764  15.487 -0.4234  0.0334 -0.1215
28417W        W44601  16.632   8.156  12.859  0.0588 -0.0195  0.1397
28418W        W44602  16.081  11.696   5.983  0.3135  0.3352 -0.0764
28419W        W44603  13.469  12.828   1.123  0.1847 -0.1457 -0.2312
28420W        W44604  17.665   6.718  13.378 -0.0642  0.1001  0.0647
28421W        W44605   6.943  18.607  10.737  0.1394  0.1596  0.0265
28422W        W44606  11.457  12.581  12.290 -0.0291 -0.0326 -0.0880
28423W        W44607  11.988   2.002   0.651 -0.0927 -0.1075 -0.0028
28424W        W44608   7.334   9.232   2.468 -0.2396 -0.1705  0.1302
28425W        W44609   4.244  11.211  15.239 -0.1133 -0.2153 -0.2131
28426W        W44610  11.365  17.827   4.034 -0.2367 -0.0519  0.3216
28427W        W44611  15.613   0.971   3.590 -0.2443 -0.2558 -0.1703
28428W        W44612  11.120  13.488  15.095 -0.2029 -0.2673  0.2165
28429W        W44613   0.253  17.995  13.419  0.2019  0.3869  0.0163
28430W        W44614  13.586  12.448  11.288 -0.0742  0.0270  0.0895
28431W        W44615   5.101  18.528  12.432  0.0652 -0.2816 -0.2502
28432W        W44616  16.337   8.227  12.212 -0.0555  0.0815  0.1574
28433W        W44617  18.163  10.617  10.783  0.2175  0.1214 -0.3787
28434W        W44618   5.837   9.563  12.250  0.0925  0.3247 -0.0380
28435W        W44619  11.454   9.312  12.364  0.1048  0.1433  0.0651
28436W        W44620   9.986   2.618  13.829  0.0308  0.1449  0.0456
28437W        W44621   6.042   9.242  13.098  0.1723 -0.1713  0.0414
28438W        W44622   2.815  10.456   3.991 -0.0288  0.0862 -0.0618
28439W        W44623  16.330   4.515  12.385 -0.1248 -0.2723  0.0273
28440W        W44624  16.529   2.891  14.429 -0.1422  0.0457 -0.0155
28441W        W44625  14.494   4.061   5.110  0.1392  0.2279 -0.1345
28442W        W44626   8.695   7.144  14.976 -0.4529  0.1621 -0.2065
28443W        W44627   5.651   7.613  14.086  0.0007 -0.1560 -0.0784
28444W        W44628  16.439   6.415  13.939  0.0925  0.0583 -0.1247
28445W        W44629   8.614  16.366   6.004 -0.0158  0.1774 -0.0422
28446W        W44630   6.116  14.110  14.671 -0.0903  0.1815 -0.0325
28447W        W44631  13.773   6.416   3.765 -0.1888  0.0750  0.2533
28448W        W44632  15.787   7.188   2.600  0.0898 -0.1664 -0.1160
28449W        W44633  17.202  15.199  14.744 -0.2025 -0.1437  0.1834
28450W        W44634   0.350  16.196   1.050 -0.0054 -0.3275  0.1071
28451W        W44635  11.239  16.277   5.434  0.3241 -0.0969 -0.0177
28452W        W44636  10.647  15.203   2.078 -0.1785 -0.1683  0.0567
28453W        W44637   0.132   5.961  10.895 -0.3282 -0.1295  0.0936
28454W        W44638   4.361  18.349  11.439 -0.4327 -0.1648  0.2175
28455W        W44639  10.901   5.043  12.935  0.0158 -0.0119 -0.0609
28456W        W44640   7.905  17.178   1.136 -0.0467 -0.6005  0.3051
28457W        W44641  11.995  16.504   4.433  0.0204 -0.0556  0.1488
28458W        W44642  16.634  17.192   2.441  0.2266  0.0759  0.3953
28459W        W44643   2.378   8.831   4.886  0.0832  0.1590  0.1242
28460W        W44644  16.396   2.253  13.744 -0.2907  0.1360  0.1330
28461W        W44645   9.140   4.107   1.979 -0.1237 -0.0689 -0.2859
28462W        W44646   3.704  11.572   1.296  0.0280  0.2593 -0.0011
28463W        W44647   7.304   2.291   2.149 -0.3290 -0.0002 -0.2671
28464W        W44648  15.090  15.485   0.886 -0.3006 -0.2120 -0.1816
28465W        W44649  18.392   6.031  15.462 -0.0738 -0.4135 -0.0180
28466W        W44650  12.238  12.779  13.893  0.1950 -0.3975  0.1121
28467W        W44651   5.516   7.767  10.800  0.1055  0.0539  0.2991
28468W        W44652   5.476  16.809  12.616 -0.0192  0.0644 -0.0501
28469W        W44653  17.578   8.753  14.587 -0.0700 -0.2434 -0.0242
28470W        W44654  18.590   0.371   2.864  0.0497  0.1441 -0.0262
28471W        W44655   9.708  15.545   4.216 -0.2879 -0.0528  0.0966
28472W        W44656   0.446  16.308   0.182 -0.0160 -0.5791 -0.0729
28473W        W44657  13.990   3.931   0.554 -0.0241  0.0147  0.0926
28474W        W44658  17.435  12.281  11.274  0.0927  0.2005 -0.1802
28475W        W44659   1.247  15.977  11.866 -0.0995  0.0416  0.4300
28476W        W44660  18.101   0.834   2.496  0.1527  0.2890 -0.0902
28477W        W44661  10.237   2.436   1.263 -0.3352  0.2308  0.0913
28478W        W44662   0.933   1.356   1.948 -0.0097  0.0026 -0.2103
28479W        W44663  15.391  13.415   4.509  0.0973  0.2106 -0.3228
28480W        W44664   5.824   9.476   0.473  0.1602  0.1794  0.0199
28481W        W44665   7.453  17.069   4.882 -0.0656  0.1779  0.0747
28482W        W44666   4.884   7.734   0.656 -0.0706  0.0253  0.1003
28483W        W44667  13.994   8.641  13.154  0.1745 -0.2000  0.2035
28484W        W44668  15.294  14.295   5.185 -0.2767 -0.4372 -0.0693
28485W        W44669   3.502   9.194  12.233  0.4365 -0.0435  0.0243
28486W        W44670   5.096  17.260  14.766 -0.0892  0.0223  0.2675
28487W        W44671   2.016   9.591   1.035  0.0064  0.1396  0.0238
28488W        W44672   3.883   7.551   1.284  0.0314 -0.0003 -0.1302
28489W        W44673  18.217  15.692  14.542  0.1460  0.1955  0.3216
28490W        W44674  14.497  11.706  10.784  0.2562  0.0761 -0.1655
28491W        W44675   9.808   0.038   1.274  0.4261  0.0179 -0.2987
28492W        W44676   2.371  15.021  14.954  0.1369 -0.0514 -0.1060
28493W        W44677  14.508   9.202   2.671  0.0139 -0.1447  0.0723
28494W        W44678   2.040  14.821  12.216  0.2249  0.0385  0.0243
28495W        W44679   1.413  17.725  12.704  0.1277 -0.1298  0.2690
28496W        W44680   9.783  14.818  14.066 -0.3166 -0.2144  0.2703
28497W        W44681   6.355   3.114   3.065 -0.0111 -0.1926  0.2721
28498W        W44682   2.148   4.598   1.392 -0.0481  0.1974 -0.0271
28499W        W44683  16.813   4.833  11.030  0.1130  0.2284  0.1750
28500W        W44684  12.822   0.501  11.541  0.1773 -0.3120  0.0179
28501W        W44685  15.776   6.704  11.584 -0.1856 -0.0975  0.2397
28502W        W44686   0.673   2.852  11.436  0.0860  0.3175 -0.0496
28503W        W44687  14.377  11.425   2.836  0.0633  0.2079  0.2494
28504W        W44688   7.845  11.964   0.611 -0.2764  0.1424  0.1774
28505W        W44689   2.787   6.584   1.300 -0.3364 -0.1033 -0.1599
28506W        W44690  14.596  17.731   3.110  0.1502 -0.0871 -0.0041
28507W        W44691  10.650  17.617  12.549  0.0126  0.0501  0.1375
28508W        W44692   7.464  12.155  12.479 -0.2624 -0.1287 -0.0048
28509W        W44693  12.074   1.276  12.294 -0.0352  0.0479 -0.1624
28510W        W44694   5.206   7.887  12.806  0.0917  0.2999  0.0081
28511W        W44695  17.733  14.157  12.546  0.0502  0.2742 -0.0008
28512W        W44696   2.980   5.442   2.028 -0.3101  0.2329 -0.2096
28513W        W44697   6.355  12.154  12.459 -0.0610  0.0724  0.2755
28514W        W44698  11.286  16.737   0.856 -0.0595  0.0002 -0.0482
28515W        W44699  15.373  12.532   4.601  0.4863  0.0894  0.0448
28516W        W44700   0.681  15.672   1.927 -0.2627  0.0828  0.1477
28517W        W44701  10.742   2.104  12.188  0.2402 -0.1304 -0.0307
28518W        W44702   1.338   3.865   0.912  0.1528 -0.1719 -0.1299
28519W        W44703   9.520  15.777  12.219 -0.2100  0.1366  0.0053
28520W        W44704   0.479  15.631  12.943  0.3806  0.1675 -0.0370
28521W        W44705   5.899  17.274  11.427  0.0031 -0.2970 -0.1451
28522W        W44706   5.719   0.401   4.355  0.1507  0.0350 -0.0807
28523W        W44707  18.229  11.899   5.713  0.2140  0.0047  0.1315
28524W        W44708   1.506   5.865   1.174  0.2817 -0.0397  0.2792
28525W        W44709   5.120   0.221  12.260 -0.1696 -0.0383  0.0190
28526W        W44710   9.885   3.500   2.890 -0.1911 -0.1878 -0.0249
28527W        W44711   1.254   4.743  12.960  0.0252  0.0074 -0.1834
28528W        W44712  14.530  15.017   4.175 -0.5355 -0.1250  0.0643
28529W        W44713  18.112   1.032   4.158  0.2856 -0.1600 -0.0445
28530W        W44714   4.583   3.673  10.071  0.1405 -0.1861 -0.3473
28531W        W44715  14.592  17.651   3.972 -0.0446 -0.1447 -0.1004
28532W        W44716  12.933   0.097   5.748 -0.1143 -0.1692 -0.2670
28533W        W44717   1.914   3.816  12.100 -0.1048  0.0445  0.0549
28534W        W44718   4.703   7.924  12.828 -0.1783 -0.1090 -0.0521
28535W        W44719  11.900   6.125   3.271 -0.1699 -0.2404 -0.1218
28536W        W44720   7.798   6.927  15.370  0.1980  0.0876  0.3290
28537W        W44721  10.154   2.089  15.159 -0.0479 -0.4383 -0.1136
28538W        W44722   1.880   6.735   1.353  0.1285 -0.1714 -0.0382
28539W        W44723   6.039  15.964  12.393 -0.2458 -0.2649 -0.0104
28540W        W44724  16.040   3.560   4.079 -0.1167  0.1243 -0.0919
28541W        W44725   7.515   6.701   1.470 -0.2614 -0.0538  0.0592
28542W        W44726  16.810   6.011  15.122  0.2384  0.2125 -0.0759
28543W        W44727   5.729  10.783   2.049  0.2564  0.1533 -0.0886
28544W        W44728   5.643  18.138  15.475  0.0125  0.0945  0.1286
28545W        W44729  17.627  17.064   2.603  0.1908 -0.1380  0.0641
28546W        W44730   4.945   1.794  14.013 -0.3491  0.0896 -0.0376
28547W        W44731  15.179   7.529  11.067 -0.3413  0.0275  0.0104
28548W        W44732  14.538  13.758   1.334  0.0024  0.1382  0.0662
28549W        W44733   1.956  13.946  11.359  0.2295  0.0447  0.0218
28550W        W44734  15.940   3.025   0.754  0.0887 -0.0979  0.2475
28551W        W44735   2.008   7.090  13.155  0.0315 -0.1025 -0.1124
28552W        W44736   1.081  17.988   0.007  0.0992 -0.0107 -0.2207
28553W        W44737  17.710  14.163  14.814 -0.4543 -0.3222 -0.1411
28554W        W44738  12.061  12.947   1.269 -0.0764  0.2231  0.2288
28555W        W44739   1.983   1.473   1.979  0.0467  0.0144  0.0920
28556W        W44740  16.637  12.704   0.500 -0.0643  0.0671 -0.1470
28557W        W44741  11.782   5.631  13.476  0.0536 -0.0596 -0.3216
28558W        W44742  12.504  10.657  11.437 -0.0782  0.1028  0.0565
28559W        W44743  14.400   1.807  14.366  0.3166 -0.2455  0.1825
28560W        W44744   9.728   0.367   5.001 -0.0344 -0.0378  0.0120
28561W        W44745  16.121  13.408  11.869  0.2207  0.0132 -0.1203
28562W        W44746   9.620   2.699  15.277  0.0437 -0.1666 -0.0571
28563W        W44747   1.563  12.860  10.760  0.0871  0.1321 -0.1515
28564W        W44748  17.738   4.835  14.108  0.3473 -0.0811 -0.0660
28565W        W44749   6.350  13.326   2.398 -0.0664  0.1149 -0.0095
28566W        W44750   2.831  14.449  14.987 -0.1783  0.0340  0.2538
28567W        W44751   8.647  15.097   4.158  0.1911  0.3237 -0.1578
28568W        W44752   3.064  10.144   5.420  0.0201  0.0197  0.1350
28569W        W44753  16.304   3.604   2.951 -0.0899 -0.0496 -0.2145
28570W        W44754  15.282   9.036  12.669  0.2221  0.2740  0.4533
28571W        W44755  11.049  11.179   2.276  0.2148  0.0437  0.0855
28572W        W44756  14.518   2.091  13.013 -0.1521  0.0117  0.1909
28573W        W44757   1.558   2.060   3.500  0.3724 -0.1619  0.1306
28574W        W44758  16.575   6.351   4.705 -0.0231  0.2136  0.0800
28575W        W44759   1.964   7.623   0.215  0.1929 -0.2497  0.2040
28576W        W44760  12.323   7.200   2.377  0.1467 -0.0751 -0.3293
28577W        W44761   3.344   3.206  11.129  0.1979  0.2048  0.3913
28578W        W44762   0.319  13.687  11.682  0.1734 -0.0426 -0.2363
28579W        W44763   4.071  18.752  15.268  0.0175  0.3890 -0.0546
28580W        W44764   9.204  17.966  14.934 -0.1050  0.1179 -0.1905
28581W        W44765  15.397   9.619   1.677 -0.1052 -0.0823  0.0689
28582W        W44766   1.879   4.997  13.832  0.0785 -0.2729 -0.3149
28583W        W44767  11.388   2.844  13.014  0.0651  0.0595 -0.0459
28584W        W44768   2.192   2.802  15.223 -0.0230 -0.1237  0.1389
28585W        W44769  11.058   1.752  11.342 -0.5436 -0.0321  0.2418
28586W        W44770  11.736  11.280  11.676  0.5488 -0.2262 -0.0271
28587W        W44771   5.343  17.115  14.232 -0.2141 -0.3193 -0.0156
28588W        W44772  14.011   2.764  13.386 -0.0621 -0.0304 -0.0049
28589W        W44773  10.285  12.234   4.113 -0.1753 -0.0127 -0.0958
28590W        W44774   5.112  12.810  13.892  0.0060 -0.2221 -0.1486
28591W        W44775   5.253  17.002   3.405  0.0349  0.2124 -0.0447
28592W        W44776  18.594   4.421   0.925  0.1398 -0.2444  0.1927
28593W        W44777  11.082  17.597   0.031  0.1448 -0.3316 -0.1277
28594W        W44778   4.094   5.012   1.588 -0.2808  0.1745  0.2334
28595W        W44779  10.966  14.795  15.319 -0.1507  0.0030  0.1654
28596W        W44780   3.115   2.476  15.474  0.0558 -0.1876 -0.3213
28597W        W44781  12.978   9.341  11.692  0.1961  0.0273  0.2894
28598W        W44782   7.671  17.770  11.351  0.4209 -0.1736  0.4673
28599W        W44783   4.443   0.476  12.596 -0.0998  0.3120  0.0027
28600W        W44784   3.310  12.661   2.198 -0.1643 -0.1792 -0.3080
28601W        W44785   7.818   4.044   2.843  0.0519  0.0854 -0.0554
28602W        W44786   0.880   2.390  10.653 -0.0540 -0.3277 -0.1002
28603W        W44787   4.405  12.537  12.499  0.0438 -0.1386 -0.1599
28604W        W44788   4.683  14.105   1.426  0.1292 -0.2178  0.1561
28605W        W44789   7.070   6.664  10.514 -0.1531 -0.0790 -0.0583
28606W        W44790  18.130   8.350   2.817  0.0153  0.3352 -0.4189
28607W        W44791  15.475  13.220   1.093 -0.0241 -0.2317 -0.3758
28608W        W44792   6.319   9.576  12.430 -0.4133  0.1544 -0.1507
28609W        W44793  10.269  14.406  13.263  0.0967 -0.0177 -0.1621
28610W        W44794   5.199  15.760  12.193  0.1102  0.0014  0.2255
28611W        W44795   1.945  12.415   3.632  0.2901  0.0113 -0.1093
28612W        W44796   7.308   9.848  13.056  0.0346 -0.0748 -0.3686
28613W        W44797  14.767   2.463   4.038 -0.2649 -0.0482  0.3748
28614W        W44798   8.041   7.391  15.235 -0.2145 -0.0129  0.0276
28615W        W44799   2.507   6.659  11.016 -0.2009  0.0164 -0.1385
28616W        W44800  10.117   4.709   1.323  0.0821  0.1207 -0.1554
28617W        W44801  13.123  10.770   0.942 -0.2315  0.0592 -0.0612
28618W        W44802   4.149  14.234  11.602  0.2129 -0.2756  0.2145
28619W        W44803  18.291   2.338  11.360 -0.2026 -0.0946  0.2531
28620W        W44804   2.508   7.299  12.977  0.2503 -0.2263  0.1662
28621W        W44805   1.776  14.246   4.719 -0.1029 -0.1793  0.0109
28622W        W44806   7.713   8.171   5.533  0.0534 -0.0472 -0.0550
28623W        W44807   8.387  18.749  12.899 -0.3519 -0.0314 -0.0015
28624W        W44808  16.460   7.092  12.908 -0.4686 -0.1104 -0.0896
28625W        W44809  10.918  17.685  12.061  0.2809 -0.0407 -0.3857
28626W        W44810   5.997  15.290  11.009  0.1410  0.1258 -0.3637
28627W        W44811  10.001   2.519   3.045 -0.1187  0.3164  0.3016
28628W        W44812  11.041  14.108   5.636  0.2309  0.2050  0.2465
28629W        W44813   1.867   1.384   1.478  0.0185 -0.3089  0.0147
28630W        W44814   7.187  10.772   5.162 -0.1209  0.2742  0.3504
28631W        W44815  17.490   2.038   4.376  0.3001 -0.0543 -0.0496
28632W        W44816  10.122   0.674   2.792 -0.2007  0.1758  0.2070
28633W        W44817   8.614   9.787  14.548 -0.2377 -0.2665  0.1961
28634W        W44818   5.627   5.239   3.670  0.2313 -0.0024 -0.2737
28635W        W44819   4.710  12.639   0.493 -0.3692 -0.0114  0.1948
28636W        W44820   9.606   3.190  13.958  0.0802 -0.1856  0.0059
28637W        W44821  14.806   6.407   4.728  0.0258 -0.1497 -0.2264
28638W        W44822   4.802  17.372   2.160  0.0028  0.1631 -0.0297
28639W        W44823  16.423  17.814   1.021 -0.1622 -0.0726  0.1459
28640W        W44824   7.658   7.974   5.003 -0.1819  0.0920 -0.0382
28641W        W44825  10.896   9.861   0.833 -0.1260 -0.1738  0.1353
28642W        W44826   2.390   2.438   2.269  0.1322  0.0015 -0.0057
28643W        W44827  14.810  17.055   1.156  0.2142  0.0860 -0.2212
28644W        W44828   4.714  18.194   4.278  0.2083 -0.0557  0.0585
28645W        W44829   7.871   2.196  14.941  0.1403 -0.2646 -0.0461
28646W        W44830  10.573  15.606  11.739 -0.1428  0.3742  0.0814
28647W        W44831   0.143   4.978   0.201  0.0927  0.2579  0.3611
28648W        W44832   9.832  18.765   5.441 -0.0792 -0.2406  0.2600
28649W        W44833  14.128  10.693  14.953  0.0346  0.0788  0.1060
28650W        W44834   9.108  17.212   3.982  0.1639 -0.0862 -0.3079
28651W        W44835  14.982  10.379   0.404  0.0360  0.0095 -0.0730
28652W        W44836   9.555   3.005  10.005  0.0852  0.0720 -0.0789
28653W        W44837   8.095  17.330  12.359 -0.0606 -0.2389  0.2419
28654W        W44838  14.128   0.847   1.645  0.0057 -0.3614 -0.4845
28655W        W44839  15.399  18.215  13.507 -0.0081 -0.2312 -0.0068
28656W        W44840  15.232   5.595   5.718  0.2234  0.5070 -0.2253
28657W        W44841  18.736  16.241  13.372  0.2069 -0.0419 -0.0847
28658W        W44842  11.250   4.772   2.809 -0.2392  0.1247 -0.0080
28659W        W44843  11.489   0.542  14.339  0.0675 -0.3318 -0.0812
28660W        W44844  14.612   5.730   4.238 -0.1709 -0.2668 -0.1333
28661W        W44845   4.019   2.384   1.284  0.1821  0.1192 -0.1466
28662W        W44846   1.707   3.098  15.354  0.0017 -0.1202 -0.0385
28663W        W44847  16.826  18.642   0.071  0.3729 -0.3453  0.2826
28664W        W44848   5.369  14.202   3.740 -0.2240 -0.1102  0.0858
28665W        W44849  15.129  10.058   0.055 -0.0078  0.0415  0.1142
28666W        W44850  16.224  18.240   3.199 -0.0389 -0.1625  0.1360
28667W        W44851  13.289   3.692   5.162 -0.1500  0.1013 -0.0779
28668W        W44852  17.769  17.813  13.042 -0.0931  0.2323 -0.1733
28669W        W44853  17.114  18.640   3.326 -0.0873  0.1004  0.1811
28670W        W44854   5.368   0.945   0.038 -0.0001  0.2778 -0.2069
28671W        W44855   3.696  18.279   2.567  0.1485  0.1858 -0.0580
28672W        W44856  16.951   1.149   5.127  0.2862  0.1523  0.2082
28673W        W44857  18.577  11.815   0.302  0.1078 -0.0113  0.1198
28674W        W44858  10.883  15.909  15.178 -0.0033 -0.0229 -0.2632
28675W        W44859  12.923   4.833   4.807 -0.3691 -0.2849  0.2325
28676W        W44860   5.145  13.313   1.171 -0.3268  0.5965  0.0862
28677W        W44861   9.705  13.083   1.915  0.2130 -0.0670 -0.1387
28678W        W44862  11.695   0.299   0.781  0.2529  0.2283 -0.1454
28679W        W44863   8.038  17.804   0.154 -0.1421 -0.2164  0.2774
28680W        W44864  12.781   3.530  10.934  0.2309  0.2404 -0.3569
28681W        W44865  15.990  11.265  15.201  0.1855  0.1438 -0.3810
28682W        W44866   1.260   0.516  14.417 -0.3128 -0.1659  0.2041
28683W        W44867  16.270   5.134  14.384 -0.0059  0.1894 -0.0901
28684W        W44868  17.943   8.902  14.966  0.0058 -0.0581 -0.0580
28685W        W44869   9.540   3.473   3.304 -0.2667 -0.1337 -0.1956
28686W        W44870   2.351   8.266   5.397  0.0787 -0.1477  0.1435
28687W        W44871   4.181   1.009  14.249  0.2213 -0.0396 -0.1442
28688W        W44872  12.710  16.495   0.905  0.3165 -0.0102 -0.0899
28689W        W44873  18.199  12.180   0.401 -0.2196  0.3642  0.0298
28690W        W44874  13.758   7.886   0.259  0.3725 -0.1830 -0.2195
28691W        W44875  10.550  13.569   4.311 -0.4783  0.1670  0.0892
28692W        W44876   1.542   7.781  12.722 -0.0551 -0.2124 -0.1047
28693W        W44877  17.829   2.398  15.465 -0.1123 -0.2341  0.2080
28694W        W44878   8.929  11.295   5.560 -0.1643 -0.1192  0.0909
28695W        W44879  17.335   7.640  14.640  0.3123  0.2858 -0.0111
28696W        W44880   3.929   5.348  13.481 -0.0016  0.0566  0.4266
28697W        W44881  17.284   4.263   2.299  0.1774  0.1309 -0.0858
28698W        W44882  11.747  14.866   2.847  0.0756 -0.2492 -0.3347
28699W        W44883   6.121   4.611  13.947  0.0446  0.1115 -0.2916
28700W        W44884  13.120   3.608  12.385 -0.4417  0.1382 -0.4520
28701W        W44885  15.477  10.374   4.582 -0.1404 -0.0174  0.2009
28702W        W44886   7.528   8.309  13.871 -0.2116 -0.1592 -0.0587
28703W        W44887  15.179  14.929   2.383 -0.1332  0.1077  0.1174
28704W        W44888   0.592  15.271  13.361 -0.0779 -0.0479  0.0498
28705W        W44889   8.410   0.918  13.768 -0.1624  0.1675  0.0244
28706W        W44890   4.406   9.254   1.220  0.4052 -0.0268 -0.0669
28707W        W44891   6.912   8.718   3.997 -0.0902 -0.4135 -0.0629
28708W        W44892   2.076  17.801   0.249  0.0612  0.3487 -0.1012
28709W        W44893   8.600  16.181  10.212  0.1337 -0.1440  0.1165
28710W        W44894   3.676   1.625  14.702 -0.3883  0.1060 -0.1099
28711W        W44895   3.662   8.654   3.441 -0.0733 -0.0600 -0.1229
28712W        W44896  17.157  13.639   0.770 -0.0684  0.1284 -0.0477
28713W        W44897   3.741   1.443   4.171 -0.1272 -0.3590  0.1943
28714W        W44898   6.168   9.518   0.162  0.1617 -0.1029  0.2644
28715W        W44899   7.870  12.344  15.436 -0.0744  0.1284  0.0911
28716W        W44900   9.585  17.783   1.411 -0.6597 -0.3487  0.0414
28717W        W44901   1.016  11.074   3.746  0.0485  0.2404 -0.2725
28718W        W44902  12.638   2.634   1.122 -0.3447 -0.0741  0.0268
28719W        W44903  14.011  18.502   0.955  0.3346  0.0461  0.3124
28720W        W44904  13.670   9.892   1.410  0.1395  0.2077 -0.2058
28721W        W44905   7.309   9.698  13.967  0.0258 -0.1042  0.1532
28722W        W44906  14.426  12.766   3.728  0.0701  0.1694 -0.2430
28723W        W44907  16.522  12.479   4.434  0.0761  0.1890  0.1947
28724W        W44908   1.947  12.606   5.763 -0.3131  0.2006 -0.2590
28725W        W44909   5.758   5.339  11.886  0.0712  0.0583 -0.1377
28726W        W44910  18.148   0.502  10.746 -0.0797  0.2631  0.1223
28727W        W44911  17.370  16.479  12.952 -0.3548 -0.3794  0.1825
28728W        W44912  15.000  13.921  13.329  0.0937  0.0783 -0.4484
28729W        W44913  15.078  11.292   1.961 -0.4218 -0.0650 -0.0939
28730W        W44914  14.361   5.179   2.759 -0.1040 -0.0352  0.0391
28731W        W44915   5.183   3.762   2.952  0.0381 -0.3900  0.0456
28732W        W44916  12.947  17.582   1.184  0.0266  0.2509  0.1679
28733W        W44917  17.131  13.034   4.090 -0.2018  0.0937 -0.0459
28734W        W44918   4.608  16.856  13.767  0.0834  0.1051  0.1733
28735W        W44919   5.127   5.824   5.702 -0.1111 -0.1962  0.3272
28736W        W44920   1.619   8.499   0.113  0.2478 -0.2215 -0.0076
28737W        W44921  15.386  11.442  10.466 -0.0699 -0.0282 -0.1085
28738W        W44922   7.290   4.805  10.712 -0.0865 -0.0648  0.1375
28739W        W44923   7.850  10.892   0.425  0.5025 -0.1080  0.3019
28740W        W44924  17.776   8.333   1.972  0.0873  0.1173 -0.2189
28741W        W44925   2.226   0.569   1.228 -0.1450 -0.1806  0.0395
28742W        W44926   5.167  14.866  14.257  0.1283 -0.1756  0.0065
28743W        W44927  16.157  13.290   2.795  0.4889  0.2387  0.0270
28744W        W44928  12.310  15.191  14.644  0.0212 -0.1105 -0.1899
28745W        W44929  13.717   4.338   2.979  0.0540  0.0028  0.2669
28746W        W44930   4.766  10.127   1.207 -0.2210  0.3365 -0.0860
28747W        W44931  16.128   9.096   2.938  0.1229  0.0541 -0.3446
28748W        W44932  12.208  11.715  12.355 -0.1193  0.1063 -0.1298
28749W        W44933   0.512  13.510  11.285  0.0258  0.0220  0.1311
28750W        W44934  11.484   4.892  13.741  0.0874  0.4001 -0.2883
28751W        W44935  17.205  11.306   1.008  0.1754 -0.0171  0.1664
28752W        W44936  16.820   1.128  15.243  0.3496  0.3807  0.2404
28753W        W44937  13.214   9.107  14.896  0.2010  0.0072  0.0050
28754W        W44938  15.914   0.200  15.382 -0.1647  0.0002  0.2809
28755W        W44939   7.438  16.949   1.033  0.3502  0.1766  0.2605
28756W        W44940   5.759   2.019   2.300 -0.0579  0.0461  0.2377
28757W        W44941   4.423   5.020   4.123 -0.2598 -0.1550 -0.2906
28758W        W44942   3.014   9.282  12.200 -0.1557 -0.5111  0.0452
28759W        W44943   7.233  12.266   1.836  0.2184  0.1688  0.2206
28760W        W44944   2.369   3.186   3.361  0.0026 -0.0066  0.1453
28761W        W44945   6.086   4.525   3.572  0.0966 -0.1446  0.0660
28762W        W44946  14.300   5.715   1.054 -0.0684 -0.1514 -0.1202
28763W        W44947  18.675   4.990   0.869  0.1704 -0.1715 -0.1099
28764W        W44948   2.642  13.838  12.808 -0.0551 -0.0284  0.2219
28765W        W44949  14.349   9.347  11.923 -0.0986 -0.2213  0.3614
28766W        W44950  12.638  11.256   3.879  0.1699  0.2593  0.1882
28767W        W44951  15.756   6.711   2.483  0.1478  0.1776 -0.0752
28768W        W44952  16.001   9.581   1.793 -0.1352 -0.0656  0.0013
28769W        W44953   6.173  18.146   5.801  0.0134 -0.1745 -0.1835
28770W        W44954  15.391  18.526  11.723  0.3352 -0.3143 -0.2122
28771W        W44955   0.700  12.634   1.971 -0.0032 -0.0056 -0.1458
28772W        W44956   0.190   1.160  12.364 -0.3723 -0.0322  0.1928
28773W        W44957   6.924  11.779  13.837 -0.1019  0.0829  0.2293
28774W        W44958   9.564   8.187  12.105 -0.0839  0.3533  0.2105
28775W        W44959   8.876   8.144   3.661  0.1631  0.2004  0.0887
28776W        W44960  13.850  18.642   3.487  0.0099  0.1469  0.1417
28777W        W44961   5.448  14.532  12.584 -0.1569  0.3717  0.1832
28778W        W44962   3.110  18.334  14.412  0.0356  0.1048  0.1728
28779W        W44963   7.106  16.833   0.588 -0.2618 -0.1151  0.1374
28780W        W44964   7.047  17.326   4.658  0.2335  0.0822 -0.0520
28781W        W44965  15.042   2.328  13.197  0.1945 -0.1063 -0.0150
28782W        W44966   1.279   1.193  15.045  0.1713 -0.0428  0.1306
28783W        W44967  15.571  10.895   1.383 -0.0391  0.2721 -0.1582
28784W        W44968   0.726   5.868  13.461 -0.1503  0.0689 -0.1036
28785W        W44969  12.547   7.365   1.210 -0.0087  0.2414 -0.0635
28786W        W44970   8.179  13.557   3.277  0.1163 -0.1920 -0.2255
28787W        W44971   8.155  17.605   3.663 -0.4829  0.2047 -0.2117
28788W        W44972   0.362   5.946   5.274  0.1560  0.1878  0.1178
28789W        W44973   7.039  15.200  14.952 -0.0640 -0.4331 -0.0493
28790W        W44974   2.464   1.270  11.768 -0.1120 -0.1136  0.1203
28791W        W44975  16.373   1.669   1.713  0.2877  0.1268 -0.0452
28792W        W44976  10.481   8.220   1.759 -0.2605  0.2064  0.1997
28793W        W44977  14.472  10.617   4.178  0.1305  0.3307  0.1416
28794W        W44978  14.916  11.795  13.684  0.3870 -0.2332  0.1127
28795W        W44979   7.730  10.382   0.249 -0.2250  0.2778  0.0563
28796W        W44980  15.398  14.972   3.880  0.0712  0.0926  0.1343
28797W        W44981  11.146  10.513  12.258 -0.2354 -0.1485  0.1071
28798W        W44982   2.424  18.833   1.931 -0.1212 -0.2445  0.0607
28799W        W44983  16.896   9.527   1.372 -0.1584 -0.0765  0.1717
28800W        W44984  17.952  11.531   3.078 -0.3282  0.2135 -0.1387
28801W        W44985  17.912  10.535  11.728 -0.0546  0.0208  0.0045
28802W        W44986   1.587  18.241  10.651 -0.3000 -0.0738 -0.0719
28803W        W44987   1.075  11.962  14.502 -0.0114  0.1774 -0.0072
28804W        W44988   5.460   8.462   1.281 -0.2623 -0.3173 -0.2394
28805W        W44989  14.669   1.815   3.106 -0.0002  0.0609  0.0040
28806W        W44990   7.460  11.043   3.657 -0.0709 -0.0335 -0.1741
28807W        W44991  12.777   0.040   4.587 -0.0434  0.3012  0.0777
28808W        W44992   7.445   8.384  12.022  0.0401  0.0226 -0.2339
28809W        W44993  18.256   9.126   2.611  0.2246 -0.0088 -0.0959
28810W        W44994   4.499   1.045  12.373  0.1524 -0.0085 -0.4906
28811W        W44995   1.013   4.267   4.355  0.0089  0.1255  0.0099
28812W        W44996  14.792   2.961   3.165 -0.3323  0.0308  0.1891
28813W        W44997   3.589   4.211  11.545 -0.1147 -0.1888 -0.3766
28814W        W44998  18.569   3.567  10.780 -0.0992 -0.1424  0.0775
28815W        W44999  11.269  16.033  14.212 -0.0522  0.3133 -0.0945
28816W        W45000   9.304   7.817   2.778  0.0275  0.0866  0.1729
28817W        W45001  12.780   5.063   1.702 -0.3681  0.2323 -0.0478
28818W        W45002   8.288  10.838  14.013 -0.0441 -0.0858  0.0898
28819W        W45003   7.933   8.721   2.952 -0.0359  0.2025  0.1561
28820W        W45004  13.052  16.855   3.883  0.0785 -0.2180 -0.0220
28821W        W45005   1.769   5.520  11.095 -0.0463 -0.0092 -0.1782
28822W        W45006   1.205   0.543  13.470 -0.1694 -0.1090  0.0366
28823W        W45007   0.336   5.856   4.319  0.2515 -0.4411 -0.0609
28824W        W45008  18.522   4.690  12.894  0.0294 -0.0722  0.0173
28825W        W45009   5.771  17.373   4.742  0.0945 -0.1203  0.1176
28826W        W45010  14.180  10.385   3.392  0.2454 -0.0200 -0.0624
28827W        W45011   3.809   9.776  10.798 -0.1628 -0.1180 -0.2247
28828W        W45012  15.763   1.795  11.324  0.0851  0.2854  0.1255
28829W        W45013  17.821  13.582  11.102 -0.4356 -0.0481  0.0862
28830W        W45014  11.686  12.247   3.820 -0.2120 -0.1485 -0.1580
28831W        W45015   5.488  10.411   4.909  0.0633 -0.1330  0.2459
28832W        W45016  15.192   1.137   2.561 -0.1116  0.0778 -0.2528
28833W        W45017   5.382  17.650   1.088  0.1932  0.1144  0.0756
28834W        W45018  17.137  12.210   0.602  0.3609  0.0401  0.1688
28835W        W45019  17.896   6.023   4.057  0.0092 -0.0229  0.2236
28836W        W45020   1.199   2.237   2.207 -0.1425 -0.0294  0.1069
28837W        W45021   2.520  17.982   1.116  0.2859 -0.0374  0.1123
28838W        W45022  10.281   9.665   2.333  0.0650  0.2865  0.0657
28839W        W45023  18.112  17.429  13.327 -0.1147 -0.0276  0.2513
28840W        W45024   2.850   1.247  10.900 -0.1957  0.1556  0.0517
28841W        W45025  18.038  15.682   5.066 -0.1483 -0.0770 -0.0924
28842W        W45026  11.275  14.662   4.114 -0.0905 -0.0261  0.3754
28843W        W45027  15.140   6.122   1.302  0.3909  0.1881 -0.2269
28844W        W45028  11.238  13.541  10.463  0.3464 -0.0741  0.0606
28845W        W45029  14.790  14.976  12.932 -0.1987 -0.0115  0.1001
28846W        W45030  18.840   2.983   4.668 -0.4549 -0.1951 -0.3821
28847W        W45031   4.674   0.052   0.916  0.4184 -0.4382 -0.0232
28848W        W45032  15.387   2.086   2.790 -0.1572  0.0031 -0.1022
28849W        W45033   9.922  11.700   2.135 -0.2418 -0.4638 -0.1940
28850W        W45034  10.319   8.546  11.395  0.0620 -0.3000 -0.1204
28851W        W45035   1.586  15.163   1.104 -0.1068  0.3919  0.2064
28852W        W45036   7.474  12.472  11.394 -0.2092  0.2876  0.3655
28853W        W45037  14.040  14.693   4.194  0.1227 -0.0175  0.2507
28854W        W45038  11.029   9.379  10.681 -0.1148  0.1557 -0.2211
28855W        W45039  15.348   5.951  13.810  0.1448 -0.0990 -0.2102
28856W        W45040   6.079  16.710   4.332 -0.1467 -0.3819  0.1007
28857W        W45041  10.623   9.540   4.755 -0.1047 -0.0157  0.1139
28858W        W45042   2.213   3.385  15.243 -0.0066 -0.0471 -0.0894
28859W        W45043  12.244   2.478  11.695 -0.0466  0.2012 -0.0576
28860W        W45044  11.626  12.618   3.106  0.1878 -0.2218 -0.1941
28861W        W45045  11.545  13.737   4.305 -0.1531  0.0759  0.0389
28862W        W45046   2.971  10.616   2.464 -0.1224 -0.0629  0.0484
28863W        W45047  12.687  14.355  11.506 -0.0137  0.2066  0.1863
28864W        W45048  12.314   5.932   0.531 -0.0426 -0.1228 -0.0354
28865W        W45049  14.134  17.462   1.285  0.2843  0.0024  0.1946
28866W        W45050  17.779  16.437   0.314 -0.2414 -0.1358  0.1993
28867W        W45051  13.003   4.184  11.755  0.2451 -0.0272  0.0543
28868W        W45052   2.232  10.108  12.413  0.1355 -0.1659  0.1047
28869W        W45053  11.908  17.433  11.527 -0.0975  0.1486  0.1747
28870W        W45054   6.412   1.534   0.778  0.1043  0.0888 -0.0729
28871W        W45055   0.106  16.553   4.276  0.1302 -0.1220  0.2024
28872W        W45056  18.496  16.085  14.976  0.2581  0.1504  0.2741
28873W        W45057  17.635  13.609   3.415 -0.0887  0.3502 -0.0255
28874W        W45058  14.436   0.032  10.016 -0.2965 -0.3629  0.0033
28875W        W45059   9.862   9.194   1.610  0.1618  0.0942  0.2146
28876W        W45060   6.404   4.277  12.576 -0.1073 -0.0756  0.2004
28877W        W45061  18.774   0.196  12.297  0.0501 -0.0894  0.1662
28878W        W45062  16.168  14.893  11.194  0.2092 -0.0742 -0.1230
28879W        W45063  18.662   7.672  13.228  0.1059 -0.2227  0.3106
28880W        W45064   9.802   1.268  15.007 -0.1658 -0.0879  0.1211
28881W        W45065   4.658   7.590  14.996  0.2299 -0.0592  0.0611
28882W        W45066  16.933   3.719   1.461  0.1557  0.0731 -0.1865
28883W        W45067  10.475   8.063   1.267  0.1218 -0.0362 -0.0058
28884W        W45068   1.219   3.129   0.025 -0.1414  0.2003  0.0708
28885W        W45069   5.443  18.501   3.896 -0.0802 -0.4999  0.1237
28886W        W45070   2.176  13.865  10.953 -0.0835  0.0523 -0.0704
28887W        W45071   6.944  15.699  13.344 -0.2552  0.0884  0.1133
28888W        W45072  10.570   6.353   0.388 -0.1589  0.1281  0.1009
28889W        W45073  18.518  14.529   2.367  0.0052  0.0206  0.2574
28890W        W45074  18.431  13.947  13.786 -0.1107  0.0873 -0.1146
28891W        W45075  13.067   3.731   1.849  0.2761  0.1855 -0.1512
28892W        W45076  14.559   0.510   2.335 -0.2196 -0.1037  0.0274
28893W        W45077  11.039   9.180   3.122 -0.1318  0.1581 -0.0118
28894W        W45078   1.699  14.536  14.478 -0.2645  0.0108 -0.0162
28895W        W45079   5.428  13.200  14.124  0.1953  0.2143 -0.3067
28896W        W45080  11.728  18.854  10.192  0.0568  0.2252  0.0959
28897W        W45081  13.251  16.547  12.509 -0.3018 -0.2901  0.1820
28898W        W45082  15.411   4.609  12.547 -0.0422  0.1326 -0.0010
28899W        W45083  12.566  13.955   2.380  0.2474  0.0950 -0.0491
28900W        W45084   4.228   1.006   5.284  0.1620  0.1204 -0.0821
28901W        W45085  14.979   4.759  12.350  0.4390  0.1333  0.0562
28902W        W45086  18.312   6.160   3.211 -0.4377  0.2704  0.0545
28903W        W45087  10.324   1.597  14.260  0.0305  0.0048 -0.0189
28904W        W45088  17.599   3.234   4.589 -0.1348 -0.1482  0.1173
28905W        W45089  18.383   8.689   4.208 -0.0631 -0.1267  0.0935
28906W        W45090   3.514  12.079  12.550  0.0165 -0.0798  0.5700
28907W        W45091  11.663   0.591  12.902  0.3566  0.1461 -0.1098
28908W        W45092  14.162  17.783   2.317  0.0150  0.1464  0.0896
28909W        W45093   5.983   5.912  13.806  0.1369 -0.0429  0.1332
28910W        W45094   3.442  13.537   2.651  0.2079 -0.0885 -0.1243
28911W        W45095   8.341   3.610   2.200 -0.0610 -0.0627  0.0739
28912W        W45096   7.946   1.840  12.459  0.1789  0.1867  0.3042
28913W        W45097   6.689  10.773  14.934  0.1206  0.0483 -0.2638
28914W        W45098  12.948   1.177  11.549  0.1498 -0.0990  0.0816
28915W        W45099  15.405   3.657   1.349 -0.1326  0.1459  0.1553
28916W        W45100  16.970  15.452   3.303  0.2452 -0.0495  0.0883
28917W        W45101   2.532   2.275   4.387  0.2699  0.4146  0.0157
28918W        W45102   2.555  10.812  11.739  0.0454  0.5754  0.1981
28919W        W45103  16.625   7.499   4.144  0.0437  0.2064  0.3823
28920W        W45104  15.174  14.103  13.753 -0.1861  0.1094  0.1648
28921W        W45105  17.125   3.598   0.703 -0.2706  0.1147  0.2268
28922W        W45106   5.896   9.643  13.317  0.1107 -0.2635  0.2211
28923W        W45107   9.341   6.903  15.487 -0.0681 -0.1029 -0.1337
28924W        W45108   6.363   2.303  11.393  0.4391 -0.3147  0.1648
28925W        W45109  13.920   3.891  15.519  0.1639 -0.2470 -0.1965
28926W        W45110  13.758  18.397   0.527  0.4663 -0.0041 -0.0031
28927W        W45111  18.608  18.802   3.497 -0.1431 -0.1611 -0.0658
28928W        W45112   1.593  14.840   5.930  0.1771  0.2784  0.0245
28929W        W45113  11.898   5.387   4.521  0.1660  0.1746 -0.0339
28930W        W45114   8.819   5.284  14.519  0.0867  0.1048  0.0899
28931W        W45115  12.209  18.268  13.733  0.2740 -0.0402 -0.0404
28932W        W45116   3.665   5.915  10.273 -0.0754  0.0989 -0.2223
28933W        W45117   6.540   5.278   0.812 -0.1731  0.1034  0.0517
28934W        W45118  18.310   8.537  12.056  0.1450  0.2409 -0.2900
28935W        W45119   8.930   9.076   3.642  0.0796 -0.3412 -0.2516
28936W        W45120   7.477  15.717   4.643 -0.2563  0.1965 -0.0590
28937W        W45121  18.620   1.728   0.102  0.2449 -0.0927 -0.0171
28938W        W45122   5.772  11.599   1.588 -0.0792  0.0712 -0.0283
28939W        W45123  16.733   2.472   0.212  0.2998 -0.1518 -0.0691
28940W        W45124  15.497  17.669   1.594 -0.4307  0.1044  0.0643
28941W        W45125  16.338   7.246  13.434  0.2291  0.1173  0.0294
28942W        W45126  16.486  16.527  14.406 -0.3253  0.1295 -0.2679
28943W        W45127  18.356   8.176   5.141  0.1086  0.1120  0.3567
28944W        W45128  13.162   6.458   4.946  0.1176 -0.0103 -0.5833
28945W        W45129  10.302  11.242  10.921 -0.0336 -0.0426  0.0676
28946W        W45130  11.591   1.570   1.906 -0.2360  0.1891 -0.1325
28947W        W45131   8.694   3.352  14.347  0.1288 -0.0883 -0.1214
28948W        W45132   9.342   7.111  10.906 -0.0795 -0.0144  0.0467
28949W        W45133   2.051  17.814   0.856 -0.1047  0.4030 -0.1156
28950W        W45134  18.177  16.258   0.540 -0.0205  0.1893 -0.2832
28951W        W45135  16.394  18.136   2.341  0.1908 -0.0190 -0.0355
28952W        W45136  18.092  14.772  11.405  0.0285  0.0080 -0.0771
28953W        W45137  15.363  15.460  12.399  0.0965 -0.0995 -0.3291
28954W        W45138  12.286  16.648  13.326 -0.1498  0.0658  0.1675
28955W        W45139   9.844   5.425   2.715  0.2216 -0.2075  0.1505
28956W        W45140  11.149   5.636   1.315 -0.0293 -0.0862  0.0552
28957W        W45141   9.660  17.322  12.038  0.1362 -0.0127 -0.0517
28958W        W45142   4.696  16.283   4.592  0.1460 -0.1991  0.1300
28959W        W45143   0.766   7.616   1.183 -0.0156  0.0418  0.0825
28960W        W45144   1.422   9.414   3.877  0.0276 -0.0068 -0.2933
28961W        W45145  17.184   4.418   9.649  0.1834 -0.0781  0.1436
28962W        W45146   1.617  13.255  13.335 -0.0837  0.0990  0.2052
28963W        W45147   4.840   3.479   0.280 -0.0024  0.1159 -0.0306
28964W        W45148  15.183   0.585  12.748 -0.0826 -0.2791 -0.0965
28965W        W45149   8.103   3.245  11.516  0.2034  0.0736  0.1459
28966W        W45150   8.268  13.542   3.933  0.0062 -0.2525 -0.2681
28967W        W45151   8.365  12.402   1.073  0.3132  0.3779  0.2397
28968W        W45152  16.594  12.320   2.017 -0.0798 -0.2397 -0.1067
28969W        W45153   5.720  14.799  11.283 -0.1493 -0.0762 -0.1177
28970W        W45154  11.827   8.903  13.015  0.1064  0.2827 -0.2867
28971W        W45155   7.816   4.957   2.888 -0.0493 -0.2176  0.1280
28972W        W45156  14.240  16.497  12.795 -0.0732  0.1935  0.0637
28973W        W45157  18.053  15.279  14.278  0.0387  0.3180  0.2145
28974W        W45158   7.547  17.506   0.969 -0.2844  0.2863  0.1158
28975W        W45159   0.406  10.919   1.949  0.1908 -0.1418 -0.1702
28976W        W45160   3.287  11.783   2.346  0.4013 -0.1204 -0.1603
28977W        W45161  13.897   7.959  14.193  0.0490  0.1928 -0.0179
28978W        W45162  14.887  16.035   3.617 -0.0314  0.1321  0.0426
28979W        W45163   3.387  13.524   3.452  0.0413  0.1392  0.1089
28980W        W45164   6.613  10.475  13.527 -0.1463 -0.0234 -0.0752
28981W        W45165   0.645   4.578   3.020  0.2810 -0.0787  0.2815
28982W        W45166   7.139   0.792   4.153  0.3689  0.1868 -0.3984
28983W        W45167  11.129  18.724   5.506 -0.0739  0.1675 -0.0537
28984W        W45168   0.119   3.709   3.308 -0.1197 -0.1131 -0.2953
28985W        W45169  11.148  15.754  13.006 -0.0440 -0.1170  0.0557
28986W        W45170   3.200  16.145   3.700 -0.2421 -0.0530  0.2983
28987W        W45171   6.000   5.374  15.273 -0.0360  0.0793 -0.1764
28988W        W45172  14.571   2.934   4.522  0.1346  0.0454 -0.3219
28989W        W45173  18.731   2.890   5.181  0.2320  0.1257 -0.2112
28990W        W45174  13.012  15.396  13.525  0.1379 -0.3141 -0.1532
28991W        W45175   4.870   5.879   3.759  0.1536  0.0486  0.0617
28992W        W45176  11.266   6.458   3.449 -0.0635 -0.1474 -0.1194
28993W        W45177  14.733  17.147  15.270  0.2864  0.1094  0.3310
28994W        W45178  14.815  12.673  14.001 -0.3026  0.1024 -0.1947
28995W        W45179  11.401   4.544   1.793  0.0279  0.0199 -0.0441
28996W        W45180  11.509   7.865   2.704 -0.0359 -0.0066 -0.0736
28997W        W45181   0.489  11.909   3.768  0.0674  0.2190  0.0902
28998W        W45182   9.620   2.406   5.942  0.0439 -0.1069 -0.0065
28999W        W45183  10.116  11.582   3.494 -0.0675  0.1751  0.1110
29000W        W45184   9.700  10.857   0.961 -0.1067  0.2933 -0.3314
29001W        W45185   1.578  17.843   0.156 -0.0754  0.0005 -0.0170
29002W        W45186   7.086  11.189  12.567  0.0303 -0.3517 -0.0099
29003W        W45187  17.280   5.439   3.283 -0.0355  0.0675 -0.0740
29004W        W45188   8.489  10.859  14.582  0.1065 -0.1007 -0.2807
29005W        W45189  11.838   1.811  13.849  0.1429  0.1144  0.1895
29006W        W45190   3.108  16.675  11.288  0.2516 -0.1186  0.1006
29007W        W45191   4.893   3.204   3.624 -0.0038  0.0482  0.0303
29008W        W45192   5.627  18.220   4.661 -0.1182  0.0081 -0.3748
29009W        W45193  17.805  17.628   0.531 -0.0798  0.3590  0.1390
29010W        W45194  14.677   2.496   2.182 -0.0100  0.2455  0.1119
29011W        W45195  11.409   0.478   3.689  0.0164 -0.0934 -0.1783
29012W        W45196  15.170   2.538  14.383 -0.1333 -0.1795  0.0865
29013W        W45197  14.509   5.964   1.567 -0.1946 -0.1445  0.1319
29014W        W45198  15.514   3.125   0.557 -0.0609 -0.2818 -0.1574
29015W        W45199  17.773   8.761  13.524 -0.0199 -0.2233 -0.1954
29016W        W45200  15.106  11.555  15.122  0.1970 -0.0194 -0.0435
29017W        W45201   5.686  15.340   4.294 -0.2843  0.1410  0.1867
29018W        W45202  16.978  10.402  14.187  0.0812 -0.0869 -0.1749
29019W        W45203  14.637   5.839   2.470  0.2688 -0.1237 -0.1228
29020W        W45204   9.434   7.290  14.081  0.0360 -0.0963 -0.0637
29021W        W45205  12.679  17.045  11.045 -0.2213 -0.1521 -0.2144
29022W        W45206   0.762  11.790   0.699  0.2164 -0.2822  0.3084
29023W        W45207   4.790   5.347   5.040 -0.1052  0.1057  0.2410
29024W        W45208   9.132  12.067   3.224 -0.1553  0.3184 -0.2852
29025W        W45209  16.990  13.733  13.248 -0.2109  0.2339 -0.1032
29026W        W45210   4.217   1.902   4.097  0.1168 -0.0078 -0.2491
29027W        W45211   3.526  15.767  13.053 -0.2023 -0.1618  0.1580
29028W        W45212  10.091   9.787   0.463 -0.0755 -0.0297  0.2356
29029W        W45213   2.270  10.219   2.363  0.1295  0.3520  0.2586
29030W        W45214   6.002   1.677  11.839 -0.0932 -0.0008  0.1434
29031W        W45215  15.870   1.079   1.110 -0.1172 -0.1885 -0.3299
29032W        W45216   4.300  17.266   1.924 -0.1102 -0.0983  0.2409
29033W        W45217   5.988  16.621   2.205  0.3118 -0.0943 -0.0518
29034W        W45218  13.878   8.365  14.433  0.2554  0.3700  0.1671
29035W        W45219  12.451  17.376   1.803  0.1531  0.0062 -0.0089
29036W        W45220  16.524  14.607  14.837 -0.1031  0.0614 -0.1499
29037W        W45221  16.185   8.838  11.208  0.2522 -0.3178 -0.1634
29038W        W45222  15.408  13.710   2.962 -0.0393  0.1258 -0.1634
29039W        W45223   0.889   7.585   0.634  0.0588 -0.0993  0.0056
29040W        W45224  15.896   2.781  13.254 -0.0031 -0.0023 -0.1568
29041W        W45225   1.951   9.836   2.443 -0.1792  0.2081  0.0224
29042W        W45226   6.450  14.878   2.735  0.1990  0.2270 -0.0254
29043W        W45227  17.989  17.389  11.755 -0.1427  0.0724  0.1788
29044W        W45228   4.478   8.583   1.095 -0.1799 -0.0037 -0.1701
29045W        W45229   9.699   9.176  12.546  0.1608  0.3543  0.1909
29046W        W45230   8.984  14.882  15.299  0.2390  0.0359  0.0043
29047W        W45231  16.603  10.739  14.398 -0.2802  0.0909 -0.0971
29048W        W45232   7.945  13.074  14.904  0.0774 -0.1396  0.0530
29049W        W45233  13.302   5.937   1.835 -0.0731 -0.0093  0.1117
29050W        W45234   2.656  11.053   2.486  0.0717 -0.0708  0.0177
29051W        W45235   4.720  13.085   1.391  0.0269  0.1833  0.1942
29052W        W45236  11.544   4.248  12.766  0.1126  0.0674  0.1600
29053W        W45237   7.204  10.195   1.489  0.0271 -0.3111 -0.1596
29054W        W45238  11.762   3.904   2.597  0.1673 -0.1096 -0.0382
29055W        W45239  18.610  17.975  15.180  0.1553  0.3523  0.0386
29056W        W45240   1.822   5.374   4.957 -0.0043  0.0350  0.0562
29057W        W45241  15.394   3.568   0.339  0.0466 -0.3706 -0.0175
29058W        W45242  17.985   6.572  12.357  0.2231 -0.0268 -0.0705
29059W        W45243  11.321  17.569  13.176  0.1002  0.0628 -0.3190
29060W        W45244   3.918  16.218  15.514 -0.1902 -0.2030 -0.1219
29061W        W45245   4.499  14.446   1.744 -0.1489 -0.2990 -0.2116
29062W        W45246  17.415  17.972   2.832  0.1345  0.0937  0.1048
29063W        W45247   6.488   9.214  14.226 -0.0327  0.0941  0.0185
29064W        W45248  15.713  15.415  12.842 -0.0556 -0.0462  0.3298
29065W        W45249   0.932  17.064  14.108  0.0207 -0.0029  0.2190
29066W        W45250   1.376  11.815   3.379 -0.1039 -0.0081 -0.1658
29067W        W45251  11.418   8.500  13.069  0.0149 -0.0268  0.1799
29068W        W45252   6.927   2.781   1.835 -0.0140 -0.0733  0.4504
29069W        W45253   5.324  11.329  10.631  0.2920 -0.0052 -0.0922
29070W        W45254   3.767   9.183   4.600 -0.4234  0.0889 -0.2769
29071W        W45255   8.703  13.983  13.340  0.1676  0.0400 -0.1127
29072W        W45256   8.843   1.865   2.569  0.0280  0.0148 -0.0572
29073W        W45257  18.502  16.359  13.820  0.1038  0.2771 -0.0122
29074W        W45258  13.747   1.635  12.645 -0.0973  0.0423  0.0212
29075W        W45259   5.062   0.943   3.954 -0.1994  0.2069  0.0951
29076W        W45260   2.612  13.775   2.238  0.0063  0.0892 -0.0445
29077W        W45261   6.851  14.759   2.240  0.0397  0.2524 -0.0817
29078W        W45262  13.803  10.467  13.478 -0.2170  0.0036 -0.2820
29079W        W45263  12.547  15.614   3.055 -0.1696 -0.0085 -0.2485
29080W        W45264   2.917  14.866  10.168 -0.0994 -0.0689 -0.2060
29081W        W45265  16.735  16.609   2.570  0.0786  0.2575 -0.2300
29082W        W45266  10.929  15.699  14.300 -0.0270 -0.2358  0.0291
29083W        W45267  18.717   6.419  13.217  0.0980 -0.1428  0.0347
29084W        W45268  11.799   8.396   1.023 -0.0284  0.2692  0.4432
29085W        W45269   7.570   6.505   4.334  0.1228 -0.3017  0.2373
29086W        W45270  14.302  17.777   4.345 -0.0290 -0.2195 -0.1266
29087W        W45271  12.495  18.206  10.633  0.0726 -0.4381  0.1780
29088W        W45272  12.095  11.117   3.103 -0.1808  0.0439  0.0301
29089W        W45273  10.395   8.635  10.534  0.1436  0.4387  0.0247
29090W        W45274   8.980  18.278  13.623 -0.3796  0.0760  0.3327
29091W        W45275   2.114   9.753   3.355  0.0495 -0.2205  0.2541
29092W        W45276   6.589  18.233   2.582 -0.1005  0.2785  0.0247
29093W        W45277   6.648  16.625  11.449  0.1909 -0.1126  0.1864
29094W        W45278   8.758  14.406  15.149  0.1369 -0.5380 -0.2114
29095W        W45279  12.599   6.260   0.737  0.0909 -0.4700 -0.1015
29096W        W45280  15.577  13.862  15.064  0.0035  0.3576 -0.0461
29097W        W45281   4.938   4.303  13.387  0.0659 -0.1678  0.1812
29098W        W45282   3.979  13.580  13.085 -0.1462  0.0123  0.0548
29099W        W45283   7.334   5.050   1.510  0.0964  0.2271 -0.0064
29100W        W45284  14.783   5.771   1.221 -0.3126 -0.0510 -0.0176
29101W        W45285  14.662   6.119   2.007  0.1771  0.0216  0.0020
29102W        W45286  15.251  13.201   3.690  0.1559 -0.0209 -0.1777
29103W        W45287   5.615   8.526  14.949  0.1017 -0.0012 -0.2327
29104W        W45288  15.748  14.750   0.609  0.0166 -0.0915  0.3170
29105W        W45289   1.378  13.137   4.191 -0.2429  0.1010 -0.0123
29106W        W45290  10.983   7.770  12.542  0.1857  0.1620  0.1383
29107W        W45291   1.496  12.454  13.435 -0.1480  0.2438 -0.0738
29108W        W45292  16.537  11.821  13.070 -0.0946  0.0675 -0.2040
29109W        W45293  12.222  17.987  11.093 -0.1613  0.0771  0.2154
29110W        W45294   4.066   9.043   0.446 -0.1225  0.0003 -0.0198
29111W        W45295  16.686  15.221  14.190 -0.1480 -0.0058  0.0902
29112W        W45296   2.660   1.785   4.413 -0.1525  0.1936  0.2739
29113W        W45297   9.598   5.687  10.787  0.0127 -0.2233 -0.1498
29114W        W45298   1.727   7.991   1.056  0.2312  0.3504 -0.4188
29115W        W45299   0.723   9.491   2.753 -0.0880  0.3701  0.4237
29116W        W45300   9.762  15.627  12.932  0.1965 -0.1027  0.3255
29117W        W45301   9.682  17.866   1.869 -0.1451 -0.0577 -0.1368
29118W        W45302   8.193  12.984  13.868  0.2436 -0.1035 -0.0433
29119W        W45303   2.651   5.716   4.582 -0.1108 -0.2145 -0.1546
29120W        W45304   3.858  15.814   4.734 -0.2616 -0.1671  0.1393
29121W        W45305  12.880   0.953  14.325  0.1116  0.1396 -0.0754
29122W        W45306  18.710  18.539  14.533  0.0051 -0.0672  0.2430
29123W        W45307  10.225  11.558  13.321  0.2285  0.1904 -0.0950
29124W        W45308  16.848  12.100   1.117  0.1071 -0.2411 -0.4777
29125W        W45309  13.315   1.455  11.141 -0.4060 -0.0817 -0.1499
29126W        W45310   7.396   8.167  10.545 -0.0654 -0.0630 -0.0103
29127W        W45311   6.548   0.806  13.742  0.1814 -0.2223  0.2787
29128W        W45312   0.846   7.882  15.449  0.0200  0.0671 -0.1340
29129W        W45313   5.414  17.602   0.612 -0.0532 -0.2579  0.0293
29130W        W45314  18.827  18.637  11.921 -0.1821 -0.1279  0.3091
29131W        W45315   1.688  14.721  12.645 -0.3233  0.0830 -0.0680
29132W        W45316   4.432  15.163   2.316 -0.0706 -0.1726 -0.0562
29133W        W45317  11.525   3.891   2.155 -0.0689  0.1632 -0.2318
29134W        W45318   2.333  15.768  11.412 -0.3600  0.0064  0.0125
29135W        W45319  14.480   0.851   4.531  0.1152 -0.1524 -0.3604
29136W        W45320   0.621  18.562   1.192 -0.0436 -0.0302 -0.2789
29137W        W45321   9.047   0.507  14.417  0.1566 -0.0157  0.0362
29138W        W45322   4.217  15.638   0.688 -0.1956  0.0695  0.4500
29139W        W45323  10.312   1.892   1.017  0.3842 -0.3644 -0.1305
29140W        W45324   3.980   4.881   5.696  0.1411 -0.2994 -0.2566
29141W        W45325   2.457   2.796  14.303 -0.4068  0.0440 -0.3394
29142W        W45326   6.532   9.070   1.534 -0.1609  0.0251 -0.2242
29143W        W45327   5.993  16.173  13.231  0.0794  0.0542  0.0243
29144W        W45328   4.372  10.444  13.789  0.0082 -0.0113  0.1996
29145W        W45329   9.967   9.069   4.184 -0.0403 -0.0535 -0.0525
29146W        W45330  16.591  14.315  12.851 -0.1884 -0.1599  0.0277
29147W        W45331   8.390   0.923  15.179  0.1274  0.0357 -0.0352
29148W        W45332  11.616   5.599  12.522 -0.1257  0.1216  0.0015
29149W        W45333  18.276   4.488  14.420 -0.2117 -0.2398  0.2529
29150W        W45334  10.187   9.389  11.890  0.3630 -0.2508  0.3056
29151W        W45335   0.584   9.817  11.350  0.0795  0.2927 -0.1232
29152W        W45336  12.984   6.968   5.293  0.1343  0.0837  0.1346
29153W        W45337  13.924  14.479  12.046  0.0992  0.0153  0.3042
29154W        W45338   9.727   8.371  14.763  0.0487  0.2404  0.2817
29155W        W45339  10.614   2.203  11.695 -0.3110  0.0407 -0.0797
29156W        W45340   5.988  10.782   0.581  0.3471 -0.0065 -0.2499
29157W        W45341   3.068  15.351   3.087  0.2270  0.2210  0.1023
29158W        W45342  14.167  11.108   4.280 -0.0555  0.2331 -0.1190
29159W        W45343   4.437  10.404  11.094 -0.0769 -0.0540 -0.1721
29160W        W45344   7.398   2.019  12.223  0.3683  0.2109  0.1339
29161W        W45345  14.802  15.712   2.350  0.0346  0.1202  0.0316
29162W        W45346   0.392  17.957  13.920 -0.0905 -0.3716  0.1835
29163W        W45347   0.232   7.885  10.628 -0.2189  0.1529  0.1922
29164W        W45348   3.504  11.214   4.054  0.2710  0.0918  0.1500
29165W        W45349  10.185  17.500   3.104  0.0811 -0.0117  0.5080
29166W        W45350   4.065  15.183  11.773 -0.4508 -0.1286 -0.1828
29167W        W45351   3.685   7.184   0.523  0.0655  0.3755 -0.0842
29168W        W45352   9.094  13.804  13.538 -0.0282 -0.2328  0.0728
29169W        W45353  17.936   8.593  15.341 -0.1332  0.2422  0.0450
29170W        W45354  17.497  11.319  14.875  0.3793 -0.3036  0.1391
29171W        W45355  17.485  11.198  15.355 -0.2027  0.2607  0.0343
29172W        W45356   9.139   6.580  10.850  0.3405  0.1454 -0.0276
29173W        W45357   4.156   9.055   4.237 -0.0161  0.0865 -0.1913
29174W        W45358   7.557  10.798  14.486 -0.0834  0.0544  0.1635
29175W        W45359   5.764  13.187  10.878  0.0757 -0.0925 -0.2059
29176W        W45360   2.255   0.579  13.634  0.0305  0.2367  0.1403
29177W        W45361  10.778   7.587   4.775  0.0039  0.1810  0.1341
29178W        W45362   2.120   9.441   2.964 -0.3628 -0.0076  0.1729
29179W        W45363  15.033  11.263  13.156  0.1079  0.1457  0.0122
29180W        W45364  18.324   6.238  10.796  0.1139  0.0548  0.0261
29181W        W45365  16.207   0.067   3.997  0.0284 -0.0811  0.3572
29182W        W45366  13.959   7.381  14.907  0.0721 -0.2377 -0.0591
29183W        W45367  17.365  16.183   0.128  0.0257  0.1160  0.1624
29184W        W45368   9.607   0.634   3.485  0.1393 -0.0607 -0.1470
29185W        W45369   6.826  14.572   3.029  0.2486 -0.0104  0.2860
29186W        W45370   3.940  13.351  14.333 -0.2771 -0.2045 -0.1030
29187W        W45371   9.460   7.379   2.178 -0.0405 -0.1174 -0.0514
29188W        W45372   5.999  14.059  11.004  0.2785 -0.0335 -0.4805
29189W        W45373   1.514  17.975  13.238 -0.0023  0.1875 -0.3968
29190W        W45374  16.800  17.902  13.831 -0.1342  0.2521 -0.0439
29191W        W45375   1.156   6.345   2.414 -0.0296  0.2335  0.0200
29192W        W45376  12.198   0.991   4.756 -0.2041  0.0607  0.0386
29193W        W45377   1.308   6.053  11.829 -0.1043  0.0786 -0.1164
29194W        W45378  13.216   3.054   2.744  0.2519 -0.0182  0.1031
29195W        W45379  17.865  12.599   0.285  0.0719  0.0515 -0.1528
29196W        W45380  13.812   2.059  14.413 -0.0721  0.1341  0.1105
29197W        W45381  17.893  18.223   3.057  0.1161 -0.1243  0.0124
29198W        W45382   3.527   2.423   1.132 -0.5212  0.4437 -0.3461
29199W        W45383   1.483   7.119  11.607  0.1491  0.2090  0.2641
29200W        W45384   6.038   1.085  12.507  0.1387 -0.0136  0.1850
29201W        W45385   9.687  13.870   3.365  0.2550 -0.1706 -0.1660
29202W        W45386  14.745  14.137  14.536  0.0580  0.0576  0.1302
29203W        W45387  12.329   0.830   0.920  0.0887 -0.1399 -0.0993
29204W        W45388   7.776   7.620   1.432  0.1484 -0.0762  0.2331
29205W        W45389   2.656  14.570  10.506 -0.0436  0.1486 -0.2927
29206W        W45390  11.021  10.140  14.894  0.0259  0.0601 -0.2309
29207W        W45391   9.420   7.887   0.533 -0.1887 -0.0649 -0.0300
29208W        W45392  10.307  16.627  11.522  0.5572 -0.0092 -0.2140
29209W        W45393   8.965   4.840  14.245  0.0048 -0.2072  0.2677
29210W        W45394  16.661  13.880   4.636 -0.3166 -0.0152 -0.1415
29211W        W45395   8.235   2.692   4.143  0.1150  0.0791  0.0554
29212W        W45396   7.006   1.281  14.362  0.0040 -0.5800 -0.0455
29213W        W45397  18.804  13.235   3.668 -0.1354  0.1160 -0.1194
29214W        W45398  12.341   1.655  13.057  0.2670 -0.1707 -0.0841
29215W        W45399  18.131  17.244   3.287 -0.3586 -0.0361  0.1969
29216W        W45400  18.219  16.487  14.197  0.1383  0.2502 -0.1008
29217W        W45401   6.539  14.892  10.897  0.0878  0.3328 -0.0649
29218W        W45402  12.395  11.397  11.076 -0.0296  0.1818  0.4681
29219W        W45403  10.912  16.206   1.631 -0.0398  0.2113 -0.2507
29220W        W45404  17.900  15.142  13.820  0.1130 -0.0639 -0.0362
29221W        W45405   2.538  11.509   2.088  0.3456 -0.0840  0.0254
29222W        W45406  16.979   0.828   3.468  0.0068  0.0513 -0.0541
29223W        W45407   3.737   0.199   0.955  0.2856  0.2151 -0.0977
29224W        W45408  11.405   6.104   6.081 -0.0132 -0.1647 -0.1400
29225W        W45409  11.901  13.270  14.022  0.0257  0.4195  0.0767
29226W        W45410   9.460   1.892   2.801  0.4228 -0.2404  0.0292
29227W        W45411   2.386  15.788  14.150 -0.1094  0.0328 -0.0720
29228W        W45412  15.217   6.182  12.407  0.0104 -0.2872 -0.2326
29229W        W45413   8.527   8.450  10.375 -0.2129  0.1079  0.3116
29230W        W45414   8.609   2.178  11.674  0.3662 -0.0166 -0.3223
29231W        W45415  12.874  10.929  15.281  0.0271 -0.1421 -0.1260
29232W        W45416   1.343  15.360   4.757 -0.1889  0.6398 -0.2070
29233W        W45417  15.893  15.703  14.160  0.1221  0.1002  0.0977
29234W        W45418  12.727   1.415   0.459 -0.0548  0.3121 -0.0090
29235W        W45419   1.583   7.259   0.085 -0.1445 -0.0392  0.1073
29236W        W45420   6.357   5.595  15.479  0.0836  0.2047  0.2677
29237W        W45421  10.495   4.067  15.019  0.0699 -0.0817 -0.0216
29238W        W45422  10.741   7.545   2.494  0.0183  0.0770 -0.0077
29239W        W45423  14.869   6.642   3.363  0.1767 -0.1549  0.1198
29240W        W45424   8.467  12.459   4.832  0.3619  0.0984 -0.1623
29241W        W45425  14.843  15.168   4.594  0.0397  0.0844  0.1137
29242W        W45426   6.019  12.276  11.020  0.0387  0.1751 -0.0396
29243W        W45427  10.744  16.316   4.713 -0.0985  0.1291  0.0592
29244W        W45428   6.472  15.670  12.593 -0.0957  0.1727 -0.0604
29245W        W45429  10.300   0.823   2.319 -0.2091 -0.3042 -0.3345
29246W        W45430   5.741  12.789  11.566 -0.0597 -0.1124 -0.0948
29247W        W45431   1.239  13.526  15.132 -0.3255 -0.0115  0.0324
29248W        W45432   3.044  13.219   3.913 -0.2278 -0.1766  0.2029
29249W        W45433  17.271   8.779  11.935 -0.2651  0.0044  0.2630
29250W        W45434  18.072   5.483  14.853  0.0126  0.2774 -0.0930
29251W        W45435  12.696  14.472   0.036 -0.1089 -0.1677  0.0410
29252W        W45436  12.372   8.045   1.173 -0.0551  0.1389  0.2173
29253W        W45437   0.253   3.137  13.240 -0.1383 -0.1406  0.1196
29254W        W45438  15.767   2.864  12.718 -0.1960  0.0909  0.0822
29255W        W45439   3.228  10.256   4.294 -0.1580 -0.1608 -0.1356
29256W        W45440  17.980  13.719   2.518  0.1487  0.1113  0.1327
29257W        W45441   3.609   0.635  10.586  0.2632 -0.3744  0.0739
29258W        W45442  18.508  13.671   3.614  0.0525  0.0154  0.1187
29259W        W45443   9.859   7.553   5.303  0.4883  0.1772 -0.0972
29260W        W45444   7.096   1.110   5.714 -0.2972  0.1963 -0.3310
29261W        W45445  13.353   4.880  12.104  0.1475  0.0972  0.0978
29262W        W45446  15.700  12.270   3.274 -0.3138 -0.2317 -0.0977
29263W        W45447   9.428   1.965  14.055  0.0877 -0.0283  0.0140
29264W        W45448   0.477   9.679  15.126  0.2191  0.0739 -0.1127
29265W        W45449   6.070  15.236  11.970 -0.1612  0.1788  0.0222
29266W        W45450  12.816   1.837  15.462 -0.0906  0.2197  0.0447
29267W        W45451   9.224  12.849  12.470  0.0311 -0.1221 -0.1766
29268W        W45452  10.917   2.762  12.518 -0.0164 -0.0315 -0.0660
29269W        W45453  14.174   4.766   1.785  0.0531 -0.0867 -0.0989
29270W        W45454  13.189   5.724  11.523 -0.0891 -0.1287  0.0251
29271W        W45455   3.706   8.252   1.893  0.0040 -0.0108 -0.0347
29272W        W45456  13.451  13.573   0.773  0.3626  0.3734 -0.3158
29273W        W45457  16.677   0.668  11.949  0.1190 -0.0810  0.2513
29274W        W45458   4.301  12.821   3.358 -0.2530  0.2647 -0.1137
29275W        W45459   5.219   5.415  14.601  0.0680 -0.1223 -0.3617
29276W        W45460   1.104   8.806  15.432 -0.1183 -0.1901 -0.0333
29277W        W45461   9.120   5.383   0.665 -0.0709  0.1472  0.2328
29278W        W45462   6.623   2.551   5.900 -0.0696 -0.0498  0.1212
29279W        W45463  14.861  15.359  14.045  0.1381  0.3336  0.1278
29280W        W45464  11.794   7.615  14.571 -0.0251  0.1427 -0.3985
29281W        W45465   9.959  15.818  12.462  0.1670 -0.2041  0.1656
29282W        W45466  10.398  18.131  11.287  0.1145  0.0629  0.3195
29283W        W45467   2.717  11.317   1.315  0.0905 -0.2552 -0.1845
29284W        W45468   3.061  10.494   0.520  0.2057  0.2249 -0.1105
29285W        W45469  18.724   4.906   2.825 -0.2162 -0.0624 -0.0367
29286W        W45470  14.997   4.182  12.692  0.1851 -0.2793  0.0121
29287W        W45471  13.421  12.591   0.643  0.0657  0.1382 -0.1207
29288W        W45472  12.800  13.214  12.128 -0.0785  0.0503 -0.2456
29289W        W45473   2.393  14.097   2.597  0.0091  0.2396  0.1859
29290W        W45474  10.871  17.465  10.740  0.1358  0.0074  0.0221
29291W        W45475   7.687  14.654   2.174  0.0320 -0.2894  0.0690
29292W        W45476   3.179  13.215  11.305  0.1399  0.0296  0.1093
29293W        W45477   0.980   8.301   1.895 -0.3634 -0.3023  0.0054
29294W        W45478   6.813  16.580   0.975  0.2437  0.1467  0.1104
29295W        W45479  13.840   5.576   4.960 -0.0330  0.4570 -0.0325
29296W        W45480  11.713   5.290  11.532 -0.1147 -0.0423 -0.1886
29297W        W45481  11.643  12.629   1.113  0.0834  0.2169 -0.2353
29298W        W45482   0.132  14.757  15.222 -0.0257 -0.2380 -0.4747
29299W        W45483   3.194   2.413  14.595 -0.0756  0.1352  0.0719
29300W        W45484   6.277   6.510  13.484 -0.0447 -0.1101  0.3181
29301W        W45485  16.641  13.214  12.605  0.1482  0.2345 -0.0334
29302W        W45486  18.330   7.229  14.826  0.1455  0.0515  0.3387
29303W        W45487   8.656   0.784  12.479 -0.1366  0.0158  0.2552
29304W        W45488   0.523  12.281  12.149 -0.0213  0.1687 -0.3725
29305W        W45489   7.701  13.736   0.640 -0.1256  0.2275 -0.1413
29306W        W45490  13.043  18.017   0.237  0.1969  0.1523 -0.2248
29307W        W45491   8.953  16.360  14.344 -0.2983 -0.0398 -0.1374
29308W        W45492  15.037   2.018   0.812 -0.2438  0.0623  0.0948
29309W        W45493   3.075  17.540  10.144 -0.0806 -0.1186 -0.1609
29310W        W45494  18.264   9.524   2.074 -0.0030  0.1650  0.1287
29311W        W45495   8.864  13.006   2.081  0.0525 -0.0675 -0.0300
29312W        W45496  11.712  17.978   5.020  0.2187  0.1323  0.0709
29313W        W45497   5.694   3.567  10.678  0.0937  0.1359 -0.3714
29314W        W45498   4.175  16.609   4.768  0.2469  0.2915 -0.1194
29315W        W45499   7.497  14.941   5.028  0.1485  0.4234  0.1955
29316W        W45500   6.264  15.434   2.028 -0.2695 -0.2304  0.0453
29317W        W45501   4.724  12.562  10.723 -0.0775  0.1407 -0.0453
29318W        W45502  17.947   0.801   5.284 -0.2179  0.0033 -0.1352
29319W        W45503  13.558   7.542  13.017  0.0901  0.1131 -0.0129
29320W        W45504  16.705  16.070   3.679  0.2307 -0.1179 -0.0221
29321W        W45505   5.641  10.624  11.211  0.0556 -0.1592  0.1102
29322W        W45506   2.075   8.137   3.329 -0.3367  0.0681 -0.0348
29323W        W45507  10.388   2.066  11.194 -0.0114 -0.0841  0.1338
29324W        W45508  14.908  10.726  13.020  0.0144  0.0983  0.2874
29325W        W45509  17.197   0.939   3.944 -0.2444 -0.0092 -0.1342
29326W        W45510   2.248  11.903   3.512 -0.1506 -0.1627 -0.1799
29327W        W45511  16.626  13.692   0.867 -0.2393 -0.0457  0.5199
29328W        W45512  10.870   2.430   3.787 -0.2867  0.0622 -0.0359
29329W        W45513  11.529  12.752  11.509 -0.1882 -0.0493  0.1482
29330W        W45514   1.139   5.628  13.752  0.2224  0.5914  0.3478
29331W        W45515  13.117  13.153  15.304  0.0190  0.3967 -0.3185
29332W        W45516   4.310   4.190   2.970 -0.1063  0.0460 -0.1920
29333W        W45517   0.786  10.698   1.663  0.2227 -0.4686  0.1821
29334W        W45518  11.981   4.267   4.028 -0.1399 -0.0196  0.1550
29335W        W45519   2.790   8.188  14.994 -0.1776 -0.0449 -0.0838
29336W        W45520  16.661  13.515  13.537  0.4548 -0.0008  0.1081
29337W        W45521  17.022  12.525  14.541  0.3303  0.2565  0.2189
29338W        W45522  18.346   6.401  12.581  0.2783  0.1963 -0.0951
29339W        W45523  17.464   5.057  13.190 -0.2508  0.1860  0.2964
29340W        W45524   7.176   0.255   0.864  0.0087  0.3139 -0.0602
29341W        W45525  15.897  12.552   4.378 -0.3616  0.2402 -0.1100
29342W        W45526   0.053   6.335  12.349 -0.1152 -0.0288 -0.0382
29343W        W45527   8.361   5.019   1.624 -0.2734  0.0842 -0.0018
29344W        W45528  17.443  16.855   1.167  0.0625 -0.1208  0.0524
29345W        W45529   8.331  17.550  14.032 -0.1703  0.0143 -0.1852
29346W        W45530   8.034  16.350  12.744  0.2635 -0.0153  0.0192
29347W        W45531   2.694   3.284  14.011  0.2297 -0.1717 -0.0629
29348W        W45532   1.342   2.491   2.660  0.1311 -0.0589 -0.1440
29349W        W45533  15.635  17.470  10.753  0.0098 -0.0966 -0.0089
29350W        W45534  16.356   7.567   3.424 -0.1315  0.1404  0.0699
29351W        W45535   3.783  17.533   5.493 -0.0875 -0.1871 -0.0450
29352W        W45536   6.748   0.467  12.822  0.2353  0.2507 -0.2916
29353W        W45537   9.033   5.546   1.133 -0.0809 -0.0423  0.0271
29354W        W45538  10.263  17.401  13.009  0.0092  0.0073 -0.1788
29355W        W45539  16.741   1.713   2.521  0.1098  0.0858  0.2727
29356W        W45540   0.952  12.927   2.416 -0.1872  0.1349  0.2358
29357W        W45541   0.209   4.454   5.624  0.2361  0.2162  0.3408
29358W        W45542  10.165   1.661  14.730 -0.0043 -0.1402 -0.2307
29359W        W45543   6.819  12.807   1.718 -0.0491 -0.2586  0.0640
29360W        W45544  12.026   3.343  11.171 -0.3624 -0.1695  0.3323
29361W        W45545   5.266   7.415   2.890  0.0363  0.1833  0.3833
29362W        W45546  16.958  14.780  14.494  0.1318  0.0180 -0.0626
29363W        W45547  16.241   6.480  11.339 -0.2339  0.0027 -0.1933
29364W        W45548  16.140  12.230  14.295 -0.2123 -0.1365  0.0302
29365W        W45549   8.681   2.319  12.159  0.3920 -0.0172  0.1933
29366W        W45550   8.561   6.545   3.358 -0.0634 -0.1714 -0.2107
29367W        W45551  15.358   3.510  14.622 -0.3568 -0.0922  0.1068
29368W        W45552   6.079   2.241  13.960 -0.0946 -0.1672 -0.1391
29369W        W45553  11.721   5.441   0.621  0.0564  0.3589  0.0907
29370W        W45554   0.597  18.177   4.830  0.0309  0.0809 -0.2263
29371W        W45555  11.097   7.333  11.446 -0.2562 -0.1315 -0.1669
29372W        W45556  11.511   7.108   4.760  0.3566  0.1001 -0.2142
29373W        W45557   1.040   3.560  13.671 -0.1451  0.1490  0.0539
29374W        W45558  11.579   2.877   4.157 -0.3221  0.0604 -0.0260
29375W        W45559  10.829   9.329   0.907  0.3639 -0.0649 -0.2564
29376W        W45560   2.105  18.106   1.425 -0.1481 -0.1132  0.1971
29377W        W45561  12.580  12.401   0.219 -0.0013  0.1778  0.0997
29378W        W45562   5.894  18.445   2.472  0.3597  0.1265 -0.0965
29379W        W45563   3.323  15.086   0.281  0.2961  0.4657  0.0920
29380W        W45564   2.826  12.905  12.966  0.2366 -0.3722  0.0372
29381W        W45565   3.637  12.947  15.421  0.0001 -0.1374 -0.0688
29382W        W45566  17.597  10.687   2.311  0.0892 -0.1057 -0.0482
29383W        W45567   7.546  16.931  15.229 -0.0345 -0.0982 -0.0261
29384W        W45568   7.918  15.983   5.791 -0.1162  0.2043 -0.1184
29385W        W45569  11.097  13.080  11.227 -0.0325  0.1807 -0.1083
29386W        W45570  10.278  16.234   0.836  0.0164  0.1160 -0.2215
29387W        W45571  13.324  11.314   4.530 -0.3024 -0.1201 -0.0305
29388W        W45572  17.784  16.126   4.783 -0.3121 -0.1245 -0.0297
29389W        W45573  15.225  17.156  12.188 -0.3284 -0.1180 -0.0901
29390W        W45574   7.877  18.608  14.196 -0.1058 -0.0401 -0.0609
29391W        W45575   6.947   1.967  12.841  0.0718 -0.1086  0.0273
29392W        W45576  11.381   6.435  15.287 -0.1342 -0.1328  0.1451
29393W        W45577  18.717   9.182  12.251  0.0024  0.1277  0.1313
29394W        W45578   0.913   1.959  15.018  0.1198  0.1002 -0.0585
29395W        W45579   2.416  10.161   5.408 -0.0121  0.1274 -0.0774
29396W        W45580   1.900  12.401   0.338  0.2607  0.1607 -0.1523
29397W        W45581  17.799  13.222  13.747  0.1014 -0.1215 -0.1544
29398W        W45582   3.180   8.243   1.697 -0.0909  0.2860 -0.1286
29399W        W45583   4.523   0.508  15.500  0.1148  0.2047 -0.1987
29400W        W45584   2.702   3.160  13.520  0.1333 -0.1854 -0.0378
29401W        W45585   2.059  10.031  14.421 -0.1179  0.1205 -0.2707
29402W        W45586  16.374  18.477   5.731  0.0601 -0.1778  0.1736
29403W        W45587  12.934  12.051   3.923  0.0649  0.1573  0.1074
29404W        W45588  14.080  16.968  11.949  0.0337  0.2660 -0.2758
29405W        W45589   9.052   7.072  13.504 -0.2422 -0.4888  0.1367
29406W        W45590  15.312  15.027  12.602  0.0612  0.1545 -0.1716
29407W        W45591   3.352  11.756   5.781 -0.3306  0.0550 -0.0428
29408W        W45592  16.995   3.003  10.923 -0.4180 -0.0845  0.1132
29409W        W45593   5.118  13.701  15.500 -0.2007  0.1205 -0.3527
29410W        W45594   5.579  15.875   0.366 -0.1203 -0.1877  0.2908
29411W        W45595  17.041   5.083  14.838  0.0971  0.2077 -0.0669
29412W        W45596   2.005   9.906  10.888 -0.2625  0.1189  0.1381
29413W        W45597   2.689   0.709   5.540 -0.1437 -0.1118 -0.1258
29414W        W45598   1.734   0.543  14.846  0.1618  0.1146 -0.1721
29415W        W45599  17.697   5.701  12.658 -0.1079 -0.0351 -0.0357
29416W        W45600   7.355  12.520  14.158  0.3265  0.0633 -0.4643
29417W        W45601  10.518  14.154   4.221  0.0994 -0.0449  0.1752
29418W        W45602   7.340   8.597   3.680 -0.2090 -0.0817  0.0984
29419W        W45603   0.978  16.159  14.206 -0.0243  0.0622 -0.2662
29420W        W45604   6.241  16.052  15.180 -0.1777  0.2007  0.0485
29421W        W45605  12.220  11.733  11.408 -0.1678  0.1812  0.4125
29422W        W45606   4.240   1.319   2.290  0.1389 -0.1839  0.0639
29423W        W45607  11.312   8.864   2.317 -0.1649  0.3464  0.0321
29424W        W45608  10.643  18.505  14.683 -0.1553  0.1803  0.0988
29425W        W45609  10.411  14.989   1.246 -0.0962  0.2116 -0.0301
29426W        W45610   3.347  13.850   2.977  0.1836 -0.1232 -0.2666
29427W        W45611   5.203  10.578   0.110  0.0821  0.0892  0.3065
29428W        W45612  14.732   1.611  12.599 -0.0736 -0.0989  0.0519
29429W        W45613  13.392   3.984   2.878  0.3165  0.0334 -0.3677
29430W        W45614   7.055  15.621   1.409 -0.3281  0.0762  0.3209
29431W        W45615  17.130   2.817  12.036  0.0911  0.0717  0.0741
29432W        W45616   2.793   0.079  10.659  0.0551 -0.0971  0.2019
29433W        W45617  18.789   0.611  14.691 -0.2217 -0.0855 -0.1770
29434W        W45618   9.202   9.584   1.770  0.0903 -0.0589 -0.3215
29435W        W45619  12.861   9.356   1.291 -0.0850  0.0460  0.0310
29436W        W45620  14.331   1.856   2.471 -0.1813 -0.1436 -0.0412
29437W        W45621  16.620   1.940  12.128  0.4970  0.0140 -0.1341
29438W        W45622   0.985  14.299  14.468 -0.0223 -0.1627  0.1204
29439W        W45623  17.417  17.687  15.257  0.2175  0.0016  0.0164
29440W        W45624   9.016   9.827   3.301 -0.0611  0.1420  0.1529
29441W        W45625  17.772  17.097   4.447 -0.0477  0.2124  0.0002
29442W        W45626   2.466   1.308  11.276  0.0520 -0.1345 -0.0492
29443W        W45627  16.920   8.148   9.500 -0.1070 -0.0586  0.1623
29444W        W45628   6.873   7.560   2.832  0.0631  0.1737  0.1090
29445W        W45629  18.503   9.838   0.641  0.2596 -0.2723 -0.1734
29446W        W45630  17.574  11.540  14.293 -0.0325 -0.1796 -0.0839
29447W        W45631   6.010   4.328  11.665  0.0499  0.1721  0.0910
29448W        W45632  11.115  14.971   1.786  0.1163 -0.0038  0.0657
29449W        W45633   2.490   2.308   0.252  0.0034  0.0077 -0.0856
29450W        W45634   1.959   6.413  10.858 -0.0709  0.0534 -0.1130
29451W        W45635  16.719  17.024  12.614 -0.2673  0.1340 -0.1966
29452W        W45636   2.911  15.745   0.524 -0.2048 -0.1685  0.1035
29453W        W45637   9.389   4.632  14.611 -0.0934 -0.2962 -0.3561
29454W        W45638  10.504  18.476  13.766  0.2412  0.1093 -0.1959
29455W        W45639  15.962   3.228   3.708  0.2273 -0.1193  0.3856
29456W        W45640  16.398  13.600  12.405  0.0581 -0.3919  0.3564
29457W        W45641   7.908  18.769  12.924 -0.2646  0.1982  0.2718
29458W        W45642   4.942   8.768  14.437  0.2649  0.0632  0.0069
29459W        W45643  15.259  15.823  14.778 -0.2021  0.1475  0.1047
29460W        W45644   5.224  12.882   0.470  0.0891  0.0094 -0.0710
29461W        W45645   3.655  10.191   5.032  0.0873  0.0130 -0.2921
29462W        W45646   2.741   3.731   1.558 -0.1584  0.1878 -0.0669
29463W        W45647   2.557   3.302   1.607 -0.0041 -0.0990  0.2023
29464W        W45648   4.104  10.325   0.946  0.1753 -0.0547 -0.0052
29465W        W45649   6.023  13.555  13.194 -0.4814 -0.0417  0.0217
29466W        W45650  13.823  12.282   2.239  0.0871  0.1291  0.0932
29467W        W45651   8.780  16.713   2.058 -0.1345  0.1011  0.0999
29468W        W45652   8.253   2.784   2.908 -0.1710 -0.1302 -0.2566
29469W        W45653  10.187   0.270   1.068 -0.0485 -0.3095 -0.0655
29470W        W45654   5.842   2.026   0.229 -0.2318  0.1427 -0.1810
29471W        W45655   4.614   1.120   2.030  0.0260 -0.0346  0.1204
29472W        W45656   4.025  12.405  14.221  0.0880  0.2903  0.2532
29473W        W45657  18.010   8.560   2.368 -0.0155 -0.1173  0.1296
29474W        W45658   9.509  12.445   3.993 -0.1278  0.3791  0.2650
29475W        W45659   9.672  13.102   1.432 -0.0984  0.0444  0.2468
29476W        W45660  12.253   4.153   2.564 -0.0173 -0.0860 -0.0253
29477W        W45661  16.387  13.047  13.891 -0.0715 -0.2019 -0.1820
29478W        W45662  12.250  10.277  12.665  0.0408 -0.2599 -0.1164
29479W        W45663  14.333   2.943   2.607  0.1888  0.2084  0.0005
29480W        W45664   7.203  10.350   1.960 -0.2023  0.3080  0.0214
29481W        W45665   5.513  16.237  15.536  0.0370  0.0951  0.1221
29482W        W45666   1.595   6.253   4.165  0.1229  0.1587  0.1692
29483W        W45667  15.504   8.284   5.714  0.0260 -0.0240  0.3296
29484W        W45668  17.564   6.256   1.188  0.1001  0.2530 -0.0915
29485W        W45669  14.272   2.651   3.024  0.1028 -0.0879  0.0492
29486W        W45670  15.019   0.107  14.440  0.0818  0.0961 -0.3448
29487W        W45671   1.688   6.552   2.383 -0.2999 -0.0647 -0.1672
29488W        W45672  15.625   3.195   1.099  0.1582 -0.0069 -0.0907
29489W        W45673   7.368  10.719   0.253  0.2011  0.0372  0.1051
29490W        W45674   6.245  15.334  13.739  0.1824 -0.0486 -0.0678
29491W        W45675  11.349   5.127   5.735 -0.0054  0.0105  0.0393
29492W        W45676   6.168   1.412  14.370  0.1966  0.0043 -0.1888
29493W        W45677   5.661  14.022   1.089 -0.0843 -0.4040  0.1635
29494W        W45678   8.152   8.204  13.758 -0.4386 -0.5868 -0.4197
29495W        W45679  17.253   6.658   3.393  0.2382 -0.3794  0.3185
29496W        W45680  15.787  16.947  12.848 -0.0121 -0.2523 -0.4974
29497W        W45681   4.605   1.026  11.864 -0.0908 -0.2339  0.1331
29498W        W45682  11.258  18.141   4.915  0.2305  0.0748  0.0867
29499W        W45683  17.924  18.009   2.131  0.3031  0.1453 -0.3294
29500W        W45684  12.245   6.168  13.484  0.0566 -0.0195 -0.1183
29501W        W45685  12.014   1.796  15.460  0.1610 -0.1316 -0.0477
29502W        W45686  18.257  11.491  13.274 -0.0092 -0.0464 -0.0851
29503W        W45687   2.621   0.916   1.413 -0.0193  0.0699 -0.0342
29504W        W45688   5.934   2.175   2.742 -0.0602 -0.1141  0.3437
29505W        W45689   5.021   8.470   1.079  0.2294 -0.3462 -0.0604
29506W        W45690  18.412   1.361   0.479  0.2201 -0.1577  0.0913
29507W        W45691   5.951  16.131   2.025 -0.2116 -0.3496  0.1788
29508W        W45692   0.086  16.229  10.668 -0.0877  0.0949  0.0794
29509W        W45693   7.862   5.121   1.556  0.1055  0.0109 -0.0213
29510W        W45694  11.343  13.175  13.734  0.4171 -0.0490 -0.0524
29511W        W45695  14.768   0.845  11.951 -0.1703 -0.1608  0.1256
29512W        W45696   1.302   1.818  14.780  0.3850 -0.2989  0.0524
29513W        W45697  15.082   6.573  14.430 -0.0170  0.0288  0.2448
29514W        W45698  13.544  17.474   4.277  0.3059  0.0206  0.3855
29515W        W45699   8.617  18.395   4.392 -0.1479 -0.0264 -0.0582
29516W        W45700  15.014   7.241   1.411 -0.1732  0.0229 -0.2275
29517W        W45701  15.648   3.587   2.352  0.2746 -0.0793  0.0076
29518W        W45702   2.654   8.134   2.047  0.0155  0.0233 -0.0061
29519W        W45703   8.201  11.688   5.029 -0.0697  0.1242  0.2077
29520W        W45704   2.342  17.422  15.528 -0.3227 -0.1263 -0.0122
29521W        W45705   7.609   0.560  15.178  0.0322 -0.1660 -0.0453
29522W        W45706  17.360  12.510  13.056 -0.0363  0.0863 -0.1015
29523W        W45707  10.318  16.659   9.612 -0.0545 -0.0266  0.0177
29524W        W45708  12.215   5.347   3.323  0.0954 -0.3021  0.3273
29525W        W45709  12.567   9.255  14.658  0.1604  0.0077 -0.0772
29526W        W45710  11.016  17.325  14.779 -0.3195  0.1900  0.0170
29527W        W45711   3.907   3.395   4.016 -0.2834  0.3538 -0.0466
29528W        W45712   8.704   8.692   1.554  0.0195 -0.0076 -0.0315
29529W        W45713  10.955   5.124  13.807  0.2450 -0.0770 -0.0209
29530W        W45714   3.025   9.975   1.457  0.0328 -0.1667  0.0086
29531W        W45715   9.770  18.736  13.226 -0.0844  0.1338  0.1182
29532W        W45716  13.245  16.068   1.409  0.2556 -0.3436 -0.0393
29533W        W45717  16.509  16.167   4.829 -0.2255  0.2450  0.1420
29534W        W45718   3.808  13.426  12.036 -0.1316  0.0226 -0.0216
29535W        W45719  16.042  12.253  10.677 -0.1569 -0.1686  0.0503
29536W        W45720  12.328  17.052  14.043  0.1967 -0.2970  0.1005
29537W        W45721   5.791  18.066   1.257 -0.1820 -0.1551  0.2609
29538W        W45722   6.848   2.618   3.734 -0.4361 -0.2105 -0.0467
29539W        W45723  14.428   3.828   0.151  0.0990  0.0739  0.0844
29540W        W45724  11.884  10.608  13.341 -0.0105 -0.0896 -0.0583
29541W        W45725  17.196  16.219   3.688  0.1756 -0.3533  0.1441
29542W        W45726  13.805   5.905   3.025  0.3439  0.2341 -0.1671
29543W        W45727  11.577  15.276  11.649  0.0602 -0.2395 -0.1591
29544W        W45728  11.099   4.522  12.900  0.0824  0.3071 -0.0044
29545W        W45729   1.593   1.382  12.212 -0.0009 -0.0097  0.1753
29546W        W45730  11.731  17.587   4.645  0.1242 -0.3475  0.2151
29547W        W45731   7.877   2.930  13.688  0.3738  0.2224 -0.1795
29548W        W45732   3.984   9.944   3.917 -0.0668  0.0855 -0.2162
29549W        W45733  12.577   5.848  12.878  0.2432  0.1982  0.1869
29550W        W45734  16.630  10.222  13.535 -0.1224  0.2573 -0.0172
29551W        W45735   2.305   0.114  12.613  0.0755  0.1762 -0.4165
29552W        W45736  16.431  17.298  13.017  0.1054  0.0122 -0.0192
29553W        W45737  15.018  15.757  15.297  0.2062  0.2191  0.1365
29554W        W45738   7.389  12.413   2.252 -0.0307  0.0780  0.0219
29555W        W45739  17.963  18.697   4.503 -0.0503  0.3800  0.2590
29556W        W45740   6.065  14.354  11.990  0.1498 -0.0329 -0.0939
29557W        W45741   7.210   7.587  15.386 -0.1481 -0.1459 -0.1921
29558W        W45742  14.028   5.984  13.933 -0.2455  0.0202 -0.4243
29559W        W45743   9.033   9.101   1.466  0.0328 -0.0491  0.3282
29560W        W45744  11.752   7.935  12.377 -0.2313  0.0672 -0.2594
29561W        W45745   9.023   0.347   4.427  0.0915  0.1232  0.1323
29562W        W45746   9.558   8.473   2.376  0.0847 -0.1068 -0.3053
29563W        W45747   8.470  16.985   4.413  0.0878  0.1251 -0.0285
29564W        W45748  10.900   0.518   5.766 -0.1108 -0.1078  0.0281
29565W        W45749  15.140  18.520  12.373  0.0261  0.1223  0.0062
29566W        W45750  17.603  10.358  13.977  0.0997 -0.1197  0.1466
29567W        W45751  16.254   3.061  10.654  0.3364 -0.0874  0.1022
29568W        W45752   0.034   5.499  10.786 -0.2204 -0.0848  0.1561
29569W        W45753   6.881  13.173  15.033 -0.1237  0.1854 -0.1459
29570W        W45754  13.776  12.038  14.707 -0.1845 -0.1279 -0.2472
29571W        W45755   9.530  18.299  14.772  0.1413 -0.3643 -0.1135
29572W        W45756   8.637   8.670   0.263 -0.0347 -0.1122 -0.0071
29573W        W45757   5.224   0.133  15.292 -0.1916  0.1899  0.0073
29574W        W45758   4.204   0.249   2.227 -0.1424 -0.1652 -0.2732
29575W        W45759  15.342  16.585  11.592  0.0837  0.2819  0.0999
29576W        W45760   1.329  17.776   5.875 -0.0546 -0.0705 -0.0617
29577W        W45761  18.841  12.037   3.302  0.0142  0.1576 -0.0581
29578W        W45762  10.246   6.854  10.393  0.0935 -0.0282  0.1613
29579W        W45763   9.852  16.271   2.902  0.1317  0.2159 -0.2356
29580W        W45764  15.514   1.650  14.784 -0.0345  0.2779  0.0532
29581W        W45765   4.706   2.223  15.164  0.0805  0.1249 -0.0331
29582W        W45766  14.858   4.537   1.748  0.2453  0.0744 -0.2718
29583W        W45767  10.131   3.665  11.002  0.0361  0.0590  0.1313
29584W        W45768  16.361  14.498   1.528  0.1514 -0.0845 -0.0622
29585W        W45769   3.167   7.682  11.606  0.0160  0.0940  0.1489
29586W        W45770  12.815  16.749  13.182  0.3161 -0.2788  0.0043
29587W        W45771   1.173   4.139  13.654  0.2483  0.0126  0.1969
29588W        W45772   0.782   2.030   1.907  0.0622  0.3338  0.1777
29589W        W45773  15.745   9.954   0.310 -0.0544 -0.1115  0.0048
29590W        W45774   6.760  17.815  14.061  0.3000  0.3196 -0.1005
29591W        W45775   8.227  15.085   0.948  0.1283 -0.0711 -0.0646
29592W        W45776   7.453   2.890   0.534  0.0023  0.2732  0.1204
29593W        W45777  18.086  15.718   1.680 -0.1111  0.2327  0.1057
29594W        W45778   3.544   2.999   4.919  0.0542 -0.1880 -0.0444
29595W        W45779  13.313  14.337   0.875 -0.1000 -0.3464  0.3435
29596W        W45780   6.520  15.115  14.904 -0.0899 -0.1749  0.1691
29597W        W45781   3.601   1.226   3.650  0.0771 -0.1493 -0.0995
29598W        W45782   4.919  13.083   9.958  0.2849 -0.1572 -0.1217
29599W        W45783  10.053  17.043   1.865  0.1141 -0.0858 -0.0798
29600W        W45784   4.955  15.970   1.800 -0.0900  0.0513  0.0453
29601W        W45785  10.207   5.409   3.481  0.2064  0.0565 -0.1522
29602W        W45786  11.082   5.072   2.089 -0.1878 -0.2829 -0.0022
29603W        W45787  11.156   4.730   5.443  0.0470 -0.2131 -0.1179
29604W        W45788  14.924   0.445   3.723 -0.0255 -0.1921  0.2670
29605W        W45789  11.804  11.876  12.155 -0.0213 -0.3118  0.1280
29606W        W45790   0.171  11.102   3.330 -0.1093 -0.1605 -0.0679
29607W        W45791   3.290   3.337  10.634 -0.2243  0.2287  0.0568
29608W        W45792   0.226   0.908  10.536  0.0799 -0.0981 -0.1649
29609W        W45793  11.811  11.708  14.832  0.0759  0.2285 -0.1431
29610W        W45794  11.528  12.042  13.934 -0.1823 -0.0019  0.1508
29611W        W45795   5.539  17.677  13.794  0.1396 -0.0172 -0.2077
29612W        W45796   0.422  16.165  14.277  0.2770 -0.0109  0.0200
29613W        W45797   4.087   5.111  11.163 -0.1253 -0.3707 -0.3594
29614W        W45798  15.582   9.535   0.503 -0.3132 -0.3155  0.1973
29615W        W45799  11.991   2.078  14.812 -0.0303 -0.1458  0.1295
29616W        W45800   2.731  13.370  11.907  0.1958 -0.0415  0.3884
29617W        W45801   3.423  13.314  14.343  0.1167  0.1128 -0.1718
29618W        W45802  17.431   8.112  10.835 -0.0686  0.0631  0.0872
29619W        W45803  12.693   0.454   0.859  0.0029 -0.2090 -0.1857
29620W        W45804   9.246   1.909  11.355 -0.2442 -0.3130  0.2401
29621W        W45805   1.890  16.329   2.536 -0.2062 -0.0922  0.2086
29622W        W45806   3.941  12.265  14.988 -0.2368  0.3569  0.1140
29623W        W45807  17.765   4.132   3.722  0.0599  0.1707 -0.0232
29624W        W45808  10.996  16.204  13.175 -0.0660  0.1948  0.2473
29625W        W45809   4.252  10.489  12.196  0.1942  0.1270 -0.0012
29626W        W45810   8.958  10.902  10.847  0.0814  0.0994  0.2318
29627W        W45811   3.250   9.297   2.840  0.3139  0.1248  0.2608
29628W        W45812   4.854   0.475   3.668  0.2671 -0.1702 -0.1743
29629W        W45813   2.377  15.288   5.217 -0.0415 -0.1069 -0.0665
29630W        W45814  10.089  14.454   5.026 -0.0786  0.2615 -0.0932
29631W        W45815   3.077   0.371   2.587  0.0491 -0.3215 -0.0735
29632W        W45816   1.556  17.485  11.244  0.0335  0.0178  0.0512
29633W        W45817  18.481  16.641  11.305  0.1938 -0.0317 -0.0597
29634W        W45818  18.237  18.123   1.350  0.5801  0.0032 -0.2272
29635W        W45819  16.816   0.452   4.581 -0.2672 -0.0242 -0.2031
29636W        W45820  12.809  18.396   5.844 -0.2833 -0.0491  0.2074
29637W        W45821   4.951  14.715   5.170 -0.0432 -0.0946  0.4393
29638W        W45822   7.446  16.914  11.289  0.2402  0.0559 -0.1563
29639W        W45823  12.847  16.515   4.988  0.1905 -0.0054  0.2335
29640W        W45824  11.677   5.454   3.973 -0.0443  0.2158 -0.2189
29641W        W45825   2.228  10.750   2.516  0.2377  0.0504 -0.0356
29642W        W45826   6.473  14.423  12.344 -0.1042 -0.2538  0.0734
29643W        W45827   0.586   4.208  11.922  0.0733 -0.0310  0.1784
29644W        W45828  10.579   8.827   1.604 -0.0197 -0.1526 -0.0257
29645W        W45829  11.635  17.138   5.015 -0.2374  0.3382  0.0997
29646W        W45830   2.690  12.549   4.632  0.0659 -0.0515 -0.1678
29647W        W45831  11.544  17.731  14.035  0.0050  0.0203  0.0278
29648W        W45832  12.919  10.713  13.364  0.0173  0.0522  0.2105
29649W        W45833  13.708  11.950  13.832 -0.0451 -0.0326 -0.2303
29650W        W45834  13.024   2.783   0.309 -0.3450  0.0044  0.4432
29651W        W45835  18.797   5.327   3.879 -0.2373 -0.1836 -0.0653
29652W        W45836  10.585  11.344  12.370  0.0683 -0.1303  0.1587
29653W        W45837   6.073  15.689  10.690 -0.3928  0.2933 -0.2418
29654W        W45838   1.831  17.366   2.249  0.2529  0.2919  0.2522
29655W        W45839  12.425   6.372   2.079 -0.0625 -0.2322 -0.3384
29656W        W45840  18.036  11.307   1.489  0.1159  0.0120 -0.2903
29657W        W45841  12.250   8.046   3.785 -0.0134  0.0642  0.0715
29658W        W45842   9.407   1.951   0.089 -0.0883 -0.2447 -0.0144
29659W        W45843   3.711   0.169  10.954  0.1946 -0.1118  0.1812
29660W        W45844  10.469   2.280   2.129 -0.1540  0.1047  0.1079
29661W        W45845  16.139   9.462   5.328 -0.2202  0.0756  0.2767
29662W        W45846   8.350   2.707   1.588  0.0215 -0.1659 -0.1914
29663W        W45847  13.069  17.631   4.496 -0.0871  0.2215  0.0975
29664W        W45848  10.885   1.676  14.523 -0.0279 -0.1226  0.0091
29665W        W45849   0.798   2.394   3.095 -0.3541 -0.3057 -0.1847
29666W        W45850   0.158  16.175  11.599  0.0144  0.1022 -0.0578
29667W        W45851  18.460  12.283   5.444 -0.0308 -0.0823  0.2421
29668W        W45852   1.461   1.615   0.781 -0.0042  0.1430 -0.0631
29669W        W45853  15.866   9.497   2.272  0.1519 -0.2242  0.1909
29670W        W45854  17.432  12.302  14.679  0.3969 -0.3549  0.1067
29671W        W45855  18.606   0.091   0.473  0.0243  0.0643  0.0477
29672W        W45856  16.312   3.988  11.409 -0.1754 -0.1374  0.3781
29673W        W45857  10.706   4.661  15.484 -0.3125  0.0627  0.2936
29674W        W45858   0.185  16.223  14.724 -0.3296  0.2146 -0.2637
29675W        W45859   3.665   4.088   2.499 -0.0915  0.0564  0.2028
29676W        W45860  13.908   9.437   3.389  0.3545 -0.1896 -0.1834
29677W        W45861  15.949  13.668   5.134  0.1137  0.4386  0.3766
29678W        W45862  15.319  13.861   0.297 -0.0535  0.2661  0.0614
29679W        W45863   2.651  14.508  14.192  0.0347  0.2629 -0.0950
29680W        W45864   5.759   2.529   3.692 -0.0688 -0.2053 -0.0235
29681W        W45865  11.465  10.270   4.076 -0.2108  0.1023  0.2177
29682W        W45866   9.326  13.784   5.518  0.0815  0.1694  0.0192
29683W        W45867   3.734  17.968   5.688  0.1865  0.1768 -0.2764
29684W        W45868  17.461  13.380  11.533  0.2256  0.0688 -0.2701
29685W        W45869   1.432   8.670  13.188  0.0210 -0.5331 -0.0044
29686W        W45870   6.813   1.390  11.628  0.1055  0.1047  0.1774
29687W        W45871  18.184  13.199   1.447  0.0805  0.1485  0.0428
29688W        W45872   2.730   9.857   4.538 -0.1016  0.0622  0.2092
29689W        W45873   5.866  13.556  13.695 -0.3601 -0.3413 -0.4068
29690W        W45874  11.990   8.340   2.360 -0.0438 -0.2540 -0.1537
29691W        W45875  11.642   9.976   2.186 -0.0113  0.2851  0.2441
29692W        W45876  12.808   5.756  14.198  0.1141  0.3312 -0.4497
29693W        W45877   9.368   9.003  15.416  0.3859 -0.1404  0.0547
29694W        W45878  10.386   5.249   1.363 -0.2061 -0.1872  0.1960
29695W        W45879  16.806   9.025  10.558 -0.0910  0.1679 -0.3085
29696W        W45880  13.811  13.044  15.198  0.1412  0.0376 -0.3473
29697W        W45881   2.594   2.311   3.435  0.1380  0.5439  0.0746
29698W        W45882   4.663   5.900   0.900  0.4233  0.4559  0.1989
29699W        W45883  14.853   4.033  13.412  0.0912  0.1626  0.0650
29700W        W45884  15.835  16.488  14.976  0.1365  0.1797 -0.1386
29701W        W45885  15.504  16.264   2.608  0.2032 -0.0509  0.2443
29702W        W45886   8.159  10.100   1.138 -0.0324 -0.2450  0.2161
29703W        W45887  11.184  17.877  10.706  0.1879 -0.0773  0.1857
29704W        W45888   1.709   3.146  10.171 -0.1375  0.1292 -0.1595
29705W        W45889   2.789   6.467  14.177 -0.1525 -0.0975 -0.1389
29706W        W45890   5.271  17.424   3.686  0.1925  0.1699 -0.0254
29707W        W45891   1.309  10.891   5.214  0.0667 -0.1718  0.3113
29708W        W45892  17.606   7.306  11.616  0.0976  0.1284  0.1048
29709W        W45893  16.481   2.797   5.503 -0.0579 -0.0448 -0.1305
29710W        W45894   9.705   1.540   1.773  0.1045  0.1694 -0.2921
29711W        W45895  11.717   1.095  12.728 -0.0986 -0.0619  0.5041
29712W        W45896  13.999  11.842  11.119 -0.1092  0.0374  0.0537
29713W        W45897  12.314  15.484  12.616  0.1014  0.2757  0.0803
29714W        W45898  15.163  11.771   0.840 -0.0502  0.1119 -0.1190
29715W        W45899  18.345  13.053   3.716 -0.0141 -0.1469 -0.0692
29716W        W45900   6.401   3.214   0.470  0.2162  0.2619 -0.0071
29717W        W45901   9.767  10.052  13.195 -0.0209 -0.0651  0.0277
29718W        W45902  16.878  10.545   1.484  0.2280 -0.0068  0.0391
29719W        W45903  17.543   7.337  14.340  0.1294 -0.1861 -0.1057
29720W        W45904  14.431   2.528  12.690 -0.0396  0.1333  0.2192
29721W        W45905  14.750   3.746   0.942 -0.0675 -0.2693 -0.2009
29722W        W45906  15.073   0.019  13.981 -0.1130 -0.0036  0.3436
29723W        W45907   3.203  15.867   5.748 -0.0293 -0.0416 -0.1296
29724W        W45908   8.607   7.078  11.574  0.1698 -0.1776  0.2565
29725W        W45909  10.064  16.368  11.115 -0.0071 -0.1285  0.0587
29726W        W45910   5.954   5.055   3.320 -0.1365  0.1982  0.1476
29727W        W45911  12.975   1.373   4.266  0.0126 -0.3318 -0.1922
29728W        W45912   3.878  18.506  11.467 -0.0569 -0.1260  0.0009
29729W        W45913   9.208  17.529   3.628  0.0117  0.1217 -0.0301
29730W        W45914  11.188   4.580   1.363  0.4746  0.0291  0.1922
29731W        W45915   9.282  15.915  10.850 -0.1505  0.1870  0.1456
29732W        W45916  14.734  10.001   4.680 -0.2537 -0.0917 -0.3688
29733W        W45917   3.761  12.002  14.125  0.0876  0.3022 -0.0715
29734W        W45918   0.842   5.303  12.354 -0.0944 -0.2795  0.1060
29735W        W45919   2.966   0.715   4.386  0.0661  0.2535 -0.3578
29736W        W45920  12.720  17.824  10.848 -0.3166 -0.1897 -0.1195
29737W        W45921  11.574   3.831   4.981 -0.1484 -0.2565 -0.0145
29738W        W45922   4.797  18.311   0.750 -0.2422  0.4161  0.1367
29739W        W45923  12.003   7.192  11.269 -0.0852 -0.2822  0.1805
29740W        W45924   3.753  10.443  11.710 -0.0464 -0.1649 -0.0511
29741W        W45925   7.292   8.116  13.372  0.1853 -0.1459  0.0996
29742W        W45926   1.696  10.260  10.772  0.2164  0.1907 -0.2298
29743W        W45927   0.369  16.254   3.377  0.1513 -0.5003 -0.2310
29744W        W45928  11.877  15.197  10.942  0.3717 -0.0490 -0.2005
29745W        W45929  13.731   5.105   0.092  0.0134 -0.3891 -0.1379
29746W        W45930   0.905  10.789  15.423  0.0697  0.1778  0.0803
29747W        W45931  18.258  12.840   2.708 -0.0976  0.1652  0.3306
29748W        W45932  13.729  12.084   1.347  0.0719  0.0874 -0.0695
29749W        W45933   6.281   7.295   3.776 -0.0144  0.0719  0.0552
29750W        W45934   2.902   0.496   0.250 -0.1364  0.3991 -0.2705
29751W        W45935  11.981  13.608   3.201 -0.1796  0.0420  0.1422
29752W        W45936   6.808  11.504   2.170  0.2370  0.1484 -0.0572
29753W        W45937   7.801  10.649   2.484 -0.3235 -0.1241 -0.1491
29754W        W45938   0.699  18.341  14.136 -0.3551  0.2714  0.1210
29755W        W45939  13.576  11.583  11.167  0.0308  0.1194 -0.0119
29756W        W45940  10.993  14.200   3.961  0.0051  0.0058  0.0321
29757W        W45941  10.244  11.344   0.250 -0.0469 -0.0476  0.0754
29758W        W45942   4.520  14.612  14.481  0.0960 -0.1302  0.1445
29759W        W45943   1.946   2.647   5.012  0.2851 -0.3079  0.1538
29760W        W45944   0.763   8.087   0.930 -0.1145 -0.1691 -0.2212
29761W        W45945   8.188   3.331  14.629  0.2690  0.2200  0.1786
29762W        W45946   7.840   4.176   3.517  0.3895 -0.3361  0.0353
29763W        W45947   6.474   8.752  11.916 -0.5224 -0.0417 -0.1341
29764W        W45948  18.602   2.214   4.242  0.2970  0.1091 -0.2233
29765W        W45949   4.739  11.757  14.947 -0.0022  0.1134  0.0075
29766W        W45950   4.438  18.148   1.338  0.0312 -0.0995  0.0322
29767W        W45951  14.117   5.745  15.183 -0.0373  0.2012 -0.0147
29768W        W45952   1.214  14.872   3.310  0.0702 -0.0779 -0.0290
29769W        W45953  10.477  12.602   1.308 -0.4028 -0.2839  0.2906
29770W        W45954  12.914   0.845   3.450  0.0243  0.2149  0.3490
29771W        W45955  12.185   5.558   1.467  0.1298 -0.1326  0.2256
29772W        W45956  14.814  16.318   4.030 -0.0909 -0.2161 -0.0346
29773W        W45957  15.276  18.590   5.043  0.1393 -0.4321 -0.3589
29774W        W45958   4.528  11.403   4.995  0.1300  0.1272  0.2433
29775W        W45959  14.856   9.443  11.655  0.0179  0.0049  0.0529
29776W        W45960   0.354   9.594   0.106 -0.0530  0.1172  0.0866
29777W        W45961   9.366   3.219  15.281  0.1026  0.2637  0.0282
29778W        W45962   8.174  10.136  14.524  0.1292  0.1052 -0.0613
29779W        W45963  15.082  18.054  14.350 -0.2126 -0.1583 -0.2185
29780W        W45964   3.007   5.438   5.468 -0.2672 -0.3293 -0.1460
29781W        W45965  17.148   0.856   2.500  0.0591 -0.1248 -0.0390
29782W        W45966   6.502  15.585   5.763  0.1607 -0.1040 -0.1923
29783W        W45967   1.241   3.515   0.548 -0.1483 -0.2980 -0.2955
29784W        W45968  17.430  11.455   3.244  0.1248  0.1144 -0.0161
29785W        W45969   5.134  14.041   2.892  0.0876  0.0299  0.0002
29786W        W45970  18.263  10.815  11.507  0.0410 -0.0592 -0.1595
29787W        W45971  10.739  11.659  14.339  0.1159 -0.2982  0.2244
29788W        W45972  14.907  13.713   1.690 -0.0279 -0.0257  0.0426
29789W        W45973   4.549  14.966  12.985 -0.3708  0.2019 -0.0307
29790W        W45974   9.353   3.657  12.587 -0.1096  0.0223  0.0143
29791W        W45975  16.729   8.217  13.369 -0.1197  0.0609  0.2531
29792W        W45976   0.436   6.342  15.474  0.1755  0.0881 -0.0208
29793W        W45977   5.143  18.650  11.926 -0.0413  0.0308 -0.0425
29794W        W45978  13.943   4.048   2.601 -0.1465 -0.1226  0.0547
29795W        W45979   9.942   9.602  12.960 -0.1161  0.1992  0.1130
29796W        W45980  17.729  15.697   4.515  0.2330 -0.0733  0.2645
29797W        W45981   3.297   6.058  12.420 -0.0301 -0.2875  0.0557
29798W        W45982  16.607   0.183   2.604 -0.0669 -0.1581  0.1952
29799W        W45983   2.892   5.775   1.003 -0.0530  0.0679  0.1158
29800W        W45984   9.931   8.299   3.284 -0.0878  0.3446 -0.0836
29801W        W45985  17.756   9.391   3.516 -0.2000  0.2489 -0.1641
29802W        W45986  18.473   9.362  10.992  0.2635  0.4629  0.4169
29803W        W45987  12.289  14.602   4.155 -0.0178  0.1153  0.2667
29804W        W45988   3.986   9.006  11.453  0.1540  0.2578  0.0165
29805W        W45989  11.869  16.442   3.561  0.1916  0.1869 -0.4258
29806W        W45990   6.892   1.850  15.017  0.3271 -0.0531 -0.0977
29807W        W45991   6.173   1.149  13.075  0.3306 -0.0442 -0.0534
29808W        W45992  15.792   4.633  10.844 -0.2053 -0.0329 -0.0771
29809W        W45993   7.133   0.081  13.522 -0.0835 -0.1597  0.3237
29810W        W45994  10.235  17.439  11.675  0.0942  0.1821 -0.0693
29811W        W45995   4.697   9.718  13.870  0.3293 -0.0112 -0.1715
29812W        W45996  16.648   0.233   5.041 -0.3341 -0.0252 -0.1462
29813W        W45997   1.814  12.103  14.956  0.2763 -0.1506  0.1091
29814W        W45998  15.862   4.388   1.249  0.0765  0.2833 -0.0688
29815W        W45999  11.981   2.473  14.503 -0.4217 -0.0131  0.1763
29816W        W46000   3.200   3.404   4.822  0.1708  0.1518 -0.0837
29817W        W46001  15.006  16.526   0.981 -0.0226  0.1209 -0.1797
29818W        W46002  13.862   8.705  11.339  0.2396 -0.1248 -0.1562
29819W        W46003   1.808  15.355  13.464 -0.2796  0.3706 -0.1190
29820W        W46004   5.023   9.776   0.767  0.3209  0.0753 -0.3027
29821W        W46005   9.571  14.041   1.849 -0.0406 -0.1577  0.0215
29822W        W46006  15.714   8.601   3.831  0.2960 -0.0395 -0.2735
29823W        W46007   6.464   7.186   0.299 -0.3935  0.0459 -0.0405
29824W        W46008  17.963  11.178  14.957 -0.0794  0.4198 -0.0233
29825W        W46009   0.552  10.313  13.678 -0.0341 -0.1563 -0.2626
29826W        W46010  11.586  18.609   4.918  0.4366  0.3152  0.1445
29827W        W46011  13.927  18.195  11.390  0.1492  0.2641 -0.1104
29828W        W46012  12.529  14.336  12.033  0.0846  0.2248  0.0982
29829W        W46013  16.613   9.598  10.975  0.2743  0.0646 -0.1058
29830W        W46014   4.233   6.953   2.343  0.0572 -0.0848 -0.0044
29831W        W46015  12.324   2.691  12.815 -0.0108 -0.0838  0.4737
29832W        W46016   8.363   5.677   3.345 -0.2415 -0.2742  0.0533
29833W        W46017  15.427  10.888  13.032 -0.1881  0.0502 -0.0322
29834W        W46018  16.150  12.420  12.023  0.0247 -0.2573  0.3629
29835W        W46019   8.366  18.589   4.798 -0.2010  0.0338  0.1850
29836W        W46020  16.130  15.951  13.248  0.1029  0.4187  0.2270
29837W        W46021   3.637  16.825   2.004 -0.0204 -0.2723  0.1381
29838W        W46022   0.368   2.889   0.136 -0.0100 -0.1625 -0.1726
29839W        W46023  18.688   2.352   3.313  0.1959 -0.1829 -0.0633
29840W        W46024  15.859   2.929  14.762 -0.1542  0.0681  0.0541
29841W        W46025  18.104  16.145   3.796 -0.0484 -0.1368 -0.0898
29842W        W46026  16.083  16.483   2.584 -0.1143 -0.0493 -0.0285
29843W        W46027  18.246  12.030   2.618 -0.0485 -0.1511  0.2166
29844W        W46028  17.996  12.929  14.928 -0.1041  0.1052 -0.1834
29845W        W46029  11.854  11.541   3.105  0.0890  0.1346  0.0617
29846W        W46030   9.145   9.809   0.220  0.3115 -0.0409 -0.1153
29847W        W46031   2.125   4.011   3.462  0.0768  0.3765 -0.1112
29848W        W46032   9.745   5.178   3.661 -0.1164 -0.0625 -0.1287
29849W        W46033  18.634   9.206  15.091 -0.2712 -0.2545 -0.1243
29850W        W46034   7.757   4.581  11.422  0.0320 -0.2722 -0.0225
29851W        W46035  12.519   5.773  13.722 -0.1575  0.0018  0.0806
29852W        W46036   0.686  12.862  13.404 -0.0753  0.4275  0.2205
29853W        W46037   3.993   4.428  11.754 -0.1936  0.0470  0.0744
29854W        W46038   4.810  14.830  11.901  0.1313  0.2712  0.2416
29855W        W46039   2.643   8.891  11.305 -0.0414  0.0137  0.1570
29856W        W46040   7.400   0.212   3.346  0.0525  0.1209 -0.0585
29857W        W46041   8.819   8.693  10.724  0.2401 -0.4024  0.3666
29858W        W46042  10.677   4.487   1.387  0.1872  0.0514 -0.3875
29859W        W46043  17.042   4.700  15.197  0.2074  0.1066  0.1852
29860W        W46044  13.672  16.999   1.308  0.0027 -0.1225 -0.1006
29861W        W46045   7.871   4.741  13.923 -0.1798 -0.2350  0.3137
29862W        W46046   4.709  12.487  13.834  0.1270  0.0126 -0.1072
29863W        W46047   0.596   4.281  14.047  0.0374  0.1084  0.2095
29864W        W46048   3.451   4.801  14.983  0.0859 -0.0566 -0.1875
29865W        W46049  10.977   8.643  12.886 -0.0574  0.2028 -0.2550
29866W        W46050   1.746  12.197  11.702 -0.1290 -0.0838 -0.1552
29867W        W46051   4.798  12.548   5.190  0.0580 -0.0944 -0.3053
29868W        W46052   8.414   3.990  13.999 -0.0098  0.2023 -0.2002
29869W        W46053   2.822  14.919   1.624 -0.0487  0.3588  0.0655
29870W        W46054   5.754   8.209   0.389 -0.1919  0.0822  0.1688
29871W        W46055   8.241   5.577   2.871 -0.1764  0.0780 -0.1780
29872W        W46056  10.984  18.105  15.074  0.2068  0.0814  0.0867
29873W        W46057  18.568   3.248   3.445  0.0936 -0.0497 -0.0299
29874W        W46058  14.573   0.750   1.806 -0.1261 -0.3828  0.0139
29875W        W46059   8.450   8.369  10.882 -0.3722  0.1079 -0.1128
29876W        W46060   5.010   7.582  14.679 -0.1650  0.2042  0.1094
29877W        W46061   6.284   6.052  11.763 -0.2484 -0.2854  0.1035
29878W        W46062   7.835   9.770   0.497 -0.1079 -0.2064  0.1640
29879W        W46063  11.792  16.765  14.026  0.1742  0.0646 -0.1482
29880W        W46064  18.224  11.923  12.734  0.1288  0.0379  0.2014
29881W        W46065   7.382  15.470  12.107 -0.2744 -0.1173 -0.0687
29882W        W46066   1.901   5.621  12.544  0.0498  0.2165  0.3818
29883W        W46067  14.622   9.539   0.913 -0.0948 -0.1065 -0.2816
29884W        W46068  17.011   6.810  15.497  0.2275 -0.1818 -0.0609
29885W        W46069   5.708  10.492  12.777 -0.0114  0.2547  0.2282
29886W        W46070   9.707   6.150  12.628  0.0310 -0.0286 -0.0200
29887W        W46071   9.856   4.774   4.709 -0.0825 -0.0650  0.2833
29888W        W46072  16.287  13.441   4.620  0.1071 -0.1435 -0.3938
29889W        W46073  16.393   5.585  12.442 -0.0757 -0.0576  0.0635
29890W        W46074   5.651   0.582   3.081 -0.0589 -0.1646 -0.1948
29891W        W46075  12.523   6.117  14.103  0.0304  0.2124  0.1698
29892W        W46076   1.495   5.317  14.132  0.2114  0.1126 -0.2593
29893W        W46077  17.808   0.059   3.728 -0.1223  0.1233  0.1449
29894W        W46078  18.453   1.278  13.651 -0.2363  0.3810  0.2278
29895W        W46079  17.915  10.042  13.652  0.1718  0.2697  0.1894
29896W        W46080  12.622  15.271   5.441  0.1104 -0.3142  0.2536
29897W        W46081  11.163   0.489  11.596  0.0819  0.0129  0.0811
29898W        W46082   2.965   9.449   2.462 -0.0762  0.1280  0.0237
29899W        W46083  14.023  12.534  11.043 -0.0348  0.0072  0.0596
29900W        W46084  11.488  17.330   0.433 -0.0841 -0.0653  0.0766
29901W        W46085   4.784   8.626  11.686  0.0840  0.2049  0.1286
29902W        W46086  16.038   4.921   1.241  0.3023  0.0358 -0.3527
29903W        W46087   0.807   2.262   0.311 -0.0311 -0.0939 -0.0953
29904W        W46088   2.202   7.908  14.194  0.0982 -0.2495  0.1501
29905W        W46089  11.159  11.494   4.047 -0.1380 -0.0449  0.0039
29906W        W46090  16.052   0.059  13.084 -0.1202 -0.0915 -0.2889
29907W        W46091   3.208  11.282   1.584  0.1266  0.0307  0.0722
29908W        W46092   3.187  16.681   5.461 -0.1215 -0.1231  0.1111
29909W        W46093   5.516   5.667  12.601 -0.1158 -0.2162 -0.1421
29910W        W46094  16.138   8.365  12.694 -0.1612  0.1593 -0.1982
29911W        W46095   5.094  10.243   3.135  0.3275 -0.0831  0.1071
29912W        W46096   9.032  14.165  12.424  0.3112  0.0212 -0.0605
29913W        W46097   4.541   1.673  14.879  0.0662 -0.0385 -0.1611
29914W        W46098   0.877  10.916  12.075  0.0141 -0.0879  0.0921
29915W        W46099  17.184  13.564  14.519 -0.1163 -0.0780  0.1635
29916W        W46100  16.724  11.326   3.511 -0.0891  0.0744  0.2171
29917W        W46101  18.020   4.903  13.587 -0.1485 -0.1063 -0.1228
29918W        W46102  15.671  14.250  15.411 -0.0545  0.2792  0.1640
29919W        W46103   0.418   3.985  10.941 -0.2733  0.0133  0.0532
29920W        W46104   1.858   1.379   4.160  0.1636 -0.0263 -0.2806
29921W        W46105  18.525  18.379   0.395 -0.1636  0.0125  0.0871
29922W        W46106  13.953  17.678  14.771 -0.3813  0.0921  0.2582
29923W        W46107   6.024   6.064  14.229 -0.1151 -0.5918 -0.2633
29924W        W46108  10.686   8.136  15.355 -0.0479 -0.0691 -0.0089
29925W        W46109  17.539  16.294   2.734  0.1477  0.2454  0.3187
29926W        W46110   0.254   8.016  15.524 -0.1439  0.2772 -0.2125
29927W        W46111  10.467  17.681  13.491  0.0868 -0.2123  0.0522
29928W        W46112  13.787   1.912  13.598  0.0191 -0.0316 -0.1348
29929W        W46113   9.197   0.301   3.684 -0.0098 -0.1000 -0.0730
29930W        W46114   9.625  15.072   4.947 -0.0309  0.0447 -0.0892
29931W        W46115   4.048   0.545   0.297  0.0419 -0.2024  0.1103
29932W        W46116  14.879   1.745   4.872  0.4066 -0.2287 -0.1692
29933W        W46117   6.380   6.549   2.888 -0.3457 -0.3879  0.1068
29934W        W46118   2.861   7.518  14.230 -0.0746  0.0728 -0.1036
29935W        W46119   8.299   9.564   4.054  0.2874  0.2184  0.0773
29936W        W46120  12.108   7.160   0.335  0.3286  0.0228 -0.0128
29937W        W46121  11.741  14.490  11.359  0.0126 -0.1601  0.4260
29938W        W46122   2.607   4.998  13.215  0.0459 -0.0703  0.0715
29939W        W46123  12.649  14.708   4.550  0.0341 -0.1499  0.0351
29940W        W46124   8.826  11.751   0.727  0.2060 -0.3438  0.1621
29941W        W46125  13.930   2.443  12.953  0.1458 -0.1676  0.2088
29942W        W46126  10.117  16.203   1.800  0.1492  0.1580  0.2486
29943W        W46127   9.100  15.380   0.544 -0.4154  0.1450  0.1991
29944W        W46128  18.750  10.851   0.818 -0.1459  0.2850  0.1000
29945W        W46129   6.202  13.755   2.065  0.0138  0.3056 -0.3164
29946W        W46130  10.967   4.094   2.933 -0.1333  0.0050  0.1951
29947W        W46131   6.436  13.982   2.633 -0.1178  0.0226 -0.1947
29948W        W46132   5.697  11.399   3.728  0.0426  0.1095 -0.1460
29949W        W46133  13.997   4.220   2.105 -0.1335  0.1157 -0.2102
29950W        W46134  17.244  17.641   5.187 -0.0286 -0.0163  0.1986
29951W        W46135  11.673  15.327   1.993 -0.0133  0.1159  0.0084
29952W        W46136   6.760   5.630  10.385 -0.0596 -0.1352  0.0170
29953W        W46137  14.759  17.537  12.142  0.0713 -0.0011  0.3038
29954W        W46138  12.071   5.909  13.848 -0.4488 -0.1456 -0.0736
29955W        W46139   6.787  12.207   4.833  0.0381 -0.0628 -0.4655
29956W        W46140  16.045   7.920  10.588  0.1611 -0.2814 -0.0846
29957W        W46141   8.338   1.818  13.119  0.4037  0.0968 -0.1825
29958W        W46142   9.035   7.544  13.823  0.0604  0.1417  0.1503
29959W        W46143  14.321  17.944   0.176 -0.2364  0.2638 -0.0412
29960W        W46144   3.336  12.641   4.925  0.0655 -0.0840  0.2503
29961W        W46145   1.873  17.421  15.427 -0.3180 -0.0605  0.0286
29962W        W46146   7.152   9.325   1.009 -0.2415 -0.1177  0.4207
29963W        W46147  10.274   0.545   4.220 -0.0311 -0.1791  0.3278
29964W        W46148   0.609  17.129  13.137  0.0917 -0.1928 -0.3351
29965W        W46149  14.305  16.862  12.437 -0.1644  0.2745  0.3827
29966W        W46150  18.492   6.063  12.979  0.0287  0.0363  0.1080
29967W        W46151  15.023   9.127   0.870 -0.0212 -0.1216  0.0771
29968W        W46152   2.226  17.783  14.068  0.1463  0.3746  0.0956
29969W        W46153   2.765  10.226   0.137 -0.1060  0.0481 -0.2921
29970W        W46154   1.061   9.344  13.453  0.0373 -0.1501 -0.0080
29971W        W46155   0.129  15.283   4.276  0.0808  0.1665  0.0417
29972W        W46156   4.287   0.257   1.167  0.0114 -0.1974 -0.0282
29973W        W46157   3.933  17.945   2.338 -0.1124 -0.0456  0.2665
29974W        W46158  11.536  11.451  12.147 -0.1161 -0.3201  0.0164
29975W        W46159  14.052   4.723   0.434 -0.0785 -0.4056 -0.1201
29976W        W46160   1.387  12.762  11.999 -0.1435  0.1910  0.2721
29977W        W46161   4.671   9.139  13.261 -0.2515 -0.2887  0.1345
29978W        W46162   1.024  11.946  10.855 -0.2247  0.1888  0.4150
29979W        W46163   7.268   0.634  11.727  0.2639  0.0452  0.0826
29980W        W46164  15.568   9.199  11.204  0.0898  0.0374 -0.2304
29981W        W46165   0.213  13.800   1.412 -0.1622  0.2363  0.0326
29982W        W46166   0.973   1.790   2.296 -0.1012  0.2234  0.1407
29983W        W46167  17.640  10.941   1.321 -0.0756 -0.0243  0.0306
29984W        W46168  17.828   6.409  13.805 -0.1325  0.0191  0.1127
29985W        W46169   8.642   8.976  14.111  0.2073  0.0095 -0.2222
29986W        W46170   8.057  11.543   5.713 -0.3571 -0.1029 -0.1062
29987W        W46171   2.386  14.349   3.128  0.1291 -0.0812  0.0358
29988W        W46172   4.004   8.599   2.024  0.0159 -0.2286  0.4170
29989W        W46173   8.299  17.013   5.022  0.5262 -0.2760  0.2444
29990W        W46174   4.219  12.114   5.477 -0.2410 -0.1275 -0.3909
29991W        W46175   1.260   9.800  14.663  0.0682 -0.0363  0.2853
29992W        W46176   3.938  11.600  13.139  0.0589  0.1467 -0.0298
29993W        W46177   6.779  10.623   2.643 -0.4059  0.2974 -0.0085
29994W        W46178  18.058  17.311  14.015  0.1095 -0.0046 -0.0305
29995W        W46179  17.823  10.070   5.552 -0.0180 -0.4169 -0.2243
29996W        W46180  14.509  15.988   2.757  0.0530 -0.0224 -0.0067
29997W        W46181   2.064   3.534  11.732 -0.1529 -0.1719 -0.0636
29998W        W46182   2.664   8.179  13.077  0.2653  0.5566 -0.1037
29999W        W46183   2.466  11.502   0.949  0.0717  0.0481  0.1006
30000W        W46184   5.596  10.790   3.731 -0.2791 -0.0099 -0.3163
30001W        W46185   6.900   8.793  12.143  0.0781  0.0681 -0.0555
30002W        W46186  10.058   8.864  11.086 -0.1509 -0.0675  0.2190
30003W        W46187  11.420   9.473  14.246 -0.0543  0.0372  0.2008
30004W        W46188   8.365   7.012  10.568  0.0130  0.1133  0.1112
30005W        W46189  17.152   8.003  14.406  0.0627 -0.0039  0.1152
30006W        W46190  12.378   2.314  13.765 -0.2905 -0.2920 -0.0821
30007W        W46191   5.463   0.286  11.269 -0.0322 -0.2168  0.0147
30008W        W46192   0.638   2.261  12.368  0.1351 -0.1189 -0.2063
30009W        W46193   7.208  16.679   0.111 -0.5300  0.0307 -0.3205
30010W        W46194  15.322  10.574   4.105 -0.0784  0.3033  0.3195
30011W        W46195  15.201  17.709   5.881  0.0472  0.0191  0.1281
30012W        W46196  13.688   7.973  11.998 -0.1836  0.1009 -0.3340
30013W        W46197   3.157  14.903  15.295  0.1159 -0.0139 -0.2067
30014W        W46198  10.487   7.111  13.744  0.0430 -0.0823  0.1470
30015W        W46199   5.420   0.936   2.764 -0.3349 -0.0317 -0.0944
30016W        W46200   5.815   7.212  12.951 -0.1371  0.0310  0.0195
30017W        W46201  18.277   4.620   0.141 -0.3078  0.1765 -0.0721
30018W        W46202  13.198   8.184  13.576 -0.2157 -0.1307 -0.3640
30019W        W46203   0.852   6.582  13.006 -0.2763  0.0684 -0.1561
30020W        W46204  17.592   0.528  13.739 -0.0927  0.1123  0.0600
30021W        W46205   9.851  16.487  11.555  0.1010  0.0964  0.1251
30022W        W46206   4.801   2.509  11.117  0.1485  0.0158 -0.1436
30023W        W46207   3.012  17.122  15.361 -0.0836  0.1674  0.0442
30024W        W46208   7.598   7.454   5.216 -0.1700  0.0932 -0.2306
30025W        W46209   7.424  18.279   5.351  0.1501  0.1115  0.1859
30026W        W46210   0.268   9.304   4.253 -0.0861  0.1180 -0.1646
30027W        W46211   6.329   8.615   1.264  0.0441 -0.3791 -0.3673
30028W        W46212   8.473  18.265  13.271  0.0574 -0.0732 -0.2304
30029W        W46213   4.454   7.305   1.963 -0.3573  0.0420 -0.0526
30030W        W46214   2.505  12.026   0.120 -0.1171  0.2061 -0.0532
30031W        W46215   1.408  16.087   1.189  0.1890 -0.1808  0.1547
30032W        W46216   2.925  10.943   0.289 -0.0265 -0.2197 -0.0347
30033W        W46217  18.832   3.140  14.619 -0.0534 -0.0695  0.1690
30034W        W46218   9.412   7.416   5.385  0.2455 -0.1492 -0.1289
30035W        W46219  10.402   0.269   3.058  0.2352 -0.2616  0.1275
30036W        W46220   9.782  11.203   0.157 -0.0296 -0.0059 -0.4482
30037W        W46221   8.048   9.611   0.933 -0.1780  0.0464  0.3014
30038W        W46222   7.844   3.839   5.959  0.0944 -0.0775  0.2839
30039W        W46223  14.063  10.297   0.512 -0.2066  0.1599  0.2973
30040W        W46224  10.282   3.314  11.739  0.0314 -0.1507  0.0197
30041W        W46225  14.276  15.724  10.501  0.2142 -0.5730  0.2839
30042W        W46226  13.422   2.011   1.902  0.0574  0.2930  0.2243
30043W        W46227   6.175   3.320   0.941  0.0770  0.4193 -0.3371
30044W        W46228  10.856   2.121  13.328  0.0652 -0.0335 -0.1756
30045W        W46229   2.305   3.288   3.919  0.0633  0.1212 -0.0279
30046W        W46230   6.839   6.130   4.457  0.1123  0.2270 -0.0542
30047W        W46231   7.844   9.439  14.673 -0.0480  0.0131  0.1043
30048W        W46232  16.160  15.809   2.815  0.0342 -0.3698  0.0111
30049W        W46233   5.656   1.565  12.967  0.0614 -0.3064 -0.5242
30050W        W46234  11.532   9.576   1.717  0.3805 -0.1572  0.1825
30051W        W46235   2.932   2.981  11.341 -0.1529  0.1019  0.1479
30052W        W46236  10.319   8.471   1.037  0.1697 -0.1024 -0.1972
30053W        W46237   3.721   1.743   3.431  0.0142  0.0089 -0.0306
30054W        W46238   1.337   8.175  13.099 -0.0044  0.2066  0.1829
30055W        W46239  10.490   3.594  11.324  0.1037  0.1447 -0.0407
30056W        W46240  16.287   0.687  14.065 -0.0477 -0.2289  0.2493
30057W        W46241   8.561   1.881  13.688 -0.0318  0.4574  0.0458
30058W        W46242   4.439   4.403   0.850 -0.0707 -0.3401 -0.1304
30059W        W46243  17.401   6.737  13.842  0.0001  0.0638 -0.0889
30060W        W46244   8.036   5.148   3.754  0.2303  0.0883 -0.0394
30061W        W46245   4.641   8.159  11.706  0.2159  0.0832 -0.3306
30062W        W46246   3.419  17.579   4.664  0.1928 -0.1898 -0.0344
30063W        W46247  13.493   2.370   0.940 -0.2410  0.1004  0.0183
30064W        W46248   5.955   3.778   1.130  0.0800  0.3465  0.1429
30065W        W46249   9.037  11.669   4.438 -0.2917  0.0656 -0.1023
30066W        W46250  17.583  15.914   3.605 -0.1089 -0.1832 -0.0709
30067W        W46251  16.910   4.684   2.001 -0.1182 -0.1331 -0.0441
30068W        W46252  14.049   1.000   0.214  0.2697 -0.2908  0.0739
30069W        W46253   0.473   0.975   2.755 -0.0548 -0.2140 -0.2663
30070W        W46254   9.976   3.663   1.558 -0.0613  0.0638 -0.0127
30071W        W46255  18.488   2.005  14.639 -0.1794  0.4357  0.1489
30072W        W46256  17.410  10.507   3.116 -0.0975 -0.1745  0.0019
30073W        W46257  17.439  12.534  14.129 -0.0886 -0.2374 -0.0162
30074W        W46258   6.197  14.208  15.176  0.1310 -0.2155 -0.3202
30075W        W46259   2.222   8.420   2.885 -0.0049 -0.1255  0.1647
30076W        W46260   1.426   6.638   1.756  0.1003  0.3824 -0.1843
30077W        W46261  14.833   0.949  12.845  0.2290  0.0632  0.2405
30078W        W46262   0.255   3.420   2.805  0.2895  0.0195 -0.0350
30079W        W46263  18.590  18.002   2.470  0.0007  0.2995  0.0310
30080W        W46264  13.924   1.059   3.032  0.0142  0.0569 -0.2646
30081W        W46265   0.916   2.081  13.236 -0.1123 -0.1168  0.2808
30082W        W46266  18.170   1.610  13.348 -0.1319  0.5168 -0.0912
30083W        W46267   3.472   7.299  12.491  0.2515  0.3125  0.0237
30084W        W46268   9.151  16.132   0.457 -0.0852 -0.0952  0.1419
30085W        W46269  15.005  11.685   4.517  0.0526 -0.1579  0.2920
30086W        W46270   1.059   4.686  11.144  0.0110 -0.0728  0.1731
30087W        W46271   8.059  16.280   2.896 -0.2228 -0.0694  0.0780
30088W        W46272  15.655  10.174  11.048  0.4554  0.2282  0.0762
30089W        W46273  10.076   5.942  13.464  0.1386  0.0387  0.3023
30090W        W46274   6.283   6.267   4.505  0.0846 -0.1321  0.3382
30091W        W46275   3.332   3.617  12.948  0.0397 -0.1300 -0.0973
30092W        W46276  10.559  14.093  15.068 -0.1751  0.0152  0.3434
30093W        W46277  12.737   9.687  14.469 -0.5400 -0.1825  0.0303
30094W        W46278  18.122   7.638   1.519 -0.0452  0.0739 -0.1357
30095W        W46279  16.178   2.358  11.921 -0.2142  0.3331  0.1265
30096W        W46280   1.045   9.798   1.932  0.0312 -0.0408 -0.0594
30097W        W46281   5.336   3.867   3.715 -0.0500 -0.2210  0.1674
30098W        W46282   7.430  15.035  12.900  0.1561  0.3194  0.2167
30099W        W46283   3.157   6.426   4.149 -0.1180  0.1502  0.1045
30100W        W46284   2.527  14.255   5.645  0.0421  0.2852  0.1994
30101W        W46285   6.982   8.329   4.431  0.0877  0.1690 -0.2527
30102W        W46286   2.031  12.899  14.488 -0.0379 -0.2204 -0.0130
30103W        W46287  13.417   5.576   5.274  0.1382 -0.0588 -0.4332
30104W        W46288  15.251  12.700  11.329  0.1106 -0.1147 -0.2574
30105W        W46289   3.964  18.445  13.706  0.1718  0.3770  0.0480
30106W        W46290  17.795   8.091  15.446  0.1318  0.4574 -0.1328
30107W        W46291  17.617   2.842  12.218 -0.0446  0.0877 -0.1684
30108W        W46292  10.262   3.462  12.812  0.0406  0.0192  0.0180
30109W        W46293   4.635  18.662  12.285  0.1638 -0.0896  0.1142
30110W        W46294   9.434  17.681   2.283 -0.4508  0.1351 -0.0273
30111W        W46295  17.655   8.627  14.054  0.0771 -0.2835  0.0570
30112W        W46296   9.790  11.840  13.356  0.0962 -0.3366  0.1564
30113W        W46297   5.025   2.909  11.262 -0.1038 -0.0220  0.1916
30114W        W46298   9.346  10.975  11.202 -0.1963  0.0644 -0.3202
30115W        W46299   4.400   8.170  10.817  0.3421 -0.0889 -0.0049
30116W        W46300   8.919   1.967   5.169 -0.0752  0.0051  0.3406
30117W        W46301  10.856   7.944   4.452  0.0481  0.1076 -0.2519
30118W        W46302  15.378  13.888  11.304  0.1076 -0.1330 -0.2480
30119W        W46303  15.544  16.577   4.651 -0.1873  0.0288 -0.1632
30120W        W46304  10.278  10.719  10.988 -0.1370  0.1128 -0.1910
30121W        W46305  10.405  16.924   0.644  0.1499  0.0363  0.5145
30122W        W46306   4.898   6.722   1.555 -0.5527  0.1298 -0.1289
30123W        W46307   5.387   3.713   0.653  0.0982  0.0146  0.1126
30124W        W46308  11.589   5.546   2.609  0.1524  0.0306  0.2426
30125W        W46309  10.233  15.576   3.073 -0.0523 -0.3201  0.0780
30126W        W46310   6.186   1.550  12.784  0.1146 -0.1286  0.1368
30127W        W46311  17.237  10.911   5.371 -0.3192  0.2516 -0.0606
30128W        W46312  12.214  15.643   4.739 -0.0165  0.0495 -0.0806
30129W        W46313   8.488  11.959   1.698 -0.0817  0.0362 -0.0705
30130W        W46314  12.893   3.294   0.355 -0.0221 -0.1271  0.0019
30131W        W46315   5.373  15.701   1.647  0.0043 -0.1266 -0.2431
30132W        W46316   2.177  11.585  12.685 -0.2179  0.0171  0.1596
30133W        W46317  14.332   9.330  12.492 -0.1674  0.2852  0.1692
30134W        W46318  11.262   1.127   0.484 -0.2220 -0.0837 -0.1035
30135W        W46319  11.526  11.312  14.812 -0.0847 -0.0032  0.2289
30136W        W46320  12.154   2.752   3.946  0.0579  0.1628  0.1604
30137W        W46321   7.508  14.475  14.376 -0.0812  0.5482 -0.1654
30138W        W46322   2.459  12.889   2.585  0.2326  0.1705  0.0445
30139W        W46323   8.174   2.297   1.869 -0.0622  0.1095  0.2623
30140W        W46324   6.472  12.861  12.186 -0.0447 -0.1284 -0.0773
30141W        W46325  18.792   7.169  15.108  0.1082 -0.1390  0.0481
30142W        W46326   5.711  10.659   5.319  0.1948  0.1486  0.0277
30143W        W46327   3.575   7.222   3.682  0.4671 -0.0743 -0.0008
30144W        W46328  18.057  14.921   1.248  0.1290 -0.4085  0.4761
30145W        W46329   3.016  18.814   3.468 -0.3496  0.1994 -0.0314
30146W        W46330   4.234   3.622   1.232  0.2373 -0.1609  0.2866
30147W        W46331  17.252  15.780   1.916  0.1802 -0.0396 -0.0180
30148W        W46332  17.795  11.533  11.846 -0.0984  0.3219 -0.0149
30149W        W46333   6.003  10.891  14.323 -0.2658 -0.2252 -0.0694
30150W        W46334  18.311  14.474  12.853  0.5301  0.0484 -0.2522
30151W        W46335   7.240   7.530  13.143 -0.1365 -0.0257  0.0125
30152W        W46336  12.226  18.434   0.438  0.3597  0.0426 -0.1584
30153W        W46337  10.355  17.110  11.341 -0.0837 -0.2537 -0.0667
30154W        W46338  17.139  14.990  13.202 -0.2451  0.3209 -0.3070
30155W        W46339  16.767   6.753   0.355 -0.1222 -0.0940 -0.0665
30156W        W46340   3.495   8.834   0.007 -0.1572 -0.1690  0.2757
30157W        W46341  15.869   6.384   3.670 -0.0575 -0.2627  0.1868
30158W        W46342  12.547  15.703  10.716  0.1650  0.0108  0.1138
30159W        W46343   6.108   6.055  10.822 -0.0910  0.2685 -0.0967
30160W        W46344   1.210  15.080  11.295  0.1005  0.0839 -0.1344
30161W        W46345   3.260  12.455  10.829  0.2572  0.1246 -0.1256
30162W        W46346  10.864   8.340   1.064  0.2419  0.2898  0.2424
30163W        W46347   0.307   2.606  13.625 -0.1117  0.1883 -0.0906
30164W        W46348   1.460   1.773  14.279 -0.0121 -0.2606 -0.0382
30165W        W46349   1.663  18.779   5.928  0.2412 -0.0086 -0.0269
30166W        W46350   5.220  14.922   4.596 -0.0078 -0.0653  0.0980
30167W        W46351  16.161  11.935   4.998  0.0839 -0.1500  0.0983
30168W        W46352   2.629   9.126  12.458 -0.1012  0.0315 -0.1928
30169W        W46353   2.205   6.518   2.843  0.0209  0.3761 -0.2840
30170W        W46354   6.710   0.070   5.741 -0.0078 -0.2296  0.0820
30171W        W46355  14.153  14.066   1.470 -0.2877  0.1835  0.2671
30172W        W46356   5.517   8.966   4.526  0.0070 -0.0340 -0.1492
30173W        W46357  18.624   0.254   9.542  0.0947  0.0430  0.0918
30174W        W46358  15.073   7.143  12.457  0.1939  0.0858 -0.1229
30175W        W46359  10.013  16.620  13.252  0.4449  0.0877  0.1048
30176W        W46360   3.879   9.726  13.439  0.0837  0.2294 -0.0278
30177W        W46361  10.359   4.216  15.477 -0.3314 -0.0908  0.0497
30178W        W46362   6.237  18.158  13.094  0.1219 -0.0329  0.0755
30179W        W46363  13.707   9.155   3.783  0.3359 -0.0880 -0.1835
30180W        W46364   3.146   0.829   1.404 -0.1985 -0.1260  0.1961
30181W        W46365  13.526  14.695  14.038 -0.1274 -0.1377  0.2031
30182W        W46366   8.140  14.325  15.432 -0.1916 -0.0814  0.3764
30183W        W46367   2.123  16.434  11.963  0.1057 -0.3394 -0.0174
30184W        W46368   5.017  16.533  13.600 -0.0631  0.0124 -0.1258
30185W        W46369  18.157  18.664  14.741 -0.0912  0.0983 -0.0157
30186W        W46370   1.418  18.063  12.038 -0.0832 -0.2416  0.4209
30187W        W46371  10.244  16.502   3.962 -0.1931 -0.3477 -0.3897
30188W        W46372  17.513   4.078   0.269  0.0937 -0.3101  0.1366
30189W        W46373   9.446  16.276  14.098 -0.2088  0.0932  0.0429
30190W        W46374  15.625   5.312   2.160 -0.1155  0.1446 -0.0049
30191W        W46375  16.307   7.885   4.187 -0.1458 -0.3599 -0.1311
30192W        W46376  13.196   7.264  11.390  0.0260  0.0017 -0.0587
30193W        W46377  17.020   1.492  14.750  0.0558  0.3686  0.1286
30194W        W46378   7.216   7.131   5.558 -0.1197 -0.0553  0.0111
30195W        W46379  15.659   1.935   0.887 -0.2249 -0.2075 -0.1044
30196W        W46380  12.728  13.264   2.374  0.1874 -0.2393 -0.0176
30197W        W46381  17.591   6.803   1.197 -0.0890 -0.1298  0.1206
30198W        W46382   0.482  14.314   1.446 -0.1316 -0.1417  0.3053
30199W        W46383  16.651  18.472   9.988 -0.0251  0.0427  0.0214
30200W        W46384  17.751   1.246   3.342  0.0814 -0.1129  0.2216
30201W        W46385  11.365  12.562  15.181 -0.1425  0.0001  0.1396
30202W        W46386   6.892   5.976   4.953  0.1301 -0.3917  0.0034
30203W        W46387  16.977  14.921  11.648 -0.4262  0.2189 -0.0317
30204W        W46388   9.771   8.602   2.858  0.1330  0.3349 -0.1330
30205W        W46389  15.230  12.577   1.233 -0.1235 -0.0902  0.0148
30206W        W46390   9.241  10.131  13.286  0.0569  0.1523 -0.1352
30207W        W46391  16.411  16.776   0.299 -0.1448 -0.2230 -0.0573
30208W        W46392  10.097   4.011  14.074  0.2142 -0.0672 -0.0131
30209W        W46393   3.361  14.856   2.297 -0.0341  0.1373 -0.2284
30210W        W46394   8.597   1.073   5.452 -0.4351  0.0461 -0.4450
30211W        W46395   7.204   6.834   0.938 -0.1191  0.1803 -0.1486
30212W        W46396  12.241   3.774   0.660  0.0040 -0.2456 -0.0863
30213W        W46397   2.573   9.366  13.753 -0.1566  0.0970 -0.1630
30214W        W46398  12.106  10.726   0.202 -0.1067  0.1510 -0.4656
30215W        W46399   9.928  15.246   1.235  0.0514  0.1981 -0.1781
30216W        W46400   0.476  10.241   3.919  0.1165  0.0487 -0.0173
30217W        W46401  13.941  16.226   3.784  0.1000 -0.1812  0.0882
30218W        W46402  16.790   4.729   1.500 -0.3055 -0.3486 -0.1999
30219W        W46403   9.044   4.101  15.143  0.4888  0.1115 -0.1199
30220W        W46404   6.060   2.319  12.307 -0.0301 -0.0886 -0.0891
30221W        W46405   8.615   0.451   1.594 -0.2294  0.0745 -0.0757
30222W        W46406   1.704  15.287  12.498 -0.0965  0.0037  0.0305
30223W        W46407  15.064   4.281   3.348 -0.0706 -0.1611 -0.0647
30224W        W46408   6.435   3.739   3.103 -0.2201 -0.3078  0.1799
30225W        W46409  11.897  14.329   3.673  0.0556 -0.0028  0.1820
30226W        W46410   5.580   5.885   0.470  0.2904 -0.1342 -0.1708
30227W        W46411   3.505   2.890  11.640 -0.0621 -0.1401  0.0317
30228W        W46412   2.223   3.043  11.853 -0.1200  0.0327  0.2661
30229W        W46413   3.976  11.553   4.095  0.2244  0.0417  0.0586
30230W        W46414   2.239  15.693   4.978  0.3340  0.1968 -0.0046
30231W        W46415   4.586   5.944  13.176  0.2653  0.0711  0.1613
30232W        W46416  14.677  17.016  13.702  0.1055  0.3152 -0.3280
30233W        W46417  10.525   7.718   1.691  0.2040  0.0450  0.0201
30234W        W46418  13.625   3.763  10.649  0.0656  0.0291 -0.0311
30235W        W46419   8.504  16.474  14.068  0.1223  0.2799 -0.0008
30236W        W46420   1.580  15.727  10.875  0.1383 -0.0246 -0.2799
30237W        W46421   4.498  16.948   5.283 -0.1938 -0.1487 -0.0911
30238W        W46422   9.239  16.091  13.134  0.3997 -0.1180  0.5157
30239W        W46423  11.461   2.041   4.477  0.1955  0.0324  0.4737
30240W        W46424   6.463   4.814  11.006 -0.0219 -0.1456  0.0879
30241W        W46425  15.094   3.572  12.656 -0.0081 -0.0313 -0.2434
30242W        W46426   8.997   6.777  12.646  0.2726 -0.0751 -0.0244
30243W        W46427  13.864   2.840   3.205  0.1480  0.1411  0.0165
30244W        W46428   8.596  17.875  13.601  0.0051  0.0182 -0.1066
30245W        W46429   6.426   0.222  14.250  0.1110  0.1015 -0.0298
30246W        W46430   2.357   3.766  13.000  0.0937 -0.1090  0.4412
30247W        W46431  11.650  10.629  15.405  0.0271  0.4083  0.1711
30248W        W46432  16.000  17.703   1.776  0.0732 -0.0925 -0.0705
30249W        W46433  18.844  12.628  15.416  0.1639  0.0424  0.2361
30250W        W46434  18.034  14.833  13.168  0.0574 -0.1019  0.1623
30251W        W46435   6.602   1.039  14.583  0.0307 -0.1643  0.3123
30252W        W46436   8.594  16.913   1.537  0.3303 -0.2376  0.3397
30253W        W46437   3.958   0.336   3.881  0.0654 -0.0106  0.1549
30254W        W46438   7.248   3.758  14.072 -0.0859  0.2138  0.0261
30255W        W46439   5.270  12.003  14.357 -0.0851  0.0935 -0.2333
30256W        W46440  10.867   6.297  11.370  0.1582 -0.2110  0.0471
30257W        W46441   7.492   4.224   1.723  0.0583 -0.1035 -0.1024
30258W        W46442   0.134  16.132   5.228 -0.3782  0.0127 -0.1166
30259W        W46443   4.147  11.635  11.474 -0.2957  0.0746 -0.1061
30260W        W46444  13.323  18.696  11.917  0.0511 -0.1824  0.2725
30261W        W46445  15.286  18.105   0.758  0.1819 -0.0190 -0.1120
30262W        W46446  16.546  17.008   0.741  0.0217  0.2970  0.1435
30263W        W46447  17.959  12.444  11.557  0.1386  0.2085 -0.2247
30264W        W46448  12.693  15.893  12.834 -0.3607  0.0376  0.1752
30265W        W46449   5.109  11.439   1.033 -0.2227 -0.1453 -0.2447
30266W        W46450   0.927  17.897   5.226  0.1250 -0.0664 -0.0532
30267W        W46451   7.752   6.409   2.981  0.1943  0.0878 -0.0159
30268W        W46452  15.305   6.490   5.843 -0.1329  0.2933  0.0182
30269W        W46453  17.031  12.644   2.724 -0.0787 -0.0057  0.0177
30270W        W46454   6.864   0.486  14.616 -0.2928 -0.0180  0.1157
30271W        W46455  11.616  16.119  15.061 -0.1388  0.3378 -0.3011
30272W        W46456  11.229   8.983  13.273 -0.1724 -0.2977  0.2527
30273W        W46457   7.578  17.536   4.728 -0.2674  0.0931 -0.4993
30274W        W46458  10.754   5.259   2.936 -0.0259 -0.0489 -0.1551
30275W        W46459  11.155   1.862   1.671 -0.4509  0.1415  0.0467
30276W        W46460   4.488   2.360   3.411 -0.0507 -0.0454  0.1251
30277W        W46461   2.747   1.169  15.435 -0.2753  0.3400  0.3529
30278W        W46462  12.726  13.584   1.455  0.0281 -0.0371  0.2545
30279W        W46463   4.939  11.559   3.616  0.3219  0.0375 -0.2018
30280W        W46464   2.037  13.251  15.053  0.0106 -0.1567  0.0597
30281W        W46465  15.659  16.620   2.964  0.1762 -0.3663  0.1475
30282W        W46466  15.090  12.756   2.198  0.1667  0.3352 -0.2802
30283W        W46467  17.177  16.093  12.684 -0.2176 -0.0854 -0.3891
30284W        W46468   2.392  11.875  12.153  0.1484 -0.0845 -0.1231
30285W        W46469   5.779   7.491  11.181  0.0191  0.1191  0.1630
30286W        W46470   5.862  12.449   3.697  0.0283 -0.1580 -0.1401
30287W        W46471   2.849  15.832   3.768 -0.0375 -0.0108  0.0118
30288W        W46472  13.066   2.552  13.290  0.1412  0.1073  0.0307
30289W        W46473   9.530  11.973  11.197  0.0023  0.1721 -0.0513
30290W        W46474   2.743   5.685  13.057 -0.0598  0.1653  0.0083
30291W        W46475  15.861  12.447   0.572  0.1421 -0.2513  0.3096
30292W        W46476   9.622   4.797  14.180  0.1353  0.0973 -0.1380
30293W        W46477  12.462   5.265  12.414  0.1977  0.0246 -0.2058
30294W        W46478   7.079   4.627   4.890  0.5121 -0.1388 -0.0208
30295W        W46479   9.557  16.014   2.449 -0.0500 -0.2894  0.1544
30296W        W46480   7.017  17.083  14.460  0.3891 -0.0050  0.2063
30297W        W46481  15.761   9.191  12.569  0.1190 -0.2747 -0.1330
30298W        W46482  15.027   8.656  15.401 -0.1247  0.1194 -0.0171
30299W        W46483   6.333  13.897  11.972 -0.1422  0.0656 -0.0137
30300W        W46484  18.649  15.676   1.785 -0.1570  0.0027  0.1623
30301W        W46485   8.773  18.384   0.634 -0.1859  0.0392 -0.1461
30302W        W46486   7.946   6.301   1.674 -0.2591  0.2520 -0.1133
30303W        W46487   3.833  12.448   0.545  0.0289  0.1047  0.1972
30304W        W46488   9.487   8.802  13.898 -0.2960 -0.2495  0.2154
30305W        W46489   0.077   2.079  11.965 -0.1327 -0.0209  0.1720
30306W        W46490  15.771   1.033   2.691  0.2609 -0.1348  0.1464
30307W        W46491   7.760   7.961  14.686 -0.1468  0.3671  0.0936
30308W        W46492  12.181  12.527   2.313 -0.1189 -0.1333  0.3337
30309W        W46493   7.099   4.465   3.849 -0.1952 -0.1060  0.0004
30310W        W46494   6.436  14.230  12.821  0.0640  0.2989 -0.2858
30311W        W46495   6.868   2.332   4.107 -0.2257 -0.1940  0.1248
30312W        W46496  14.102  12.291   1.818 -0.2130  0.1326 -0.0999
30313W        W46497   9.496  16.480  13.365 -0.1977 -0.0730 -0.7006
30314W        W46498   1.509   6.934  12.385 -0.1758 -0.2094 -0.2527
30315W        W46499   7.460  13.738   2.785 -0.1093 -0.2121  0.2795
30316W        W46500   8.289   4.579   1.455 -0.0473 -0.0419 -0.3366
30317W        W46501  18.788   4.040  10.863  0.2397 -0.0957  0.0938
30318W        W46502   7.980  13.352  12.870  0.4244 -0.0907  0.2457
30319W        W46503  12.095   6.379   4.275 -0.2627 -0.0300 -0.1694
30320W        W46504   8.734  12.026   5.977 -0.1568 -0.1056  0.1109
30321W        W46505   2.245   5.523  12.982 -0.1255 -0.0712 -0.1744
30322W        W46506   6.199  13.313   4.401  0.1042  0.2338 -0.1719
30323W        W46507  15.703  13.283  12.049 -0.0822 -0.1637 -0.0195
30324W        W46508   7.030   0.929  13.385  0.0817 -0.2816  0.2521
30325W        W46509   3.681  12.422   1.003  0.4198 -0.0235 -0.0824
30326W        W46510  10.819   2.578  14.447  0.0758  0.1452 -0.1830
30327W        W46511   8.935  12.680  13.363 -0.0777  0.0520  0.0702
30328W        W46512   8.866   3.808  13.434 -0.0771 -0.1072 -0.1417
30329W        W46513  11.323   8.446   0.122  0.1691  0.1282  0.1578
30330W        W46514   0.918   0.345   2.607  0.1035 -0.0930 -0.0591
30331W        W46515  12.989   6.381   9.927  0.2980 -0.2340 -0.1911
30332W        W46516  14.386   6.674   4.680  0.0445 -0.1081 -0.5643
30333W        W46517  18.420  17.047   2.881  0.1806 -0.2980 -0.0638
30334W        W46518   8.342   9.663   2.266  0.1564 -0.1797  0.2322
30335W        W46519  14.101  14.691   2.499 -0.2354  0.2665  0.1954
30336W        W46520   0.326   8.808   0.687 -0.4149 -0.1887 -0.5735
30337W        W46521   4.388  17.821   4.084 -0.0480 -0.1090 -0.0943
30338W        W46522   4.175   7.545   3.139 -0.0151 -0.1991 -0.0021
30339W        W46523  14.775   7.777  13.572  0.1503 -0.0526 -0.1729
30340W        W46524   5.383   8.844   0.970  0.1110  0.1023  0.0134
30341W        W46525  15.042   3.828  12.279 -0.3589 -0.7361 -0.0880
30342W        W46526  11.592  15.818   1.447 -0.1482  0.1181  0.1557
30343W        W46527   6.959  14.997   2.695  0.1581  0.3928 -0.0363
30344W        W46528   3.663   6.253  11.482 -0.0441 -0.1979  0.0020
30345W        W46529  11.330   0.767   5.248 -0.2736 -0.0222 -0.1122
30346W        W46530  10.038  12.402  11.681 -0.1680 -0.0412  0.2073
30347W        W46531  11.113  17.458  12.667 -0.2855 -0.1470 -0.0425
30348W        W46532  13.121   9.319  14.459 -0.1965  0.3266  0.1240
30349W        W46533  14.333   4.855   5.016 -0.2193 -0.0078 -0.1220
30350W        W46534  13.605  11.492   0.618  0.1265  0.0603 -0.0429
30351W        W46535  12.332   4.717   4.087  0.2692 -0.2661  0.1317
30352W        W46536  11.397  18.110  12.996 -0.2267  0.1094 -0.1194
30353W        W46537   6.147  10.727   2.380 -0.3205  0.2173  0.0991
30354W        W46538  14.530   5.381   2.290  0.0922  0.2177  0.1017
30355W        W46539  15.777   5.843   4.423 -0.2328 -0.3620 -0.2404
30356W        W46540   3.843  14.525   4.998  0.2706 -0.1059  0.3691
30357W        W46541   9.707  18.476   2.584 -0.0446  0.0790  0.3051
30358W        W46542   1.876  16.490  15.271 -0.2304 -0.0735 -0.1220
30359W        W46543  17.601   6.410   0.006  0.2084  0.0137  0.1649
30360W        W46544   2.932   7.602   0.244  0.3780 -0.0255 -0.2098
30361W        W46545   0.395   7.925  13.796  0.0618 -0.1246  0.1730
30362W        W46546   3.740  14.034  14.816 -0.0930  0.1651 -0.1502
30363W        W46547  11.474   1.057  15.118  0.0085  0.3583  0.0542
30364W        W46548   2.032   8.352   1.180  0.0179  0.0170 -0.1555
30365W        W46549   9.315  17.810   3.242  0.0123 -0.2202 -0.2504
30366W        W46550  15.610   7.080   0.719  0.3784  0.0054 -0.1343
30367W        W46551   2.071  10.449  12.820 -0.0494 -0.0774 -0.1196
30368W        W46552  10.425  13.251  12.391 -0.1949 -0.2939 -0.0058
30369W        W46553  13.624   6.990  13.830 -0.0038 -0.0748  0.1828
30370W        W46554   8.490   8.208   0.482  0.0288  0.0051  0.0273
30371W        W46555   6.978   9.601   2.700 -0.2050  0.0994 -0.1333
30372W        W46556  17.456  18.099  13.355  0.3533  0.0471  0.0876
30373W        W46557   1.900   0.108   0.901  0.3634 -0.1407 -0.0906
30374W        W46558   6.010   6.275  14.693  0.2224  0.0071 -0.2197
30375W        W46559  11.134   8.800  13.865  0.1816  0.3031 -0.1867
30376W        W46560   7.809  14.024   5.754  0.3320  0.1358  0.2204
30377W        W46561   2.529  12.765  14.552 -0.0540  0.3245 -0.1187
30378W        W46562   4.145   2.089   3.584  0.0312 -0.0190 -0.1136
30379W        W46563  13.184  14.524  11.582  0.0130 -0.1238  0.1258
30380W        W46564   7.724  13.280  11.728 -0.0886 -0.0481 -0.3285
30381W        W46565   1.800  11.964   3.758  0.1106 -0.3248 -0.0600
30382W        W46566  13.707  13.197  10.526 -0.0462  0.0132  0.1550
30383W        W46567  12.921   7.466   0.223  0.1405 -0.0333  0.0663
30384W        W46568  13.138  15.577  14.479 -0.0115  0.0020  0.2437
30385W        W46569  11.755  16.194   2.912  0.0183 -0.2628 -0.0290
30386W        W46570   8.174   4.112  11.085  0.1595 -0.0373  0.0325
30387W        W46571  18.454  10.985  10.593  0.1827  0.1289 -0.0510
30388W        W46572   0.919   0.492   2.136  0.0476  0.0210 -0.3034
30389W        W46573  12.031  13.835   2.655  0.4046 -0.1013  0.1758
30390W        W46574  16.189   8.372   2.470  0.0614 -0.0652  0.0277
30391W        W46575   4.695   1.349  11.511 -0.1058 -0.1202  0.0211
30392W        W46576   7.752   8.753  13.304 -0.2103 -0.0636 -0.3160
30393W        W46577   0.049   9.949   3.775 -0.1079 -0.0837 -0.1416
30394W        W46578  14.608   3.203   5.144 -0.0240  0.1252 -0.1272
30395W        W46579   5.462  13.595   0.340  0.2588  0.1116  0.0467
30396W        W46580   8.614  15.290   1.809 -0.2271  0.0413  0.3434
30397W        W46581  11.964   0.513  12.076 -0.3112 -0.2331  0.1453
30398W        W46582   3.217   3.200   2.891  0.0414  0.0888  0.0934
30399W        W46583   2.892  14.358   6.018  0.1001  0.3667  0.2436
30400W        W46584  13.273   3.213  13.281 -0.0885  0.3000  0.0114
30401W        W46585  13.191  11.448   3.617  0.1005 -0.0362 -0.0508
30402W        W46586   2.661  12.451   2.956 -0.1061  0.0635 -0.4509
30403W        W46587  11.680  11.141   4.557 -0.1035 -0.0724 -0.0690
30404W        W46588   1.830  17.922   2.982  0.0125 -0.4113 -0.0162
30405W        W46589  17.010  12.185   4.559 -0.5032 -0.0924  0.0282
30406W        W46590   4.294  17.742  13.421 -0.3318 -0.0117 -0.1809
30407W        W46591   2.220  17.369   1.906 -0.0199  0.3062 -0.1903
30408W        W46592   0.441  18.835  13.270  0.2023  0.1412 -0.1724
30409W        W46593  11.654  13.521  12.301  0.2376 -0.2426 -0.0380
30410W        W46594  13.311  10.115   3.693  0.1425  0.3011 -0.0546
30411W        W46595   8.553   4.809  14.599 -0.0519 -0.0995 -0.0697
30412W        W46596   1.383   7.470  12.121 -0.1341  0.0691  0.0705
30413W        W46597  12.835   2.108   3.002  0.0410 -0.1363  0.0805
30414W        W46598   8.847  10.151  12.921 -0.1329 -0.0788 -0.0934
30415W        W46599   6.518   5.703   4.197 -0.1013 -0.3151 -0.1538
30416W        W46600   5.288  15.386   1.036  0.0206 -0.2232  0.2212
30417W        W46601   0.278   6.802   2.256  0.0307 -0.2912  0.1121
30418W        W46602  17.482   4.745  15.025  0.2462  0.0021 -0.1283
30419W        W46603   0.327   3.762  14.970  0.1999  0.1750 -0.1849
30420W        W46604   2.783   9.660  14.784  0.1875 -0.3583  0.1574
30421W        W46605   1.267   7.790  11.333  0.1924 -0.1214 -0.0856
30422W        W46606   9.423  17.749   0.613 -0.0813  0.3522  0.1280
30423W        W46607  13.396   7.361  13.507 -0.2652 -0.0658  0.0633
30424W        W46608  14.058   0.509   0.162  0.0253  0.0049  0.0275
30425W        W46609  16.048   1.777   3.050 -0.0472 -0.2007 -0.3447
30426W        W46610   7.121   4.232  14.251  0.0814 -0.0570  0.2044
30427W        W46611   1.290  14.764  12.363  0.1202  0.0261 -0.1696
30428W        W46612   2.396   6.473   0.359 -0.3256  0.0786  0.2681
30429W        W46613   0.256   4.303   2.224  0.1359 -0.1888 -0.1830
30430W        W46614   4.429  14.580   4.248 -0.1335 -0.2076 -0.2589
30431W        W46615   0.333   9.032   3.754  0.1350 -0.0272 -0.1158
30432W        W46616  12.478  11.998  13.890 -0.1309  0.4172  0.4410
30433W        W46617  12.695   6.140  11.685  0.3111  0.0021  0.2408
30434W        W46618  11.605   8.874   1.031  0.1189  0.1266 -0.0514
30435W        W46619  12.556  13.914   5.331  0.0425 -0.1315  0.0792
30436W        W46620   6.559   8.068  14.743  0.0350  0.2035  0.2325
30437W        W46621   1.626   9.632   3.464  0.0836  0.2677  0.0069
30438W        W46622  12.935   2.159   2.072 -0.0161  0.1129  0.4184
30439W        W46623  14.173  15.808  15.287 -0.1592 -0.0381  0.0457
30440W        W46624   3.585   6.499  12.692  0.0402  0.0545  0.0681
30441W        W46625   0.308   6.581  13.099  0.1329 -0.1366 -0.1211
30442W        W46626  15.835  11.040   2.181  0.1207  0.0104 -0.3716
30443W        W46627   6.440  16.102  11.825 -0.2015  0.0635 -0.2711
30444W        W46628   4.990  10.975   1.702  0.0357 -0.4422 -0.1878
30445W        W46629   7.187   4.601   1.925 -0.1682 -0.1805  0.2261
30446W        W46630   3.498  13.676  13.890  0.0523 -0.1862  0.1771
30447W        W46631   3.768   6.552   0.736 -0.0543  0.0262 -0.0127
30448W        W46632  16.828  13.625  15.272 -0.3689  0.0131  0.5256
30449W        W46633  12.993  12.573  13.342 -0.0138 -0.0833  0.1025
30450W        W46634   3.233   7.241  13.056  0.3236 -0.0139  0.1897
30451W        W46635   8.908  17.760  12.705 -0.2091 -0.0722  0.3175
30452W        W46636   0.639   6.112   2.418 -0.0903  0.1848  0.2081
30453W        W46637   3.914   7.108   1.951 -0.1706  0.3265 -0.0061
30454W        W46638  17.941   3.057   1.157 -0.1281  0.0001 -0.1254
30455W        W46639   1.841   7.803   1.946  0.2054  0.0976  0.2275
30456W        W46640  15.621  12.248   1.555 -0.0537  0.0439  0.0379
30457W        W46641   4.196  13.468  11.194 -0.2840 -0.2359 -0.2458
30458W        W46642  12.829  18.298  13.754 -0.0069 -0.2937 -0.0351
30459W        W46643  13.350  12.990   5.305 -0.0642  0.1394 -0.1175
30460W        W46644   8.332  15.282  12.928  0.0939  0.2934 -0.1474
30461W        W46645   3.303   2.342   3.321  0.0021  0.2560  0.0299
30462W        W46646   9.997  18.145  12.569  0.1330  0.3241 -0.1045
30463W        W46647  11.525  17.164   0.952 -0.0559  0.2657  0.0502
30464W        W46648   5.798   1.484  12.274  0.3592 -0.1082 -0.0980
30465W        W46649  11.982  17.944   2.861  0.1264  0.3561  0.4214
30466W        W46650   5.040   4.377  11.765 -0.0049  0.0503 -0.1499
30467W        W46651  11.555   0.007  13.513  0.0117 -0.1753  0.2207
30468W        W46652   0.940   2.890   3.970  0.0649 -0.0206 -0.0327
30469W        W46653   2.565   4.672  14.549  0.3041 -0.0647 -0.1408
30470W        W46654  16.835  14.130  15.522 -0.1189  0.2000  0.2439
30471W        W46655  13.830  13.918  12.273  0.1683 -0.3052  0.0903
30472W        W46656   3.501  18.348  11.884  0.0564  0.1686  0.1516
30473W        W46657   2.083  16.398  11.149  0.0084  0.1678 -0.0584
30474W        W46658  10.150   2.140   0.209  0.1640 -0.0428  0.0990
30475W        W46659  13.664   9.641  11.251 -0.1484  0.1325 -0.0409
30476W        W46660   9.681   6.354   1.879  0.0836  0.1656  0.2587
30477W        W46661   5.659   2.451   0.405 -0.1177  0.0656 -0.0465
30478W        W46662   8.673  13.381   0.739 -0.3879 -0.1847  0.1002
30479W        W46663   8.190   2.315   3.671 -0.1203 -0.0231 -0.2643
30480W        W46664  15.127  18.602   2.391 -0.0788  0.3007  0.2302
30481W        W46665  13.893  13.995   2.429 -0.0613 -0.0066  0.4052
30482W        W46666  12.008   0.617   0.579 -0.1503  0.1712  0.2679
30483W        W46667   7.782  10.904   1.342  0.1269 -0.0090 -0.1622
30484W        W46668   8.858  11.580   1.286  0.1780  0.0166  0.3212
30485W        W46669  15.000   9.384  12.135 -0.0022 -0.0836 -0.2515
30486W        W46670   5.077   9.810   4.397 -0.0027  0.0374 -0.1149
30487W        W46671  17.352   6.573   2.396 -0.0587  0.2631 -0.0879
30488W        W46672   5.477   4.619  12.575 -0.0228 -0.0370 -0.1405
30489W        W46673   9.050   3.425   3.204  0.2836  0.1603  0.0025
30490W        W46674   0.826  10.556  12.388  0.1056 -0.1917  0.1754
30491W        W46675   6.646   0.877   2.794  0.1476  0.0226  0.1693
30492W        W46676   0.046   6.037  15.396  0.1567 -0.2853  0.0579
30493W        W46677  14.540   0.752  13.969  0.1303  0.1018  0.2859
30494W        W46678  14.240  10.187  13.928 -0.2572 -0.1945  0.1722
30495W        W46679   2.763   9.364   1.950 -0.0549 -0.1576  0.2130
30496W        W46680  10.818  17.199  12.347 -0.0317  0.0180 -0.0077
30497W        W46681   7.900   4.239  14.631  0.2347  0.0543 -0.0200
30498W        W46682   1.584   4.363   3.579 -0.1824 -0.0748 -0.1412
30499W        W46683   9.561  17.022  12.531 -0.1049 -0.2301  0.0101
30500W        W46684  17.949   4.483  13.310 -0.1541  0.0059 -0.0476
30501W        W46685  11.161  16.459  11.693 -0.3863  0.0095 -0.0005
30502W        W46686   2.696   1.152   5.741 -0.2079 -0.0599  0.0416
30503W        W46687  12.365   1.138  15.016  0.1156 -0.0098  0.0227
30504W        W46688   1.369  16.513  15.261 -0.0995 -0.0544 -0.1403
30505W        W46689  13.653  10.210   2.502 -0.0368 -0.1860 -0.0603
30506W        W46690  14.916  18.779   0.049 -0.1856 -0.2483  0.2287
30507W        W46691  12.960  14.167  11.846  0.0706  0.0036  0.2962
30508W        W46692  13.820  17.367  11.836  0.1129  0.1851  0.3545
30509W        W46693   0.979   3.203   0.838  0.0176  0.0535 -0.0020
30510W        W46694  15.903   5.698  14.375  0.0822 -0.1396 -0.1447
30511W        W46695   9.236   0.782  12.722  0.1943  0.1575  0.2203
30512W        W46696  14.400  14.107  14.223 -0.2058  0.0414  0.4311
30513W        W46697  17.736   0.770   4.305 -0.3120  0.1549 -0.0241
30514W        W46698   6.855   0.457  13.283  0.0887 -0.0195 -0.1225
30515W        W46699  15.176  14.930  13.954 -0.3218 -0.1370 -0.1060
30516W        W46700   3.554   4.392  14.648 -0.0435 -0.1032  0.0481
30517W        W46701   2.500  13.421   1.765 -0.2590  0.2113 -0.0322
30518W        W46702   2.793  10.466   5.104  0.0793 -0.1033  0.1227
30519W        W46703   1.541   7.368   5.573 -0.2219 -0.0406  0.1790
30520W        W46704   9.589  15.850  13.355  0.0591 -0.1528  0.0219
30521W        W46705   8.395  14.787  15.360  0.0622 -0.1425 -0.2978
30522W        W46706  16.196  13.581  11.341 -0.0261 -0.3743 -0.3759
30523W        W46707  12.985   9.929  15.221  0.2015 -0.1585 -0.3490
30524W        W46708   1.734  16.081  12.195  0.1626  0.0962 -0.3061
30525W        W46709   6.604  11.110  12.341 -0.0124  0.0105  0.0729
30526W        W46710  14.567  18.572   0.940 -0.1779  0.0606 -0.0899
30527W        W46711  16.636  18.212   0.401  0.2560  0.2124 -0.2381
30528W        W46712   7.721   2.538   2.278  0.0256  0.1384  0.0245
30529W        W46713   1.355  13.935  14.093 -0.1412 -0.0674 -0.3155
30530W        W46714   0.141   9.613  12.186  0.3269  0.0338  0.1311
30531W        W46715  11.215  11.349  11.586 -0.0062  0.0840 -0.1269
30532W        W46716   8.241  10.304   2.742  0.0128 -0.1788 -0.1678
30533W        W46717   4.934  13.922  11.388 -0.0878  0.0538  0.1457
30534W        W46718  15.537   3.560   4.277  0.0087  0.1386 -0.2023
30535W        W46719  18.458  14.495  13.923 -0.0250 -0.1417  0.1250
30536W        W46720  10.286   9.376   3.618 -0.0454 -0.0016  0.0735
30537W        W46721  15.586   2.341   2.359  0.0355 -0.1564 -0.0521
30538W        W46722   3.910   3.603  13.710  0.0526  0.1916 -0.0183
30539W        W46723   0.734   0.027   2.058  0.1712 -0.0596 -0.0891
30540W        W46724  18.753   1.871   1.162  0.0722  0.1472 -0.1969
30541W        W46725   5.430   8.588  12.250  0.0088 -0.1072 -0.1159
30542W        W46726   1.795   5.828   3.515 -0.0831  0.0123  0.2952
30543W        W46727   2.239   2.359  13.365 -0.1115  0.0990 -0.1310
30544W        W46728  13.181   5.514   1.587  0.3143 -0.4174  0.0217
30545W        W46729  10.608   3.288  10.286 -0.2358  0.2533  0.1343
30546W        W46730  13.343   4.209  10.613  0.2299 -0.0654 -0.1299
30547W        W46731   6.812  13.575   2.242 -0.0391  0.2754  0.1280
30548W        W46732   7.284   4.676  12.890 -0.1723  0.2689 -0.1238
30549W        W46733  15.735   1.070  14.086 -0.0992  0.0180  0.1798
30550W        W46734   5.652   4.175   4.612 -0.2182  0.1627  0.0446
30551W        W46735   6.925   2.110  11.964  0.3778  0.0081 -0.1296
30552W        W46736  17.730   9.230  14.473  0.4687 -0.2168 -0.1072
30553W        W46737  16.747   4.477   1.074 -0.2292  0.0652  0.2851
30554W        W46738   4.927   5.655   1.447  0.0034  0.1052 -0.1311
30555W        W46739   8.674   4.986  15.076  0.1418  0.2399  0.3518
30556W        W46740  11.020  17.713   2.583 -0.3472 -0.0251 -0.0908
30557W        W46741   4.613  12.399   3.533 -0.1778  0.0777 -0.0215
30558W        W46742  13.882   1.210   1.341  0.2265  0.0846 -0.4601
30559W        W46743   9.211  16.497   2.175 -0.3033 -0.2426  0.2267
30560W        W46744   9.018  13.193  10.951  0.3351  0.0663 -0.0919
30561W        W46745  16.372   5.805   4.684  0.1941  0.0331 -0.3261
30562W        W46746   6.185  11.755  12.182  0.3561  0.0963  0.1686
30563W        W46747  10.326  13.671   1.618 -0.1907  0.3850 -0.2326
30564W        W46748   2.121   8.121   3.910 -0.5218  0.1674 -0.0889
30565W        W46749  18.033   3.312   4.781 -0.2916  0.1708  0.4943
30566W        W46750   7.633   9.500  12.823 -0.1496  0.5735 -0.0221
30567W        W46751   8.781  11.922  11.219  0.0370 -0.1989 -0.0196
30568W        W46752   0.687   5.675  13.919  0.2517  0.3973 -0.0899
30569W        W46753   1.369   7.962   4.565  0.3631  0.1514  0.1774
30570W        W46754   2.536   4.788   4.651 -0.2307  0.0185 -0.1318
30571W        W46755  18.608  11.635   1.822 -0.1338 -0.0226 -0.1771
30572W        W46756  14.782  18.097   5.801  0.1287 -0.2306  0.0043
30573W        W46757   7.856  13.651  12.032  0.1827 -0.0567  0.0042
30574W        W46758   7.241  10.866  14.838 -0.1741 -0.0853 -0.2326
30575W        W46759   1.048  16.641  11.335 -0.0273 -0.0600  0.1329
30576W        W46760   4.136   4.181  13.631 -0.0188  0.1180  0.0901
30577W        W46761  14.535  13.874   3.503 -0.0504  0.4596 -0.0718
30578W        W46762  11.814   1.106   0.601  0.3187  0.0247  0.2542
30579W        W46763  17.656  14.853  14.389 -0.2819 -0.0368  0.0765
30580W        W46764  10.048   1.391   3.800 -0.4829  0.3972  0.0281
30581W        W46765   7.083  14.151  12.932 -0.0233 -0.0445  0.1093
30582W        W46766   5.425  13.931  11.682  0.0339 -0.2108 -0.2420
30583W        W46767   0.202  17.579  11.986 -0.1476  0.0381  0.2384
30584W        W46768   7.211  13.721   1.860 -0.1247 -0.0645  0.1963
30585W        W46769   4.940   8.728  13.480  0.1211 -0.0984 -0.3476
30586W        W46770   7.721  14.115  11.792  0.1698 -0.1125  0.0784
30587W        W46771   2.144   9.138   0.561 -0.0031  0.1317  0.3042
30588W        W46772   1.240   4.608   1.551 -0.3171  0.1247 -0.0851
30589W        W46773   0.015  17.980  11.210  0.1822 -0.0928  0.0194
30590W        W46774   2.345   2.695   4.251 -0.0442 -0.0574 -0.2089
30591W        W46775  11.536  16.937  13.558  0.1689  0.1321  0.1231
30592W        W46776   7.916   3.166   4.949  0.0923  0.0493 -0.0217
30593W        W46777  12.039  11.896   2.820 -0.0773  0.0484 -0.0210
30594W        W46778   1.372  11.167   0.448 -0.0877 -0.0916  0.1445
30595W        W46779   0.259  13.799   2.301 -0.1422  0.0961  0.1580
30596W        W46780   8.174  14.353  13.431 -0.0511  0.1120  0.1132
30597W        W46781  18.246  17.957  11.195  0.1363 -0.2040 -0.2639
30598W        W46782   2.762  16.464   2.011 -0.2807  0.1420  0.1220
30599W        W46783   0.071   1.864   2.765 -0.4172  0.3867  0.3154
30600W        W46784   9.436   9.172   4.104  0.1102 -0.0133 -0.1651
30601W        W46785   1.816  16.550  14.066 -0.1847 -0.0260 -0.0330
30602W        W46786   3.358  16.142  15.264 -0.1462  0.2185 -0.0738
30603W        W46787  16.769   3.440   0.367  0.1354 -0.0195 -0.1694
30604W        W46788   9.517   0.801  15.308  0.2825 -0.0404  0.0085
30605W        W46789  13.965   6.915   4.500  0.0937  0.2625 -0.1106
30606W        W46790   6.146   6.461   5.008  0.2189  0.2742 -0.2076
30607W        W46791   6.215   8.345  11.675 -0.0796 -0.0164 -0.0816
30608W        W46792   8.799   0.308  12.273  0.0774 -0.0479  0.1290
30609W        W46793   8.276  15.221   0.080  0.3165 -0.2797  0.0154
30610W        W46794   5.701  16.942   1.788  0.0551  0.1481  0.1443
30611W        W46795   9.600  14.395   1.389  0.0613 -0.0886 -0.3984
30612W        W46796  17.240  11.218   2.280  0.1865 -0.3457 -0.0716
30613W        W46797  13.576  17.452  14.514 -0.2585 -0.3430 -0.1429
30614W        W46798  18.397  13.732   1.510  0.5085  0.0067  0.0835
30615W        W46799  13.204   9.757  14.231  0.2848 -0.0462  0.1775
30616W        W46800   1.067   6.895   3.065 -0.0292  0.1989  0.1785
30617W        W46801   6.244  10.545   0.039 -0.3034 -0.0160  0.1031
30618W        W46802  13.365   9.615   2.409 -0.0090  0.0132 -0.0861
30619W        W46803   1.373   0.834   0.444 -0.0094 -0.0404  0.0610
30620W        W46804   5.844   2.021   1.456  0.0508 -0.0694  0.0354
30621W        W46805  15.715  14.912  13.898 -0.4023  0.1816 -0.2895
30622W        W46806   7.735   7.063  11.156 -0.1060  0.0180 -0.1005
30623W        W46807  18.513   1.180   4.477  0.0379 -0.0083  0.2541
30624W        W46808  13.282   1.637  13.480  0.1656  0.1553 -0.0683
30625W        W46809   2.751  11.623  12.584  0.0700 -0.2428 -0.2748
30626W        W46810   0.525  14.285   2.313 -0.0807  0.0882 -0.4159
30627W        W46811   8.854   4.928   3.902  0.3244  0.1761  0.1427
30628W        W46812  15.360  10.660  11.497 -0.2053  0.2267  0.1469
30629W        W46813   0.380   6.174  13.445 -0.0690 -0.0659 -0.0244
30630W        W46814  15.714   9.203   1.650  0.3123 -0.0261  0.0014
30631W        W46815   4.024   1.225   1.792 -0.2288  0.4099  0.1309
30632W        W46816   1.496  16.867   2.276 -0.0073  0.0485  0.0266
30633W        W46817  13.350   4.499   4.647 -0.1476  0.0247  0.0577
30634W        W46818   3.904   4.576  13.307 -0.1419 -0.2359 -0.0381
30635W        W46819  18.149  12.215  13.877 -0.4507  0.0859 -0.0308
30636W        W46820   1.743   9.710   9.547  0.6548  0.2705 -0.2113
30637W        W46821  10.083  15.796  11.912  0.0009  0.1122 -0.1783
30638W        W46822   9.851   0.398  13.465 -0.4749  0.2188  0.0922
30639W        W46823   2.428   6.755   3.256  0.0203 -0.3673  0.1567
30640W        W46824  13.786  16.087  13.707  0.2142  0.0288 -0.0647
30641W        W46825  16.388   4.924  11.800 -0.1867  0.2928 -0.0301
30642W        W46826  14.432  10.930   2.101  0.1604 -0.1167  0.0789
30643W        W46827  11.106   1.410   1.238  0.0321  0.1069  0.1586
30644W        W46828   2.175   3.750  14.659 -0.0238 -0.3194 -0.1819
30645W        W46829  14.519   5.269   1.117  0.0367  0.2643  0.1939
30646W        W46830   0.313   6.600   2.709 -0.0350  0.3216 -0.3329
30647W        W46831   3.647  10.027  12.540 -0.2254 -0.1553  0.2331
30648W        W46832   1.233  13.166   1.796  0.0370  0.0489 -0.0399
30649W        W46833  17.366  17.423   0.376 -0.0907 -0.1312  0.0814
30650W        W46834  15.823   3.108   0.182  0.2047 -0.0054 -0.2749
30651W        W46835  17.013   1.834   4.473 -0.4739 -0.0597  0.0871
30652W        W46836  10.354   0.728   0.345  0.0800  0.1516 -0.1068
30653W        W46837  10.933   2.115   2.317  0.0710  0.0214 -0.1841
30654W        W46838   4.131   4.639  12.817  0.2036 -0.0806 -0.2479
30655W        W46839  12.421   4.851   4.685  0.0081 -0.2805 -0.1841
30656W        W46840   9.272  16.443   0.907  0.0045  0.1024  0.1018
30657W        W46841   6.755  11.708   0.386  0.1322  0.0719 -0.1420
30658W        W46842  11.147   4.426  10.772  0.0166  0.0067  0.0146
30659W        W46843  13.880   9.476  12.498 -0.0009 -0.1530  0.0744
30660W        W46844  14.276   8.440   3.108 -0.4191  0.0759 -0.1030
30661W        W46845  13.241  13.719  11.088 -0.3341  0.2445  0.0592
30662W        W46846   4.201   0.908  12.780  0.1295 -0.1118 -0.2739
30663W        W46847   9.187   4.457  14.053 -0.0710 -0.0468  0.0015
30664W        W46848   2.583   1.939   1.580 -0.3180  0.0639  0.0877
30665W        W46849  13.735   3.511   0.770 -0.1813 -0.0470  0.1592
30666W        W46850   0.913  10.463   4.424 -0.1045  0.0418 -0.0962
30667W        W46851   0.013   2.369   3.834  0.0368 -0.0554  0.1271
30668W        W46852   3.386   1.837   3.076 -0.2491  0.0035 -0.1234
30669W        W46853  16.039  13.964  14.866 -0.0150  0.2356 -0.0084
30670W        W46854  10.202   7.053  11.377  0.3216  0.3011  0.0091
30671W        W46855   3.316   2.896   4.527  0.0829  0.1409  0.1901
30672W        W46856  16.310  17.738  15.057  0.0087 -0.0129  0.0404
30673W        W46857   7.189   1.789  11.741  0.4628 -0.1458 -0.0838
30674W        W46858  15.356  16.106  11.416  0.0658  0.1137 -0.1264
30675W        W46859   2.252  12.918   5.499  0.0250 -0.0966  0.0975
30676W        W46860  14.523  10.731  14.642  0.1517  0.1825 -0.1360
30677W        W46861   0.129  16.263  13.754  0.1363  0.1555 -0.0123
30678W        W46862   1.114  16.595   5.023 -0.6033 -0.2725 -0.0341
30679W        W46863  12.881   0.118   0.275  0.0857  0.4073  0.0297
30680W        W46864  18.756  17.089   1.426  0.0382 -0.2904 -0.0275
30681W        W46865   1.878   0.277   5.365  0.0671 -0.0660 -0.2466
30682W        W46866  11.173   8.503  11.102 -0.1152 -0.1272  0.0570
30683W        W46867   5.089   0.160   2.377 -0.3471 -0.1721  0.2027
30684W        W46868  18.806   6.012   3.152 -0.3173 -0.0504 -0.1311
30685W        W46869  17.748   4.922   9.587 -0.1138  0.0679 -0.0318
30686W        W46870  16.624   1.036  13.055  0.1019  0.1590  0.0914
30687W        W46871   9.607   8.709  12.262  0.2172 -0.0038  0.0341
30688W        W46872   9.862  17.457  15.181  0.0018 -0.0448  0.2022
30689W        W46873   1.553   2.673   4.628  0.0711  0.3136 -0.0144
30690W        W46874  12.459   6.112   3.000  0.0451 -0.0552 -0.1196
30691W        W46875   9.498  16.994  11.554 -0.1483 -0.0151  0.0527
30692W        W46876  15.074  16.761   1.522 -0.0853 -0.3981  0.2444
30693W        W46877  18.339  17.659   2.207 -0.0239 -0.2976  0.2640
30694W        W46878  14.733  11.666  14.651 -0.1456  0.0591 -0.1375
30695W        W46879  18.283   1.970   3.115 -0.1617  0.0481  0.0746
30696W        W46880  14.739   3.007  10.871  0.1031  0.0331 -0.2192
30697W        W46881  16.727  10.221   5.504 -0.1560  0.1329 -0.0237
30698W        W46882  11.899   0.191   4.426 -0.1651  0.2039  0.0901
30699W        W46883  11.628   0.032   2.592 -0.0957 -0.0324 -0.0535
30700W        W46884   4.534  13.000   2.384 -0.2730  0.1988  0.1134
30701W        W46885  17.699  17.243   0.841 -0.0881 -0.3942 -0.2464
30702W        W46886  18.615  17.376   0.568 -0.1359  0.0725 -0.4470
30703W        W46887   7.532   1.925   4.282  0.2139  0.2192  0.0742
30704W        W46888  11.845  16.791  13.172 -0.2355 -0.0348  0.0179
30705W        W46889   8.875  10.488  10.530  0.2736  0.5052 -0.1298
30706W        W46890   3.757  11.619  10.268 -0.0702 -0.3072  0.0677
30707W        W46891  12.376   0.947  14.559  0.0425 -0.0352  0.0807
30708W        W46892  10.981  18.589   4.139 -0.0614  0.1231  0.3060
30709W        W46893  12.430   8.449   3.295  0.3707  0.0027 -0.3125
30710W        W46894   1.702   6.867  14.783  0.1806 -0.0445  0.0702
30711W        W46895  11.489   2.024   0.625  0.0599 -0.0022  0.3410
30712W        W46896   3.935  15.379   0.311 -0.2631 -0.1882  0.1512
30713W        W46897  15.864   5.413   0.001  0.3363 -0.1607  0.0199
30714W        W46898  18.716  15.921  15.418 -0.0028  0.0632 -0.0398
30715W        W46899  15.507   9.067   4.812 -0.1103  0.1330 -0.1160
30716W        W46900   2.675   2.153  11.566 -0.0974 -0.1390  0.1114
30717W        W46901   7.935   0.287   5.070 -0.1271 -0.0228  0.0128
30718W        W46902  12.315   8.871  14.396 -0.2994  0.1990  0.1205
30719W        W46903   7.879  15.864  14.767 -0.0162 -0.0346 -0.1362
30720W        W46904   0.700   6.056   3.931 -0.2210 -0.5050 -0.3060
30721W        W46905  15.777   1.486  12.120  0.0071 -0.1474  0.0202
30722W        W46906  10.269  12.262  10.441  0.2580 -0.4211 -0.0486
30723W        W46907  17.422  16.571  13.653  0.2684 -0.0891 -0.0208
30724W        W46908  14.188  18.669  13.528 -0.0412  0.0042 -0.0502
30725W        W46909  17.792  15.531   3.900 -0.5770  0.1147  0.0482
30726W        W46910  15.445   6.102   3.664 -0.1571 -0.0173  0.1160
30727W        W46911  18.268   5.704  12.604  0.1191  0.0680 -0.0675
30728W        W46912  12.021   2.858  14.839 -0.2697  0.2374 -0.0967
30729W        W46913   0.426  13.936  13.379  0.1239  0.2051  0.1442
30730W        W46914  16.723   2.391  12.325 -0.0624 -0.0249 -0.2189
30731W        W46915   4.914  11.559  14.510 -0.1225 -0.1611  0.3161
30732W        W46916  10.966  11.444   4.723  0.0051  0.1834  0.1922
30733W        W46917   9.680  10.765  11.611 -0.0366 -0.1079  0.1664
30734W        W46918  11.691   4.962   0.746  0.1484  0.2333  0.1949
30735W        W46919  13.555   3.411   2.526 -0.0848 -0.2809  0.5127
30736W        W46920  13.294  10.566   3.470 -0.0397  0.3184 -0.4718
30737W        W46921  15.298  15.242  10.758  0.1037 -0.0282  0.2821
30738W        W46922  16.300   8.849   1.255 -0.1801 -0.0353 -0.1442
30739W        W46923  14.054  17.258  11.421 -0.1389  0.1460 -0.0808
30740W        W46924   2.988   0.085  14.558 -0.2405 -0.2703 -0.0966
30741W        W46925   5.473   6.452   0.442 -0.1525  0.1202 -0.1639
30742W        W46926  18.027  18.054  10.741 -0.0225 -0.2298  0.1010
30743W        W46927   1.066  10.896   4.676 -0.0039 -0.0464 -0.0741
30744W        W46928   5.439  18.334   0.422 -0.2170  0.0100  0.0496
30745W        W46929  11.683  13.750  14.129 -0.0825  0.1847  0.1714
30746W        W46930   8.610  17.056  14.489  0.2907 -0.0792 -0.0030
30747W        W46931   7.130  15.893  12.390  0.3310  0.0705  0.0543
30748W        W46932  11.229  11.012  10.913 -0.1237 -0.1898  0.3429
30749W        W46933  14.923   1.832   0.193 -0.2527  0.3336 -0.0996
30750W        W46934   6.800  10.299  14.746 -0.0147 -0.0447 -0.0458
30751W        W46935   0.744  18.286   3.129 -0.1847  0.1566  0.3326
30752W        W46936   9.012  10.560  14.356 -0.0612  0.0620  0.0602
30753W        W46937  10.435   7.801   3.867 -0.1365 -0.1437  0.0369
30754W        W46938   8.398   5.203  13.449 -0.1999  0.1631  0.2758
30755W        W46939   5.281   3.097  14.368 -0.0855  0.0083 -0.0726
30756W        W46940  17.975  11.579   2.576 -0.3567 -0.1001  0.5012
30757W        W46941   7.918  10.797   3.577  0.0142  0.1566 -0.1029
30758W        W46942  10.258   9.013   1.154 -0.0541  0.2751 -0.0024
30759W        W46943   2.856  14.367   1.687  0.1659  0.1914  0.3295
30760W        W46944  14.184  18.778   1.483 -0.1342 -0.5248 -0.1007
30761W        W46945   9.254  17.895   5.245  0.1802  0.2131 -0.2630
30762W        W46946  14.833   8.551  12.333 -0.1791  0.1815  0.3672
30763W        W46947   8.088  17.938  13.268  0.1999  0.1870 -0.1798
30764W        W46948   3.853   1.657   4.591  0.0319 -0.1797 -0.2430
30765W        W46949  17.399  13.060  12.934 -0.1931  0.1171  0.5816
30766W        W46950  18.642   7.373  11.081 -0.1970 -0.1032 -0.0616
30767W        W46951   6.028   1.809   4.394 -0.2078  0.2299  0.0031
30768W        W46952   8.792  17.416   4.345  0.0477  0.1465  0.2366
30769W        W46953   7.387   4.275  14.696 -0.0664 -0.0932 -0.2062
30770W        W46954  14.557   5.998   5.454 -0.1671 -0.3834 -0.1113
30771W        W46955   9.467   8.288  13.950 -0.0560  0.0636  0.2264
30772W        W46956   1.614   8.318  13.476  0.1392 -0.1650 -0.2175
30773W        W46957   6.012   8.633   4.185  0.1591  0.2020 -0.0247
30774W        W46958  16.942  14.117   1.342 -0.1286  0.0431 -0.1890
30775W        W46959  11.831  15.320  14.679 -0.0208 -0.1899  0.0176
30776W        W46960   5.479   1.866  15.368  0.3121 -0.0329 -0.1557
30777W        W46961  14.839   7.507  11.667 -0.1568 -0.0958 -0.5286
30778W        W46962  16.244   2.738   0.168  0.0489  0.0313  0.1705
30779W        W46963  16.853  11.186   0.636 -0.4605  0.3242  0.1292
30780W        W46964   9.539  11.105   0.571 -0.0849  0.4661 -0.0373
30781W        W46965  11.648   1.249   5.600 -0.0697 -0.0185  0.0062
30782W        W46966  14.606   4.520  15.337 -0.1582  0.1454 -0.1613
30783W        W46967  14.437  17.385   2.127 -0.0988 -0.4545  0.2613
30784W        W46968   2.049   0.799  15.419 -0.1872  0.1959  0.0193
30785W        W46969   6.566   0.137  11.399 -0.1536 -0.1900 -0.0361
30786W        W46970   6.111   0.288   3.424 -0.1180 -0.1223  0.0834
30787W        W46971  11.746  16.839  12.224  0.1568  0.5371 -0.4511
30788W        W46972   0.236   7.299   0.374 -0.4261  0.1653 -0.2098
30789W        W46973  14.233  16.359   4.165  0.0582 -0.2413 -0.3025
30790W        W46974   5.345  15.736  15.460 -0.2450 -0.1645 -0.2865
30791W        W46975   8.305  13.549   1.335 -0.1139 -0.2024  0.0833
30792W        W46976  11.210  14.707  13.368 -0.1995 -0.1703  0.0768
30793W        W46977   4.994   1.370   3.592 -0.1969  0.1146  0.0185
30794W        W46978  14.580   3.830   3.835 -0.0224  0.1139 -0.0276
30795W        W46979  11.601  13.639   1.519 -0.1115 -0.3680  0.1868
30796W        W46980   0.669   9.328   5.090 -0.0715 -0.0836  0.0006
30797W        W46981   5.289   0.153   3.881  0.3168 -0.2210 -0.3561
30798W        W46982  13.168  15.171   4.157 -0.1574  0.0268 -0.0904
30799W        W46983   2.501   2.049   2.603 -0.4044  0.0396 -0.1906
30800W        W46984   2.778   9.062   1.555 -0.0491  0.2045  0.2586
30801W        W46985   8.775  13.681  12.932 -0.1731 -0.0793 -0.1466
30802W        W46986   1.600   3.711   1.345 -0.4943  0.1400  0.0517
30803W        W46987  18.522  18.741  13.527 -0.2735 -0.0978  0.0433
30804W        W46988  12.265   8.825   2.303 -0.1160 -0.0971  0.0085
30805W        W46989   9.289  15.913   3.378 -0.0583  0.0860 -0.3571
30806W        W46990   1.897   3.649   4.878  0.2221 -0.2207  0.0788
30807W        W46991   1.071   2.218   5.366  0.5757  0.2473  0.0041
30808W        W46992  13.762  16.849  14.867  0.1126  0.1564  0.4089
30809W        W46993  18.497   2.294  12.118 -0.0139 -0.2300  0.3588
30810W        W46994   4.928   9.147   2.844  0.0773 -0.1534 -0.0871
30811W        W46995  17.426   0.742  15.231 -0.0681 -0.1967 -0.0360
30812W        W46996   1.584   7.937  12.110 -0.0256  0.0631  0.4197
30813W        W46997   6.235  16.109   5.059 -0.0638  0.0874  0.0830
30814W        W46998  13.882   0.357   1.635 -0.3201  0.1707 -0.1683
30815W        W46999  13.322  16.150  12.853 -0.1535  0.0423 -0.1919
30816W        W47000   3.505  16.998  14.758 -0.2172  0.0025 -0.1203
30817W        W47001  13.199   9.171   4.629 -0.0093 -0.1595 -0.0633
30818W        W47002  10.872   4.479   2.512 -0.0710  0.1379  0.0103
30819W        W47003   3.005  15.073   5.140  0.0764  0.1244 -0.4441
30820W        W47004   0.973   3.542  11.055 -0.1503 -0.2930  0.0802
30821W        W47005  10.015   2.605   9.964  0.2398  0.1574 -0.3049
30822W        W47006  18.443   4.925   5.339 -0.0110 -0.0928 -0.2188
30823W        W47007   0.159   0.899  11.212 -0.0225  0.0697  0.0805
30824W        W47008   7.110  16.640   3.109  0.0157 -0.1942 -0.3301
30825W        W47009   4.602  11.953   3.876 -0.3198  0.0765 -0.0181
30826W        W47010   1.386   1.876  10.911 -0.0644 -0.2907 -0.0351
30827W        W47011  11.070  12.023  12.960 -0.0291 -0.1387 -0.1393
30828W        W47012   9.298   4.520   1.661  0.0530 -0.1964  0.0825
30829W        W47013   7.119   5.602  13.518  0.5016 -0.0261  0.0018
30830W        W47014  17.532  18.754  14.998  0.1214  0.3058  0.0079
30831W        W47015   7.422  10.445  13.961 -0.0698  0.1160 -0.2407
30832W        W47016   8.726  12.822   0.638 -0.1281 -0.0412 -0.0611
30833W        W47017   8.445   2.918  14.369  0.0508  0.1006 -0.2724
30834W        W47018   9.743   1.544   5.087 -0.2030 -0.1714  0.1347
30835W        W47019   6.218  12.645   3.407  0.1919  0.3425  0.3502
30836W        W47020  10.911   4.041  13.785 -0.2062  0.2083  0.0301
30837W        W47021  12.634   8.681   0.502  0.0053 -0.1205 -0.1888
30838W        W47022  18.385  11.709  13.760  0.0806  0.0092  0.0544
30839W        W47023   0.300  11.627  14.802 -0.0441 -0.2670  0.0912
30840W        W47024  12.835  17.283  12.340  0.2990  0.0867  0.0780
30841W        W47025   4.929   7.464   3.715  0.1190  0.1389  0.1712
30842W        W47026   5.910   5.956   1.865 -0.1253  0.1328 -0.3991
30843W        W47027  12.636  10.852   5.361  0.1841  0.0776 -0.1746
30844W        W47028   3.993  13.475   1.306  0.0187  0.1097 -0.1197
30845W        W47029   8.810   2.649  14.826  0.1540  0.2478  0.1783
30846W        W47030  13.264   6.071   2.875 -0.1718 -0.0443 -0.0922
30847W        W47031  18.364  13.145  15.268 -0.1930  0.1838 -0.1424
30848W        W47032   2.618   9.226  10.965  0.2519 -0.0567  0.0289
30849W        W47033   7.554   9.022   0.890  0.3046  0.2919  0.1921
30850W        W47034   7.305  17.612  14.352  0.0361 -0.4276  0.2973
30851W        W47035  16.201   1.817   0.699  0.0182  0.2141  0.1454
30852W        W47036  10.692   6.053   5.160 -0.0355 -0.1344 -0.0314
30853W        W47037   5.894  16.539  14.706 -0.2226  0.2536  0.2583
30854W        W47038   7.670  14.354  14.882 -0.3823 -0.1075  0.0616
30855W        W47039   6.918   0.046  12.997 -0.1351 -0.2948  0.2648
30856W        W47040   4.006  13.779   0.479 -0.2817  0.2535  0.0163
30857W        W47041  12.689   7.092  12.518 -0.0649  0.2416  0.2083
30858W        W47042   6.997   4.752  14.317  0.2518 -0.1057 -0.1243
30859W        W47043   2.353   3.770  10.186  0.2545  0.0787 -0.1178
30860W        W47044   6.253  13.600  12.788 -0.2374  0.1603  0.4339
30861W        W47045   3.294  16.926   2.797  0.0935 -0.0688  0.0753
30862W        W47046   5.034   1.811   3.288 -0.0772  0.2426  0.0629
30863W        W47047   3.314   5.264  14.823  0.3261 -0.0205  0.3516
30864W        W47048  15.246  18.383   0.273  0.0085 -0.0163 -0.1268
30865W        W47049  12.523  13.646   0.298 -0.0715 -0.0606 -0.1202
30866W        W47050   2.521   0.909   4.483  0.0252 -0.0870 -0.0787
30867W        W47051   0.668  15.799   0.536  0.0725 -0.0301  0.1778
30868W        W47052   1.999   3.881  15.219 -0.1803 -0.1130 -0.1631
30869W        W47053  11.482  18.373   5.347 -0.0271  0.0314 -0.1609
30870W        W47054  16.347  11.553  14.938  0.1231  0.0343  0.0278
30871W        W47055   1.413  13.493  10.835 -0.0337  0.4493  0.0203
30872W        W47056  18.244  16.154   1.596  0.0946  0.0047 -0.0743
30873W        W47057  12.871  10.378   5.251 -0.2752  0.0317 -0.1525
30874W        W47058  14.579  10.013   3.079  0.0627  0.1858 -0.1154
30875W        W47059  16.528  11.678   5.186  0.2181  0.1501 -0.0557
30876W        W47060   7.995   4.476   0.403 -0.1374  0.2008  0.1149
30877W        W47061   4.899  11.107  11.758 -0.1962  0.2658 -0.2070
30878W        W47062   2.425   1.890   2.096  0.4947  0.1438  0.1035
30879W        W47063   3.279  16.475   5.010  0.1947  0.3626  0.0007
30880W        W47064   8.302   2.171  13.936  0.4243  0.0918 -0.4348
30881W        W47065   9.008   2.680   4.567  0.3076 -0.0305  0.0572
30882W        W47066  12.080  17.989   6.019  0.1261  0.0218 -0.2762
30883W        W47067  16.697   7.207  15.537 -0.1727 -0.2606 -0.1753
30884W        W47068  10.311   8.356   3.736 -0.1456 -0.1809  0.0996
30885W        W47069   3.864   5.881  13.280 -0.1293 -0.1200 -0.2068
30886W        W47070  16.065   1.367  11.531 -0.1402 -0.2139  0.1373
30887W        W47071   2.900  13.655  15.297 -0.0496 -0.0464  0.0093
30888W        W47072  16.006   2.412   1.665  0.2453  0.0777 -0.0282
30889W        W47073   1.535  13.058   3.423  0.2010  0.1608 -0.0845
30890W        W47074   6.806  16.485   0.318 -0.0089  0.1691 -0.1504
30891W        W47075   9.005  17.519   2.436 -0.2045 -0.0287  0.2112
30892W        W47076  14.225  12.006  13.921 -0.1093 -0.3785  0.0132
30893W        W47077   6.240  14.893  12.838  0.3054  0.1281  0.2848
30894W        W47078   1.555   9.940   0.870 -0.2166 -0.2033 -0.1808
30895W        W47079  16.749  14.123  11.722 -0.0848  0.2216  0.0244
30896W        W47080  14.347  11.263  14.327  0.1309  0.2205  0.0565
30897W        W47081  12.286   8.974   1.801  0.0651 -0.0640  0.0582
30898W        W47082   3.362  10.295  12.201  0.2231 -0.0042 -0.0222
30899W        W47083   2.331   8.582   2.336 -0.0136 -0.0811  0.0263
30900W        W47084  12.449  15.973  14.019 -0.1442 -0.0355  0.1708
30901W        W47085   9.739  17.779  14.753  0.0456 -0.0704  0.2026
30902W        W47086   7.062   1.426  12.789 -0.2103  0.2869 -0.0855
30903W        W47087  16.477  11.373  13.320  0.1026 -0.1867  0.1049
30904W        W47088   2.525   0.057   0.472 -0.0452  0.2780 -0.2078
30905W        W47089  17.211   4.369   1.347  0.0392 -0.1253  0.0293
30906W        W47090  14.731   8.043  12.237  0.1738  0.5881 -0.0582
30907W        W47091   9.792  12.773   2.933 -0.2487  0.1628 -0.2274
30908W        W47092  11.571   0.786  11.427 -0.2668  0.0969 -0.0858
30909W        W47093   1.390   9.540   1.126  0.1687 -0.0118  0.5264
30910W        W47094   5.080  18.050   2.938  0.0995  0.0055 -0.0772
30911W        W47095  15.884   5.748  12.434  0.0830  0.0824  0.0449
30912W        W47096   8.365   2.390   5.459  0.0414 -0.1465  0.0721
30913W        W47097  10.435  12.368  11.385 -0.0190  0.3218 -0.0050
30914W        W47098  13.915   1.127  15.143  0.1624  0.2691  0.0270
30915W        W47099   1.142  14.011   0.373  0.2809  0.4246  0.0290
30916W        W47100  16.696  15.578  10.997 -0.3594 -0.3566 -0.1124
30917W        W47101   4.522   9.341   3.220 -0.3554  0.2476 -0.1154
30918W        W47102  13.332   7.913  15.497 -0.2740 -0.2440 -0.1566
30919W        W47103   0.130  11.271   1.577  0.2295  0.1641 -0.0569
30920W        W47104  12.959   7.622   5.204 -0.0618  0.2150 -0.0052
30921W        W47105  11.662   1.600   0.329 -0.0560 -0.0660  0.0583
30922W        W47106   0.128  14.170   2.626 -0.0042  0.1149  0.0171
30923W        W47107  17.428   5.431   4.392 -0.2008  0.1206 -0.0732
30924W        W47108   7.067   2.240  13.486 -0.0461  0.1272  0.2092
30925W        W47109   1.230   3.936  15.387 -0.0531  0.0256 -0.0303
30926W        W47110   0.849  12.659   2.816  0.2904  0.0805 -0.2228
30927W        W47111  14.917  14.650  14.418 -0.3014 -0.0881 -0.0428
30928W        W47112   5.421   7.101  12.079  0.1073  0.0474 -0.2230
30929W        W47113  15.694  15.833  12.269  0.1336 -0.0673  0.2513
30930W        W47114  14.579   1.341  13.040 -0.2272 -0.0931  0.2169
30931W        W47115   6.647  18.280  14.532 -0.0561  0.0070  0.1149
30932W        W47116   3.650  13.333   4.274 -0.0772  0.1102  0.0971
30933W        W47117   1.601   2.198   3.974  0.0846 -0.3465 -0.2984
30934W        W47118  12.175  10.692   2.098  0.0278  0.2074  0.0641
30935W        W47119  10.337   6.533   2.668 -0.0069 -0.0363 -0.0335
30936W        W47120   1.691  17.304   5.279 -0.0694 -0.1142  0.0636
30937W        W47121   0.496   5.607   1.129 -0.0175  0.1308 -0.1428
30938W        W47122   1.095   6.158  11.265  0.4554 -0.3071 -0.2224
30939W        W47123   9.991   8.267   1.357 -0.0781  0.1665  0.0834
30940W        W47124  12.294  15.075   4.566 -0.1132 -0.3625  0.1276
30941W        W47125  14.478   0.184  13.293  0.0966  0.0966  0.2334
30942W        W47126   3.386   9.420   3.667 -0.1202  0.0005  0.1901
30943W        W47127  18.001   3.754   1.848 -0.4844  0.2002  0.1944
30944W        W47128   6.431  10.056   3.323  0.5983  0.2227 -0.2377
30945W        W47129   5.518   7.247  15.504 -0.1790  0.0037 -0.2650
30946W        W47130   1.490   8.700  10.229 -0.1536 -0.0677  0.0640
30947W        W47131  15.853   4.075   0.848  0.1781  0.3078 -0.1635
30948W        W47132   6.680   0.366   2.693 -0.0059 -0.0301  0.1678
30949W        W47133  17.472   9.601   5.520  0.1805 -0.3682  0.2626
30950W        W47134  17.369  12.164   2.033  0.0121 -0.1717 -0.0406
30951W        W47135   1.682  13.372  12.194 -0.0262 -0.0390  0.0274
30952W        W47136  17.756  13.826   2.954 -0.0945  0.1665  0.0240
30953W        W47137  13.694  10.896   9.989 -0.0016  0.0781  0.2073
30954W        W47138   9.904  17.917   4.704 -0.0221  0.3129 -0.1658
30955W        W47139   5.488   6.847   3.472 -0.1670  0.0215  0.3483
30956W        W47140   0.552   4.512   1.195 -0.2566 -0.1496  0.2806
30957W        W47141  16.037  13.949  14.049 -0.1030  0.2368 -0.2676
30958W        W47142   8.085  15.579  13.812  0.0951  0.0722 -0.5107
30959W        W47143   2.909   9.527   1.276  0.0849 -0.0964  0.2773
30960W        W47144  11.409  13.672  13.630  0.0889 -0.0837  0.0794
30961W        W47145  14.356  10.174   4.390  0.0220 -0.2331 -0.0615
30962W        W47146  17.162  17.266  14.399 -0.3212 -0.2813 -0.4924
30963W        W47147  18.023   7.816   5.094  0.0385 -0.0581 -0.1290
30964W        W47148   9.519   8.586   3.340 -0.1158  0.1365 -0.4324
30965W        W47149  12.941   1.024   2.682  0.0269  0.3438 -0.0428
30966W        W47150   5.636  15.938  11.425 -0.2332 -0.0212 -0.6157
30967W        W47151   2.472   0.916   3.504 -0.3033 -0.0148  0.0993
30968W        W47152  17.056   9.403  13.514 -0.0768  0.0353  0.3313
30969W        W47153   7.338   9.693  14.521  0.1840  0.3040  0.0227
30970W        W47154   2.817   1.191   4.753 -0.3252  0.2184  0.1627
30971W        W47155   5.616  18.836   3.473  0.3670 -0.0718 -0.0455
30972W        W47156  16.788  16.299  11.509 -0.1653 -0.0506 -0.1451
30973W        W47157  16.058  18.700   3.148  0.0389  0.2085  0.1113
30974W        W47158   6.310  12.459   0.053 -0.0359 -0.1132  0.0600
30975W        W47159  15.329  10.772  12.039  0.3718  0.0961 -0.0331
30976W        W47160   2.761  17.083   2.726  0.2247  0.2581 -0.0143
30977W        W47161  18.248  12.713  13.974  0.2558  0.3410  0.0955
30978W        W47162  12.895  17.310  11.436  0.1313  0.0850  0.1877
30979W        W47163  17.382   0.058   1.900  0.0613 -0.0534  0.0815
30980W        W47164   0.219  16.923  10.727 -0.2983 -0.1613 -0.1744
30981W        W47165  14.697   1.411   3.384  0.0578  0.1042  0.0298
30982W        W47166   6.064  18.095   2.716  0.0599  0.1787  0.0629
30983W        W47167   1.310   8.672   2.726 -0.1537 -0.1743 -0.1065
30984W        W47168  15.298   5.378   2.515 -0.1566 -0.2699 -0.5288
30985W        W47169  13.672   7.764  14.599  0.1126  0.1746 -0.1652
30986W        W47170   7.819   5.892  11.744  0.2033  0.0585 -0.3730
30987W        W47171  11.454   1.744   2.644  0.0904  0.0971  0.2758
30988W        W47172  10.758  14.103   9.803  0.0883  0.0964 -0.3273
30989W        W47173  14.742   0.959  13.333 -0.0695  0.2144 -0.1744
30990W        W47174   2.755  16.846   0.556 -0.0789  0.0751 -0.1529
30991W        W47175  13.094  11.064  12.403 -0.0663 -0.0155 -0.1545
30992W        W47176   8.584  10.313  14.745 -0.0965  0.1576 -0.1177
30993W        W47177   6.513   8.657  10.439 -0.0015 -0.3781 -0.0441
30994W        W47178   9.518   9.993   2.535  0.0071  0.2946  0.1100
30995W        W47179   0.403  11.520  12.666  0.0542  0.1572  0.0314
30996W        W47180   9.956   4.473   3.029 -0.1391  0.2586  0.0015
30997W        W47181   2.315   1.237   5.322 -0.4544  0.1134 -0.0209
30998W        W47182  18.746   9.420  13.388  0.1108  0.0303 -0.0175
30999W        W47183  16.350   7.877  11.312 -0.2498 -0.4494  0.1475
31000W        W47184  10.031  17.805  13.350 -0.1176 -0.2703  0.2456
31001W        W47185  14.294  12.798   4.564 -0.4111 -0.0564 -0.4060
31002W        W47186   7.388  12.632   0.098 -0.0955  0.0902 -0.1673
31003W        W47187  18.802  10.958  15.444 -0.2311 -0.2455 -0.0436
31004W        W47188   6.821   7.427   4.537  0.1764 -0.2646  0.1654
31005W        W47189   0.706  16.055   2.892  0.1007  0.1958 -0.0437
31006W        W47190  14.963   5.215   0.210 -0.2202 -0.0476  0.0039
31007W        W47191  18.269  17.037  11.572 -0.0701  0.0081  0.2281
31008W        W47192  16.833  18.465  13.225 -0.1384 -0.0176  0.1462
31009W        W47193  16.683   1.149  11.993  0.0597  0.1898  0.0959
31010W        W47194  11.363  11.874   0.785  0.3132 -0.3811  0.0536
31011W        W47195   3.429   1.657  11.599  0.1597 -0.0096 -0.1616
31012W        W47196  18.183  13.751   4.418  0.0550 -0.1683  0.1072
31013W        W47197   8.231   4.784  13.068  0.0117  0.4122  0.0152
31014W        W47198   4.062  14.264  14.509  0.1208  0.0680 -0.0224
31015W        W47199   8.070  11.394   4.645  0.3457 -0.1154 -0.1596
31016W        W47200  12.429   0.300   4.136 -0.0966 -0.1742  0.0015
31017W        W47201   9.309  18.799   1.407  0.1311 -0.2476 -0.1418
31018W        W47202   6.282   7.861  15.187  0.1660 -0.0571  0.0412
31019W        W47203   5.952   8.744  13.566  0.0223 -0.0155  0.0948
31020W        W47204   4.225   8.774   5.171 -0.1332 -0.1694 -0.2518
31021W        W47205   2.226   6.939  12.010  0.1384 -0.0309 -0.2605
31022W        W47206  15.672   7.999   3.359  0.0187  0.0373 -0.1844
31023W        W47207   5.795   7.695  12.298 -0.1623  0.0012 -0.2809
31024W        W47208  16.896   9.801  14.547  0.2008 -0.0700 -0.1393
31025W        W47209   0.009   0.156  14.910  0.1079  0.0264  0.0534
31026W        W47210  11.774  10.322   0.348  0.2433 -0.0207  0.3971
31027W        W47211  15.996   4.860  13.510  0.1540 -0.1132  0.0530
31028W        W47212   3.796   6.983   2.602 -0.0927  0.1042 -0.0528
31029W        W47213   6.402  16.832  13.430  0.3533  0.1830  0.1933
31030W        W47214   4.964   2.157   1.177 -0.0018  0.2305 -0.0430
31031W        W47215   5.292   7.730   3.534  0.1043 -0.3412 -0.2434
31032W        W47216  17.415  15.210   3.762  0.0744  0.2051  0.0633
31033W        W47217  17.514   3.951   0.732 -0.1713  0.1844 -0.0606
31034W        W47218   3.139   7.116  11.688  0.4016  0.1162 -0.1669
31035W        W47219   3.013  11.241  12.344  0.1354 -0.0898 -0.1073
31036W        W47220  14.520   5.752  12.968 -0.0928 -0.1989  0.2322
31037W        W47221  17.407  10.566   0.472  0.0552 -0.0858  0.2163
31038W        W47222  12.465   6.276  12.633  0.1704 -0.0446 -0.0897
31039W        W47223   4.137  10.448   4.267  0.1633 -0.0582  0.3454
31040W        W47224   4.020   1.290   4.906 -0.3357  0.1786  0.0703
31041W        W47225  13.517   3.993   1.699 -0.1154  0.1247  0.0929
31042W        W47226   0.070   2.037  14.435  0.2812  0.0488  0.1895
31043W        W47227  17.256   7.572   3.617 -0.1239 -0.2016 -0.3126
31044W        W47228  11.787  10.247   4.504 -0.1162  0.0862 -0.2205
31045W        W47229   9.264  10.489  10.882  0.3436 -0.0716  0.1376
31046W        W47230   4.451  10.884  13.154  0.3190  0.0098 -0.0128
31047W        W47231   1.830   0.858   0.804  0.0194 -0.1737  0.0312
31048W        W47232   4.913  14.211   4.362  0.1444 -0.0099  0.1728
31049W        W47233   0.110   7.634   4.880  0.0301  0.2143  0.2761
31050W        W47234  17.821   7.501  12.224 -0.2445 -0.2365  0.1456
31051W        W47235  15.592   9.026   5.350  0.0264 -0.2100 -0.2310
31052W        W47236   5.634  12.027  13.239 -0.0274  0.0835 -0.1086
31053W        W47237  10.910   0.093   3.070 -0.1604  0.1187 -0.1690
31054W        W47238   0.934   5.315  11.012 -0.1993  0.2434 -0.2333
31055W        W47239  10.625   0.884  14.840  0.3896 -0.2795  0.3786
31056W        W47240  11.519   3.857  12.364  0.1219  0.1387 -0.3040
31057W        W47241  13.339  17.800  13.071 -0.0596 -0.2678 -0.0600
31058W        W47242  16.734   4.720  12.100 -0.0983  0.0133  0.1634
31059W        W47243  16.679   2.265   2.510  0.1688 -0.0197  0.0777
31060W        W47244   1.007   1.373   0.587 -0.1295  0.2321 -0.0172
31061W        W47245   5.502   0.276  12.526  0.0011 -0.0937 -0.1066
31062W        W47246   4.293  18.664   1.991  0.0465  0.2676 -0.1763
31063W        W47247  17.793  17.508   1.977  0.2049 -0.0120 -0.0816
31064W        W47248  12.544   9.924   3.650 -0.0749  0.0157 -0.2727
31065W        W47249   7.094   5.475   1.977  0.0960 -0.1280  0.1303
31066W        W47250   6.521  18.526  13.020 -0.1941 -0.0354 -0.1712
31067W        W47251  10.858  13.303  14.564  0.2584 -0.1757 -0.0108
31068W        W47252   9.866   6.405  13.858  0.0731  0.0635 -0.1717
31069W        W47253  15.976  15.646  15.488  0.0197  0.0119 -0.1193
31070W        W47254  15.798  10.671   9.924  0.0036  0.2462  0.1202
31071W        W47255   0.812  13.876   2.344 -0.1052  0.0086  0.2610
31072W        W47256  14.081   6.993  13.780  0.1177 -0.2349 -0.1537
31073W        W47257  16.466  18.155  13.274  0.0664 -0.4131 -0.0392
31074W        W47258  18.622   8.963   0.904  0.0181 -0.2724 -0.0769
31075W        W47259  14.789   8.546  11.752  0.0700  0.1689 -0.3480
31076W        W47260  14.107   2.321   5.131  0.0551 -0.0654 -0.2193
31077W        W47261   2.534  10.948   2.985 -0.3211 -0.1158 -0.3956
31078W        W47262   7.493   5.439   1.188  0.0204 -0.1512 -0.1452
31079W        W47263  10.559  11.798  12.029 -0.2314  0.1165  0.1675
31080W        W47264  16.800   8.085   2.845  0.3571 -0.2307 -0.0082
31081W        W47265  13.361  14.543   1.969  0.0469 -0.0028 -0.0063
31082W        W47266  15.293   4.861  11.622  0.0505  0.0799 -0.0205
31083W        W47267  13.005  12.822   5.013 -0.2750  0.3387 -0.0371
31084W        W47268   3.435  17.248   1.339 -0.3118 -0.2780  0.1231
31085W        W47269  14.668  12.770  11.737 -0.1925  0.1123 -0.1257
31086W        W47270   7.367   7.881   3.689 -0.0256  0.3145 -0.3709
31087W        W47271   1.238  15.031  13.386 -0.1156 -0.3281 -0.0172
31088W        W47272  10.123   6.079   2.037  0.2080 -0.4146 -0.2000
31089W        W47273   0.407   9.142  12.306  0.0565 -0.0923  0.0866
31090W        W47274   7.186  16.625  11.665  0.1596  0.0480 -0.1192
31091W        W47275  14.408   8.138   2.763 -0.2995  0.3942  0.0826
31092W        W47276   7.937  11.309  14.513  0.1090 -0.3128  0.1174
31093W        W47277  13.937   5.887   0.656  0.1056  0.0190  0.0126
31094W        W47278  13.439   0.303   1.410  0.0817 -0.0508  0.3209
31095W        W47279  11.148   3.433   4.953 -0.0492 -0.0355  0.1796
31096W        W47280   0.592  14.363   0.553 -0.0388  0.1152  0.0871
31097W        W47281  17.392   3.128   1.074  0.2304 -0.1423 -0.0596
31098W        W47282  10.236   0.477  13.857 -0.0309 -0.0012  0.1571
31099W        W47283  18.636  16.594  10.843  0.0565 -0.1255  0.1265
31100W        W47284  11.173  13.609  12.236  0.1988 -0.2125 -0.1132
31101W        W47285  14.146  13.710  11.139  0.1421 -0.0967  0.0750
31102W        W47286  15.598   1.976  13.798 -0.1473 -0.2755 -0.0059
31103W        W47287  10.481   6.823   2.217  0.0059 -0.0827 -0.0091
31104W        W47288  13.434   9.389   1.612  0.3494 -0.1838  0.2313
31105W        W47289  10.135  11.658   1.659 -0.1116  0.0416 -0.2267
31106W        W47290  18.155   7.455  12.617  0.1875  0.0348 -0.1773
31107W        W47291   9.481   5.250   4.939 -0.1343 -0.1039  0.2776
31108W        W47292   1.953   7.745  12.437 -0.0295  0.0240  0.0200
31109W        W47293   0.155   4.257   3.223  0.1425 -0.0170 -0.4046
31110W        W47294  10.192  15.086   1.705 -0.1908  0.2203 -0.1697
31111W        W47295  12.826   5.753   4.563 -0.1825 -0.1996  0.0316
31112W        W47296  16.462  10.438   0.230 -0.0099 -0.0277 -0.1596
31113W        W47297  12.317   9.001   5.032  0.1275 -0.1399 -0.0289
31114W        W47298   7.692   2.311  14.234  0.0752 -0.0802  0.2576
31115W        W47299   6.197   9.626  11.891  0.1406 -0.1136  0.2413
31116W        W47300  14.893  12.983   5.211 -0.0443 -0.3664 -0.1056
31117W        W47301   9.665  11.231   4.606 -0.0155  0.3633 -0.0130
31118W        W47302   4.155  16.084   1.942 -0.0533  0.0638 -0.4195
31119W        W47303  17.174   4.403  11.922 -0.0381  0.0037  0.0108
31120W        W47304   0.371  12.983   3.510 -0.1325 -0.0866  0.1079
31121W        W47305   8.244   5.105  10.625 -0.2306 -0.1866 -0.1226
31122W        W47306  18.836  18.299   3.543  0.0707  0.0069 -0.1914
31123W        W47307   6.892   4.942   0.964  0.0476  0.3255 -0.0428
31124W        W47308  12.362  17.779   3.271  0.0720 -0.1937 -0.2275
31125W        W47309  17.599   2.137   2.537  0.1015 -0.2406  0.3766
31126W        W47310  11.454   0.634  14.852 -0.0736 -0.1047  0.0859
31127W        W47311   4.267  14.838   1.395 -0.3168 -0.2237 -0.0826
31128W        W47312  11.659  15.898   3.288 -0.0019  0.1576 -0.4415
31129W        W47313  12.149  12.682  11.027  0.0749  0.1147  0.0023
31130W        W47314   9.443   8.816  14.573 -0.0927 -0.0851  0.0500
31131W        W47315   5.374   1.114   4.756  0.1174  0.0604  0.3296
31132W        W47316   3.588   6.945  11.863  0.1707  0.2812  0.2293
31133W        W47317  15.629   0.138   4.644 -0.0679 -0.0657  0.2426
31134W        W47318  14.684  11.885   2.530  0.0760 -0.2009  0.3559
31135W        W47319  18.682  13.948   1.130 -0.1442 -0.0512 -0.0257
31136W        W47320  14.137  11.826  15.357  0.1612 -0.0363  0.0599
31137W        W47321   1.700   1.229   0.443  0.2365 -0.0830 -0.0817
31138W        W47322   5.321   1.847   1.585  0.1906 -0.0557 -0.4004
31139W        W47323  15.947  17.913   2.257 -0.1316  0.2452 -0.1927
31140W        W47324  11.870  12.249   9.805  0.1324  0.0982 -0.3361
31141W        W47325  18.545  15.008   2.454 -0.2903 -0.1960  0.0022
31142W        W47326  16.822   9.086   3.738 -0.0385  0.0144  0.4279
31143W        W47327  18.238  11.794  15.499 -0.0622  0.0434  0.1552
31144W        W47328  10.282  14.251   1.708  0.0482  0.3668  0.0143
31145W        W47329   0.958   1.676  14.252 -0.0174 -0.0513  0.1682
31146W        W47330   2.521   9.835   1.567 -0.3130  0.3223 -0.0835
31147W        W47331   2.549  12.916   3.818 -0.0448 -0.2720 -0.0499
31148W        W47332   6.232   1.087   0.409  0.3601  0.0951  0.2296
31149W        W47333   9.180  13.612  13.996 -0.1811 -0.2151 -0.2466
31150W        W47334   8.299   0.235   0.073  0.0725 -0.3377  0.1107
31151W        W47335   9.504   2.956   5.101 -0.1213 -0.2966 -0.0710
31152W        W47336  15.205   3.695   2.048 -0.1788 -0.0285 -0.1564
31153W        W47337   3.864  13.047   1.471 -0.0940  0.1034  0.1154
31154W        W47338   7.526   7.809  12.155  0.1184 -0.2376 -0.0426
31155W        W47339  14.884  12.449   4.909 -0.1093 -0.0883 -0.1172
31156W        W47340   2.104  10.515   1.981 -0.1260 -0.1110  0.2363
31157W        W47341  10.560  10.665  12.915  0.4060  0.0076  0.1869
31158W        W47342  17.987   7.062  13.048  0.2264  0.0626  0.2275
31159W        W47343   2.900  10.501  11.406  0.0714 -0.3237  0.2147
31160W        W47344   2.884   3.720  13.747  0.1461  0.1675  0.3966
31161W        W47345   9.338   7.159  11.608  0.1563  0.0791  0.1028
31162W        W47346   8.916   0.265  14.889  0.1919 -0.0232 -0.0433
31163W        W47347   4.992  10.255   4.830  0.0404 -0.0747  0.2141
31164W        W47348   0.197  17.890   4.577  0.0360  0.1107 -0.1465
31165W        W47349   1.663  18.220  14.784 -0.2889  0.3432 -0.0070
31166W        W47350   6.032   8.529   4.975  0.2680  0.0379 -0.1442
31167W        W47351   7.262   4.122  12.240  0.1720 -0.2767 -0.1481
31168W        W47352   2.802   8.398   0.354 -0.0037  0.0594 -0.1758
31169W        W47353  13.592  18.090   9.971  0.1426 -0.0250  0.1004
31170W        W47354  13.720  17.823   1.771 -0.0245 -0.1818 -0.0023
31171W        W47355   1.929  15.022   1.394  0.1359  0.1817 -0.0656
31172W        W47356  10.941  14.923   1.289 -0.0950  0.2610  0.0174
31173W        W47357  16.912   1.920  15.007  0.1266 -0.1047  0.0604
31174W        W47358   9.276  13.289   5.027 -0.0298  0.0108  0.2208
31175W        W47359   4.804   4.530  11.145 -0.0639 -0.1963  0.0495
31176W        W47360  11.255  12.612  11.074  0.0421  0.3159  0.0539
31177W        W47361   7.113  14.169   2.140  0.1334 -0.2887  0.0607
31178W        W47362   2.802   3.551   2.479  0.0686  0.2827  0.1323
31179W        W47363  10.480   0.896   1.894  0.0374 -0.2090 -0.3003
31180W        W47364  17.654   5.807  11.424  0.3453 -0.0717  0.2971
31181W        W47365  14.704   6.349   0.039  0.1771  0.1740 -0.0035
31182W        W47366  15.012  10.044   1.526 -0.3610  0.0149 -0.1636
31183W        W47367   5.270  10.859   5.077  0.1678  0.0492 -0.2955
31184W        W47368  10.114   0.630   1.695  0.5572 -0.0445 -0.0402
31185W        W47369  14.319   8.047  15.421  0.1892 -0.0545 -0.1093
31186W        W47370   0.694  15.662  15.104  0.0710 -0.2816 -0.2875
31187W        W47371   4.627  16.709  15.283 -0.0976  0.1478  0.3245
31188W        W47372   5.380  17.995   3.685  0.0741 -0.1520 -0.1451
31189W        W47373  17.184  16.727   1.604  0.0634 -0.0444 -0.1690
31190W        W47374  17.787  10.377   4.974 -0.2075 -0.1494 -0.0596
31191W        W47375   1.167   2.038   3.200  0.0062  0.2271  0.0483
31192W        W47376  13.647   0.956   4.042  0.1579  0.0828 -0.2670
31193W        W47377   9.112  15.351  14.539  0.0250 -0.1032  0.2060
31194W        W47378   3.946  12.204  12.361  0.0777  0.1295  0.1567
31195W        W47379   1.388   5.757  14.452 -0.1284 -0.0393  0.3169
31196W        W47380   2.299  18.467   4.966  0.3340  0.3856  0.1118
31197W        W47381  12.154  18.651   1.408  0.0217 -0.1543 -0.0539
31198W        W47382  18.804  18.792   4.480  0.0958 -0.1952  0.2752
31199W        W47383  15.179   8.686   4.840  0.0567 -0.0001 -0.1150
31200W        W47384   2.315   9.646   0.589  0.2967  0.0167 -0.0856
31201W        W47385  15.907   0.780  15.427  0.2467 -0.1592  0.1723
31202W        W47386  15.115   1.739  13.870  0.0368  0.3907  0.0469
31203W        W47387  13.269   8.628  10.492  0.1234  0.2189  0.4072
31204W        W47388  14.727  15.782   3.186  0.2460 -0.0757  0.0822
31205W        W47389  15.596  12.507  14.637 -0.1224  0.3780 -0.2453
31206W        W47390   8.217   4.357   2.821  0.0652  0.0756 -0.0314
31207W        W47391   3.306  16.895   5.976 -0.4114 -0.0750  0.0237
31208W        W47392   0.857  11.466  12.196  0.0808  0.0511  0.3893
31209W        W47393   1.870   0.228  11.717  0.1693 -0.1711  0.1388
31210W        W47394   7.759   3.984   3.981  0.1256 -0.0599  0.3860
31211W        W47395  10.865  13.694  11.270 -0.0496 -0.2730  0.1042
31212W        W47396   4.923  14.502   1.074  0.0251 -0.1868  0.0236
31213W        W47397  10.688  14.765  13.171  0.1006 -0.0916 -0.0729
31214W        W47398   2.233   0.475   0.547 -0.2039 -0.0785 -0.0479
31215W        W47399  17.122   5.543   5.408  0.0833  0.2231 -0.1024
31216W        W47400   0.042  14.427   1.218  0.1034 -0.0094  0.0053
31217W        W47401   8.657   1.350  13.918 -0.0053 -0.1439 -0.0623
31218W        W47402   9.832   8.433  11.294  0.0141  0.0180 -0.1222
31219W        W47403   9.446   1.181  11.950  0.3488  0.0501  0.1056
31220W        W47404  17.064  15.689   0.921 -0.0152  0.2074 -0.1449
31221W        W47405  15.633  14.514  11.985 -0.0460 -0.1433  0.3408
31222W        W47406   3.303   6.447  14.265 -0.0996  0.3115 -0.2020
31223W        W47407  18.041  15.744  12.449 -0.1907 -0.0953  0.0555
31224W        W47408   4.756   2.177  13.703 -0.0237 -0.1044  0.1619
31225W        W47409   0.635  18.638   3.579 -0.1103  0.3393 -0.1921
31226W        W47410   9.714   3.051   0.107 -0.0167 -0.1298 -0.0736
31227W        W47411  13.134   9.740   0.152  0.0679 -0.3335  0.1068
31228W        W47412  12.203   1.137   1.312 -0.2317 -0.1217 -0.0573
31229W        W47413   3.439  12.495  12.292  0.2517  0.2000 -0.0373
31230W        W47414  11.122  12.459  13.242 -0.3443  0.0876  0.1121
31231W        W47415  10.238   8.812   2.941  0.1716  0.0486 -0.0925
31232W        W47416   6.317  16.519   3.893  0.1055  0.0959  0.0395
31233W        W47417   1.788   3.968  13.525  0.0264  0.0892 -0.0537
31234W        W47418   9.081  15.317   2.043 -0.1844 -0.0098  0.2752
31235W        W47419   3.169  13.947   1.565 -0.0342 -0.0367  0.1913
31236W        W47420   1.512   6.192   0.184  0.5117  0.0639  0.0721
31237W        W47421   6.804   9.742  14.263  0.0044 -0.2826 -0.0380
31238W        W47422   5.505   8.847   0.526  0.1720 -0.1344  0.1909
31239W        W47423   7.326   1.518   2.649  0.4211  0.2218 -0.0634
31240W        W47424   5.669   6.386   3.344  0.0966  0.1650 -0.1279
31241W        W47425  18.672  14.284   5.504  0.0872  0.1950  0.0146
31242W        W47426   3.715  13.962   0.122  0.0740 -0.0305 -0.1495
31243W        W47427  17.811   5.632   2.001  0.5816  0.1331  0.0917
31244W        W47428  15.030   1.426  14.839 -0.1851 -0.2383  0.0454
31245W        W47429  17.902   5.704   5.030  0.1840 -0.0730  0.0174
31246W        W47430   1.271  10.451  14.246  0.3775 -0.0696  0.1318
31247W        W47431   1.566   5.748   1.639  0.3261  0.0912 -0.1213
31248W        W47432   5.767  11.506  14.997 -0.1439 -0.0394 -0.2357
31249W        W47433   9.098   2.881   4.074  0.1870 -0.0596 -0.1063
31250W        W47434   6.513   6.988   2.495 -0.3208  0.1511  0.2646
31251W        W47435  11.078  15.054   0.236 -0.0430 -0.2243  0.1390
31252W        W47436   0.499  14.332  15.308  0.0242 -0.0899  0.0777
31253W        W47437  13.506  16.971  13.418  0.1502 -0.3819  0.1196
31254W        W47438  13.999  17.114   2.913  0.4512  0.0913 -0.0648
31255W        W47439  15.354  14.121   2.323  0.0746  0.1840 -0.3227
31256W        W47440   5.918   0.958   4.676  0.0641 -0.1050 -0.1869
31257W        W47441  18.181   2.326   4.624 -0.0402  0.1864 -0.0127
31258W        W47442   7.322   6.788  11.495 -0.0119  0.1302  0.2725
31259W        W47443   7.171  17.190   5.617  0.3719  0.2459  0.0880
31260W        W47444   9.097  12.037   4.986 -0.2190 -0.0239  0.1592
31261W        W47445   0.538   2.009  11.926 -0.2362  0.5029  0.3984
31262W        W47446   9.677   7.864   3.266  0.0427  0.0286 -0.2737
31263W        W47447  13.381  15.292  12.534  0.2536 -0.1247  0.0237
31264W        W47448  11.767  13.216  11.861  0.0246 -0.2129 -0.3620
31265W        W47449  13.504  11.432   0.123 -0.0774 -0.0150  0.0459
31266W        W47450   8.944  16.561  13.152  0.3649  0.1378  0.1798
31267W        W47451   8.513   5.558   4.524  0.3113  0.1541  0.1605
31268W        W47452   6.160   8.858  14.069 -0.1866  0.0417 -0.0617
31269W        W47453   6.104  11.517  14.167  0.0554 -0.2204 -0.0320
31270W        W47454  14.349  16.209   3.489 -0.0269  0.3914 -0.0970
31271W        W47455   3.959   8.784   4.772 -0.0672  0.1894 -0.1073
31272W        W47456  15.155   0.579   3.110 -0.0547  0.1072 -0.0431
31273W        W47457   7.308   4.188   2.745 -0.1124  0.0321  0.4795
31274W        W47458   5.406   4.882   2.962  0.3293  0.2195  0.0885
31275W        W47459  18.254  16.271   4.506 -0.0999 -0.0024  0.1299
31276W        W47460   7.366  10.897  10.770 -0.1524 -0.1699 -0.1368
31277W        W47461   5.056   1.678  11.648  0.0369  0.0996 -0.1571
31278W        W47462   7.853   2.196  15.462 -0.0793  0.0360 -0.0480
31279W        W47463  16.342   0.561  14.570 -0.1772 -0.1634 -0.1274
31280W        W47464  13.130  15.394  11.520 -0.1867 -0.0094 -0.1104
31281W        W47465  14.385   7.484   3.102 -0.0011  0.0652 -0.2788
31282W        W47466   6.055   6.946   2.282  0.1470  0.3197  0.1618
31283W        W47467  12.121   7.840  14.146 -0.3499 -0.2532 -0.1344
31284W        W47468   9.002   8.765   3.234 -0.2004  0.2316  0.1557
31285W        W47469  16.937  17.183  11.678 -0.3030 -0.2104  0.2269
31286W        W47470  10.531   0.478   0.776 -0.4589 -0.0895 -0.1586
31287W        W47471  13.209   0.245   4.390 -0.1097 -0.0179  0.3587
31288W        W47472   7.798  11.257   3.322  0.2604 -0.0127 -0.0088
31289W        W47473  15.542   5.547  12.075 -0.0911 -0.1155  0.1750
31290W        W47474  18.480  10.017   2.093 -0.1669 -0.3358 -0.1762
31291W        W47475  17.719  11.368   1.026 -0.4559  0.2402 -0.1118
31292W        W47476  18.584  14.484   2.862 -0.0393  0.1935 -0.0727
31293W        W47477   6.548  17.352  14.589 -0.1374  0.0540 -0.0641
31294W        W47478   0.324  17.885  10.809  0.0719 -0.1724  0.1723
31295W        W47479   3.353  16.806  11.848 -0.0456  0.1419 -0.5119
31296W        W47480  15.648  11.580  12.613  0.0375  0.4575  0.0020
31297W        W47481  14.726   4.730  14.938  0.0282 -0.2218  0.1164
31298W        W47482   9.480   2.856  14.807  0.4934 -0.0024  0.2061
31299W        W47483  17.388   5.847   4.111 -0.0223  0.0434 -0.0618
31300W        W47484   6.630  15.043   1.226  0.1697 -0.1093 -0.4446
31301W        W47485   4.181  13.834  15.484  0.2084 -0.2046  0.5167
31302W        W47486  16.345  13.635   1.559  0.0861  0.3037 -0.0757
31303W        W47487  12.342  11.675   1.954  0.0842  0.3950 -0.0075
31304W        W47488   3.526   1.319   5.760  0.0136  0.2416 -0.1648
31305W        W47489  12.307   6.664   0.068  0.0389 -0.0423 -0.0631
31306W        W47490  17.782  13.124   3.454  0.1368  0.4721 -0.0535
31307W        W47491   4.536   0.072  14.030  0.2392 -0.1530 -0.0836
31308W        W47492  17.945   9.277   3.018  0.1234  0.0752  0.0609
31309W        W47493  15.370   9.485  12.496  0.4315 -0.2259 -0.1591
31310W        W47494   0.953  10.446  11.921  0.0793  0.1578  0.1484
31311W        W47495  10.390   1.237   3.223 -0.1891  0.1779  0.2576
31312W        W47496  18.067   2.619   1.379  0.4089  0.2262 -0.2049
31313W        W47497   7.530   6.944   1.907 -0.3802  0.0985 -0.1455
31314W        W47498   0.748   7.225   3.273 -0.2570 -0.0916 -0.0127
31315W        W47499  10.796  15.684   2.145  0.0343 -0.2222  0.0341
31316W        W47500   4.256  12.680  10.993 -0.2197 -0.1305  0.1031
31317W        W47501   1.514   1.397  11.697  0.0691  0.0517  0.1623
31318W        W47502  10.617   7.844  14.869  0.0032 -0.3358  0.3292
31319W        W47503  15.450   8.518   4.256  0.0557  0.2405  0.0772
31320W        W47504  14.546   1.659  13.838 -0.1450 -0.2447  0.1196
31321W        W47505  16.799   7.712  14.578 -0.0397 -0.1842 -0.1323
31322W        W47506   3.703  18.711   3.395 -0.2286  0.1098 -0.0305
31323W        W47507  10.654   8.009   0.780  0.1916  0.0336 -0.2786
31324W        W47508   2.188   5.085   1.398 -0.0874 -0.1445  0.4811
31325W        W47509   9.068   8.119   4.566 -0.0301 -0.0505 -0.0455
31326W        W47510   7.870   0.537  12.473 -0.0109 -0.1524  0.2036
31327W        W47511   2.275   8.162  12.718  0.1093  0.0201  0.2316
31328W        W47512   0.724  13.851   0.656  0.0498  0.0468  0.1789
31329W        W47513   4.002  12.750   2.917  0.4158 -0.0925  0.0927
31330W        W47514   8.144   5.863   5.365  0.1071 -0.2033 -0.1202
31331W        W47515  16.219  13.334   3.800 -0.2120 -0.2380 -0.1591
31332W        W47516  11.295   8.718   4.839  0.2839  0.0382 -0.0509
31333W        W47517   0.267  14.553   3.629  0.1532  0.0932  0.1934
31334W        W47518  11.155  15.787   1.721  0.3106  0.0339 -0.0016
31335W        W47519   1.753  12.678   1.161 -0.0958 -0.1436  0.2689
31336W        W47520   1.439  16.327  13.508 -0.2135 -0.1663  0.0367
31337W        W47521   7.744   7.397   1.901 -0.1315  0.2037 -0.4042
31338W        W47522  13.147   4.832   0.586 -0.2036 -0.1561  0.1893
31339W        W47523   2.939   4.757  14.815 -0.0972  0.3223 -0.1255
31340W        W47524  13.369  15.387  13.929 -0.1439 -0.1658  0.1556
31341W        W47525  11.721  16.546   5.703 -0.0051  0.0899  0.1849
31342W        W47526   9.990   4.730  14.602 -0.0616 -0.1066  0.1093
31343W        W47527  12.003  10.296  11.751 -0.0612 -0.1634 -0.3941
31344W        W47528  13.635   6.947   3.485  0.2004 -0.1934 -0.3400
31345W        W47529   3.256   9.763   0.987  0.1410 -0.1244 -0.2327
31346W        W47530  13.291   0.991   0.424 -0.0645 -0.2201 -0.2527
31347W        W47531  14.922   1.442  12.153 -0.3145 -0.0670 -0.2033
31348W        W47532   4.435   8.317  12.709 -0.2000 -0.3438  0.1968
31349W        W47533   6.802  14.559   0.961 -0.0964 -0.0604 -0.1393
31350W        W47534   5.404  11.704   3.972 -0.1500 -0.2935  0.4997
31351W        W47535  11.602   9.451   2.251 -0.1614  0.0513  0.2922
31352W        W47536   7.880   3.735  14.964 -0.1133 -0.1139 -0.1005
31353W        W47537  12.109   4.359  15.192  0.0481  0.2783  0.0628
31354W        W47538  12.744   5.754   0.728 -0.1408  0.4564 -0.1899
31355W        W47539  16.681  15.284   5.436 -0.0120  0.0879  0.2941
31356W        W47540   3.817   2.961   0.562  0.2171  0.0532 -0.0751
31357W        W47541   3.958   5.912  11.282  0.1879 -0.2347 -0.1982
31358W        W47542  17.923  16.835   1.221 -0.0381 -0.2852 -0.0339
31359W        W47543   3.236  13.089   2.932  0.1656 -0.1850  0.1123
31360W        W47544  10.966   3.323  15.435  0.1957 -0.1574 -0.0737
31361W        W47545   7.156   0.269  14.170 -0.2125 -0.0079  0.0129
31362W        W47546  15.069  17.611  13.032  0.0518  0.1712 -0.1332
31363W        W47547   3.230  11.719  15.182 -0.0470  0.3743 -0.0692
31364W        W47548   3.011   6.461  11.051  0.1567  0.0802 -0.0146
31365W        W47549   7.062   0.615  13.784 -0.0295 -0.1016  0.3229
31366W        W47550   0.551  16.868  12.671 -0.1385 -0.0574  0.2393
31367W        W47551   8.573   4.372  11.765  0.1496 -0.3614  0.2518
31368W        W47552  17.185  12.442   3.303 -0.0563  0.2461 -0.3379
31369W        W47553   3.247   6.893  11.168  0.0499 -0.3578  0.0398
31370W        W47554   3.874   5.419   4.913 -0.2599  0.1458  0.1082
31371W        W47555   4.077  16.936   2.884  0.0214 -0.2342  0.0370
31372W        W47556  17.296   8.745   5.074  0.0634 -0.0536 -0.0479
31373W        W47557   1.451   3.295  10.853  0.2005  0.2723 -0.0048
31374W        W47558   2.910  16.310   0.562 -0.1901 -0.0990  0.1642
31375W        W47559   4.546   8.447  13.562  0.0266  0.1251  0.1914
31376W        W47560  16.946   8.324  10.882 -0.1464  0.2225  0.1715
31377W        W47561   6.124  16.272  14.103  0.0571  0.1401 -0.0674
31378W        W47562  18.497   3.318  12.002  0.1569 -0.1224 -0.0951
31379W        W47563  15.246   7.639   0.542 -0.3395  0.0642  0.0279
31380W        W47564   3.158   1.488   2.279  0.0331 -0.2654 -0.4443
31381W        W47565   2.865  10.163   2.381  0.0757  0.1524 -0.2558
31382W        W47566  10.541   1.023  12.777  0.0928 -0.0349  0.1113
31383W        W47567   5.619   1.157  11.070  0.0899 -0.2759 -0.0139
31384W        W47568   5.269  14.984   1.370 -0.0163 -0.1500 -0.0649
31385W        W47569   3.355   7.346  13.552 -0.1284 -0.2952 -0.1071
31386W        W47570   8.111  15.590  14.337  0.0478  0.1188  0.1201
31387W        W47571  18.247  14.951  14.657  0.3619 -0.1785 -0.0047
31388W        W47572   6.881   8.828   2.688 -0.2147  0.0887  0.0050
31389W        W47573  14.172  16.100  11.708  0.1557 -0.2282  0.3030
31390W        W47574   9.062   1.930  11.810 -0.0402  0.1018 -0.1342
31391W        W47575   8.763   8.453   3.988 -0.2540 -0.1987  0.1482
31392W        W47576   2.924  17.824   4.526 -0.0911  0.2549 -0.0817
31393W        W47577  15.637   6.223   3.149 -0.1728 -0.2760  0.1099
31394W        W47578  11.364  13.257  14.509 -0.1570 -0.2967  0.1230
31395W        W47579  11.148  16.866   3.172  0.0072 -0.3771  0.2680
31396W        W47580  14.160  10.873  12.661 -0.0471  0.0115  0.2736
31397W        W47581  17.604  16.948   3.986  0.1767  0.1233 -0.2096
31398W        W47582  14.730  11.319   4.799  0.0636  0.0860  0.3640
31399W        W47583  18.220  13.084   5.167  0.2548  0.1086  0.0046
31400W        W47584   4.526  10.621   1.894  0.0839 -0.4081 -0.4161
31401W        W47585   8.289   3.904   0.253 -0.1959  0.1443 -0.1128
31402W        W47586  10.511  18.853   0.791  0.2052  0.2690 -0.3232
31403W        W47587   5.786  10.912  12.320 -0.3816 -0.1582 -0.0469
31404W        W47588  15.652   4.079  12.102 -0.2766  0.0633 -0.0951
31405W        W47589   1.394   8.615   4.196  0.3699  0.0412 -0.0911
31406W        W47590  17.718  14.401  13.509  0.1781  0.1693 -0.2570
31407W        W47591   5.439  12.507   4.420  0.0115 -0.0735 -0.1195
31408W        W47592  10.133   6.747   3.152  0.2077 -0.0519 -0.1022
31409W        W47593  11.968   1.706   3.743 -0.0917 -0.1443 -0.2342
31410W        W47594  11.813  16.838  11.393 -0.0738  0.1343 -0.0394
31411W        W47595   1.868   0.681   0.308 -0.0989 -0.1491  0.5638
31412W        W47596   4.928   7.674  12.422  0.1058  0.0196 -0.2559
31413W        W47597  11.767   6.150   2.625 -0.0392  0.2091  0.3121
31414W        W47598   3.212  12.604   4.437 -0.0989  0.4607 -0.1670
31415W        W47599   4.441   2.618   0.244  0.2539  0.0001 -0.0474
31416W        W47600   2.997  18.782  15.159  0.0283 -0.0015 -0.1361
31417W        W47601   7.756   0.248   2.607 -0.0576  0.1510 -0.0063
31418W        W47602   3.274  18.466  15.475  0.0137 -0.0310 -0.2242
31419W        W47603   7.647  17.417   5.698  0.2189 -0.2280 -0.1471
31420W        W47604  17.734   9.411   1.715  0.1671  0.1716  0.2914
31421W        W47605   7.303   7.330   2.114  0.0596 -0.0281 -0.2314
31422W        W47606   0.088  11.853   2.120 -0.0035 -0.1529  0.0255
31423W        W47607   7.452  16.933  13.387  0.0580  0.0991 -0.0196
31424W        W47608  10.826   0.881   4.978  0.0520  0.2316  0.2582
31425W        W47609   6.785   3.710   5.484 -0.0915  0.0601 -0.2602
31426W        W47610   5.944   9.188  14.345  0.0525  0.3287  0.1747
31427W        W47611   7.387  11.143   0.541  0.0732 -0.0191  0.2220
31428W        W47612  16.672   4.647   0.486  0.1449 -0.0645  0.1476
31429W        W47613   1.220  10.776   3.387  0.1846  0.1893 -0.0906
31430W        W47614  18.374  18.788  11.605  0.1240  0.0903 -0.0089
31431W        W47615   5.268   9.500   2.846 -0.0049 -0.0817 -0.1026
31432W        W47616  16.670   4.762   3.974  0.2604 -0.1721  0.1008
31433W        W47617  16.247  10.524  14.652  0.1728 -0.0501  0.3394
31434W        W47618   7.258   0.383  12.944 -0.1292  0.3400 -0.1134
31435W        W47619   9.165  11.617  12.014  0.0202  0.2330 -0.0119
31436W        W47620  15.588   1.821   4.253 -0.0677 -0.0587 -0.2121
31437W        W47621  13.988   6.872   2.762 -0.2370  0.0319  0.2780
31438W        W47622   2.180  13.506  13.144 -0.0352  0.0155 -0.2023
31439W        W47623  10.369   7.464   3.465  0.0126 -0.0108  0.0403
31440W        W47624   0.109  13.522  10.935 -0.1071 -0.0124 -0.0099
31441W        W47625  11.673   0.590  13.432  0.1783 -0.0370  0.0882
31442W        W47626  16.266  15.907   3.905 -0.2111  0.0312 -0.2236
31443W        W47627   2.876  11.776   5.223  0.1015 -0.0082 -0.0099
31444W        W47628   4.924  12.224  11.518  0.1356  0.1085  0.0333
31445W        W47629  14.950  17.590  14.979 -0.0586  0.1707  0.1985
31446W        W47630   4.577  10.692   4.104 -0.0058  0.1321  0.5146
31447W        W47631   0.742  15.548   1.343 -0.0930 -0.1749 -0.2503
31448W        W47632  16.479  18.710  11.770  0.0668 -0.0116  0.0337
31449W        W47633  17.878  18.803   2.748 -0.1081 -0.1984 -0.1923
31450W        W47634  16.779  11.691  13.985  0.2281 -0.1090  0.1017
31451W        W47635   4.729  13.953  15.257 -0.2107 -0.0919 -0.0790
31452W        W47636   0.414   5.704  15.390 -0.0813 -0.0185 -0.1299
31453W        W47637   9.513   1.017  14.770  0.1400  0.1919  0.0400
31454W        W47638  14.241   5.192  13.557 -0.1845 -0.0697 -0.0625
31455W        W47639   2.613   6.312  13.619  0.2108 -0.0485 -0.1043
31456W        W47640  17.738   9.281  11.844  0.1998 -0.1129  0.0915
31457W        W47641  13.262   3.794  10.927  0.0941 -0.0003 -0.1064
31458W        W47642  12.364   0.556  14.891  0.0907  0.1087 -0.1436
31459W        W47643   3.991   0.396   2.619 -0.2666  0.2104  0.0512
31460W        W47644   6.415  12.589  10.765  0.3390 -0.0840  0.2059
31461W        W47645  11.632   4.401   4.849  0.0648 -0.3249  0.2663
31462W        W47646  18.053   8.268  14.153  0.1080  0.0755  0.1086
31463W        W47647   5.440   8.631  13.637  0.1814  0.0360 -0.0136
31464W        W47648  14.475  16.448   2.530  0.4330  0.0311 -0.1044
31465W        W47649   8.752  12.076   0.327 -0.3369  0.0083 -0.0911
31466W        W47650  17.018  18.338   2.857 -0.0005 -0.0887 -0.1335
31467W        W47651   9.064   8.969  11.069  0.2491  0.1500  0.1522
31468W        W47652  13.829  17.334   4.631  0.3716 -0.0363  0.0199
31469W        W47653  13.479   8.377   0.303 -0.0560  0.3327  0.0587
31470W        W47654  10.416   5.650  11.209 -0.0798 -0.2156  0.0271
31471W        W47655  12.736   3.182   2.731 -0.0667  0.0936 -0.0260
31472W        W47656  14.811  11.290  15.514 -0.0553 -0.0863  0.2222
31473W        W47657   9.505   2.817  11.399  0.1636 -0.0062 -0.2556
31474W        W47658  13.361   2.025  15.297  0.0638  0.0809  0.1533
31475W        W47659   4.852   5.674  11.391  0.0229  0.0325 -0.1531
31476W        W47660   4.193   3.152   0.914  0.2480  0.1630  0.1451
31477W        W47661   6.760   3.137  14.559  0.1887  0.1228  0.2463
31478W        W47662  11.650  12.338  13.081  0.2155 -0.0655 -0.1901
31479W        W47663   1.172   2.159   0.696  0.1593 -0.0906 -0.5026
31480W        W47664  14.635   9.049   2.166  0.3730  0.3299  0.1776
31481W        W47665   4.055  12.765   4.095  0.0523  0.0345  0.0642
31482W        W47666   9.914  17.621   0.604 -0.2514  0.0751 -0.0683
31483W        W47667   3.217   3.516   1.009  0.2822  0.0563 -0.2513
31484W        W47668  18.743  10.022  15.007 -0.0015  0.0652 -0.1427
31485W        W47669  16.866   6.413   0.719 -0.2973 -0.1041  0.1505
31486W        W47670  10.067  13.155  12.773  0.1490  0.0788  0.0491
31487W        W47671   1.483   4.423   4.477 -0.3252 -0.0505  0.2091
31488W        W47672  16.338   3.192   4.270 -0.0206 -0.1066  0.0377
31489W        W47673   8.454   6.958   2.342  0.2344  0.0075  0.2055
31490W        W47674   6.311   4.949   4.589  0.0982  0.0383  0.0215
31491W        W47675  16.804   3.775  15.487  0.4021 -0.0825 -0.2256
31492W        W47676   7.822  16.364  12.236 -0.1008  0.0043 -0.1902
31493W        W47677  17.346   1.319   3.675 -0.0409 -0.1363 -0.0253
31494W        W47678  14.059   6.664  11.605  0.3815 -0.0358  0.0732
31495W        W47679   6.820   6.973   4.711 -0.2690  0.1256 -0.2375
31496W        W47680   7.662   2.845  12.425  0.2427 -0.2496  0.1761
31497W        W47681  15.492   3.178  13.079 -0.0399  0.1107 -0.0733
31498W        W47682  10.895  15.662  10.799 -0.2175  0.2099  0.1895
31499W        W47683   7.770  10.444  14.806 -0.2059 -0.0672  0.2540
31500W        W47684   1.942   8.235   1.716 -0.3486 -0.0893 -0.0698
31501W        W47685  18.010   4.738  12.526  0.0009 -0.5554 -0.0592
31502W        W47686  12.048   4.221  11.396 -0.2148  0.0914 -0.1901
31503W        W47687  10.574   1.699  11.552 -0.0662 -0.0670  0.0962
31504W        W47688  14.460   2.933  12.165  0.1436 -0.2900 -0.1474
31505W        W47689   7.949   2.817   0.699 -0.1378 -0.2779  0.0259
31506W        W47690   2.318   4.309  11.378  0.1078  0.0604  0.1730
31507W        W47691   7.174   5.001   0.171  0.0244  0.1719  0.1204
31508W        W47692   4.528  11.956  10.710  0.2433  0.0039  0.2040
31509W        W47693  11.267   9.290  13.790  0.1109  0.1250  0.2787
31510W        W47694  13.307   5.665  12.573  0.2204 -0.0441  0.1737
31511W        W47695   2.995  10.157   0.922 -0.0421 -0.0277 -0.2179
31512W        W47696   6.647  16.862   1.721  0.1705  0.1004  0.0712
31513W        W47697  14.454   9.494   2.244  0.0868 -0.3699  0.0363
31514W        W47698  10.963   7.359  14.165 -0.0483 -0.0114  0.2146
31515W        W47699   1.163  12.705   3.230 -0.0027  0.4471  0.1858
31516W        W47700  13.303  13.361   3.493  0.1797  0.0054  0.1092
31517W        W47701   0.576  10.491   2.207  0.1963  0.1289 -0.2704
31518W        W47702   6.856  12.690   4.581  0.0947 -0.0462 -0.0085
31519W        W47703   6.782   2.405   2.181 -0.0121  0.0446  0.2019
31520W        W47704  12.958   4.111  14.734 -0.0259 -0.0517 -0.0775
31521W        W47705   9.814  11.144   1.739  0.0349  0.0179  0.1060
31522W        W47706   6.088   1.082  13.934  0.1685 -0.2039  0.1375
31523W        W47707  15.925  16.540   0.396  0.0761 -0.0249 -0.1068
31524W        W47708   9.436  16.902   4.155  0.0812 -0.0999  0.1439
31525W        W47709   9.777   4.993  13.736  0.1247  0.0084 -0.1804
31526W        W47710  13.743  13.814   2.884  0.1427  0.2099 -0.2171
31527W        W47711  10.265   0.682  13.102  0.2136 -0.2674  0.1751
31528W        W47712   5.935   2.673   4.199  0.3045 -0.0130 -0.0913
31529W        W47713   5.925   6.003   2.400 -0.0187  0.1213 -0.0857
31530W        W47714   2.573   8.976   2.281  0.1115 -0.0701  0.0265
31531W        W47715   3.321   2.497   4.183  0.2056  0.0829  0.0927
31532W        W47716  16.705  18.110  14.994  0.0029 -0.1801  0.0921
31533W        W47717   5.068  13.168  10.982  0.0841  0.2344  0.0511
31534W        W47718  13.018   2.525   3.592  0.0808  0.1776 -0.0262
31535W        W47719   7.469   6.451  13.815  0.0964  0.1309 -0.2631
31536W        W47720   6.332   8.169  11.147 -0.0906 -0.2505 -0.0491
31537W        W47721   7.508  14.562   0.026 -0.0449  0.0228  0.0213
31538W        W47722   2.838  18.598   1.699 -0.0371 -0.0346 -0.1205
31539W        W47723   6.991   3.500  11.350 -0.0684  0.1282  0.2338
31540W        W47724  18.742  18.539  12.442 -0.1340 -0.1009  0.0117
31541W        W47725   0.271  14.622   0.171  0.0969  0.0543  0.0742
31542W        W47726  18.722   5.236   9.559 -0.1817 -0.0917 -0.0306
31543W        W47727   2.710   8.478  14.089 -0.0881  0.1875  0.0185
31544W        W47728   5.515   9.462   4.722 -0.1195 -0.1626 -0.1235
31545W        W47729  15.401  11.949  11.905 -0.3034  0.3017 -0.0860
31546W        W47730  13.904  17.253   1.677  0.2269 -0.0942 -0.1883
31547W        W47731   7.431   9.536  11.222  0.2757 -0.0527 -0.0047
31548W        W47732  12.330  15.990   0.183  0.1753 -0.1662 -0.0274
31549W        W47733   7.548   0.894  12.029  0.2156 -0.4010 -0.0019
31550W        W47734   4.762  11.197  15.349  0.0132  0.1464 -0.2312
31551W        W47735  16.487  11.086   1.029 -0.2047  0.1499  0.2301
31552W        W47736   8.779  14.477   4.274 -0.2396  0.3917  0.1259
31553W        W47737   7.353  15.436  13.153  0.3223 -0.1635  0.1505
31554W        W47738  15.993   9.483  15.531  0.0937 -0.0556 -0.0378
31555W        W47739  17.088   4.088   4.257 -0.3310 -0.1782  0.1352
31556W        W47740  10.174   1.407   2.123 -0.1217  0.1072 -0.0502
31557W        W47741   4.554   6.314   1.814  0.1053 -0.1104  0.0589
31558W        W47742   9.813  18.733   1.873 -0.0758 -0.1603  0.1524
31559W        W47743   4.860  17.481  15.395  0.0826  0.1486  0.0072
31560W        W47744   1.830  15.133   0.197  0.3356  0.1183  0.2706
31561W        W47745   3.245  15.858  11.688 -0.0262  0.0946  0.1164
31562W        W47746  16.370  14.089  15.478  0.4050  0.1291  0.2096
31563W        W47747  15.002  13.858  11.698 -0.1357  0.2695 -0.1386
31564W        W47748  15.886   8.627   2.134  0.2154 -0.1079 -0.1023
31565W        W47749  17.271   8.850  12.873  0.2931  0.4148  0.0258
31566W        W47750   5.419  13.073  11.862  0.0114  0.0458 -0.2654
31567W        W47751  18.803  11.204   2.592  0.2597 -0.0104 -0.0616
31568W        W47752   2.858   5.444  13.529 -0.1216 -0.0432  0.1877
31569W        W47753   8.610  13.296  11.802 -0.1396  0.0132  0.0585
31570W        W47754   9.609   7.420  14.927 -0.0566  0.1449  0.1360
31571W        W47755   0.032  11.888  14.397 -0.4155 -0.0566 -0.2174
31572W        W47756  18.549  12.017  11.585 -0.0333  0.0155 -0.4721
31573W        W47757   4.034   2.573   3.749  0.0201 -0.2457 -0.4831
31574W        W47758  14.119   5.434   3.669  0.3943  0.0378  0.0174
31575W        W47759  18.420  18.060   3.331 -0.1705  0.0118  0.2257
31576W        W47760  10.062  10.473  11.448 -0.2510  0.0888 -0.1926
31577W        W47761   4.659   0.461   2.344  0.3071 -0.0923  0.3907
31578W        W47762   9.456   6.845  13.792 -0.2661  0.1266 -0.0191
31579W        W47763   7.232  15.389   4.209 -0.0055  0.2234  0.3417
31580W        W47764   3.854  16.627  15.132  0.1164 -0.3445  0.2766
31581W        W47765  18.106  18.846  14.202 -0.0139  0.0467 -0.0678
31582W        W47766  14.000   2.467   0.057  0.1060 -0.0739 -0.2330
31583W        W47767   6.807  17.634  15.057 -0.0791 -0.1312  0.1496
31584W        W47768   4.706  18.285   2.563 -0.1739 -0.2407  0.1843
31585W        W47769  11.289  10.309  12.706 -0.1050  0.0546  0.0396
31586W        W47770  13.864  17.274  12.355  0.0219 -0.0582 -0.2479
31587W        W47771  10.772   1.890   1.903  0.0010  0.0713 -0.1126
31588W        W47772   6.482   5.708   0.496  0.0403  0.1122 -0.0195
31589W        W47773   4.243   7.235   4.870 -0.0276  0.2126  0.3165
31590W        W47774   5.567   7.099   1.011 -0.1398 -0.0763  0.2773
31591W        W47775  16.871  11.902   2.121  0.0018  0.1417  0.0692
31592W        W47776  18.036  10.124  11.962  0.1036  0.3065  0.1720
31593W        W47777  13.913   4.768  12.092  0.1657  0.1183  0.0899
31594W        W47778  15.666   4.756  13.880 -0.1916  0.3932 -0.0850
31595W        W47779  12.625   6.794  11.107  0.2058 -0.0070 -0.0222
31596W        W47780   6.367  15.833   2.793  0.0083 -0.1340 -0.1227
31597W        W47781   8.794   6.775   1.211  0.0932 -0.4537 -0.1431
31598W        W47782  17.229   8.199   2.983 -0.4802 -0.0042 -0.1097
31599W        W47783  13.702   8.742  13.641  0.3710 -0.0727  0.0324
31600W        W47784  14.525  11.651   0.187  0.1396  0.2765 -0.0024
31601W        W47785   9.824   1.213  15.481 -0.1732 -0.3705  0.2038
31602W        W47786   0.612  18.389   5.354 -0.2001 -0.1024  0.2116
31603W        W47787   2.205  17.581   5.443  0.2637 -0.2501  0.0845
31604W        W47788   8.917  10.380  13.849 -0.1704 -0.3253 -0.1782
31605W        W47789  12.644   1.381  12.535 -0.1791 -0.2320 -0.0291
31606W        W47790  12.523  18.367   4.650  0.2032  0.1049  0.3496
31607W        W47791  13.488  17.911   2.683 -0.0188  0.0415 -0.0484
31608W        W47792   6.791   6.062   2.518 -0.1661  0.3379 -0.2207
31609W        W47793   6.753   1.797   1.738  0.2064  0.3934 -0.3241
31610W        W47794   1.167  18.606   5.829 -0.0085 -0.0801 -0.1307
31611W        W47795   0.709   0.437  13.432  0.1773 -0.3197 -0.0413
31612W        W47796   8.592  11.459   4.253 -0.0343  0.1022  0.0847
31613W        W47797  12.192   7.506  12.250 -0.1798  0.0840  0.1475
31614W        W47798  10.748   9.113  13.044  0.3594 -0.2185  0.1239
31615W        W47799   3.526   5.839   0.201  0.0453  0.0625 -0.0971
31616W        W47800  16.210  11.055   2.537 -0.1202 -0.2876  0.0297
31617W        W47801  12.034   7.748  12.835  0.0417 -0.0667 -0.0992
31618W        W47802   0.327   5.143  12.342  0.2331 -0.5789 -0.1556
31619W        W47803   6.338  11.198   2.626  0.0716 -0.0329  0.1482
31620W        W47804  15.650   3.849  14.354  0.0085  0.2451 -0.1105
31621W        W47805   6.144  18.071   3.296 -0.2371  0.0619  0.1265
31622W        W47806  17.746  12.926  14.143  0.0891 -0.0947  0.2165
31623W        W47807  16.926  17.834   3.163 -0.1951 -0.3160  0.0719
31624W        W47808   9.262  18.561   3.649 -0.0657 -0.2569 -0.2269
31625W        W47809  17.700  13.691   0.854 -0.2419 -0.5050 -0.0665
31626W        W47810  17.279   9.053   0.525 -0.0366  0.1636 -0.1863
31627W        W47811  10.628  14.721   1.643 -0.2982 -0.2465  0.0750
31628W        W47812   1.040   2.110   2.712 -0.0789  0.0783  0.1457
31629W        W47813  12.204   2.322   0.388  0.0386 -0.0410 -0.1197
31630W        W47814  11.817   2.165   2.987 -0.4455 -0.1030  0.0347
31631W        W47815   0.719  11.230  13.957  0.0613  0.1344 -0.1228
31632W        W47816  14.941  15.842   9.789  0.0597  0.1522  0.3237
31633W        W47817  15.602  10.095  14.179 -0.2391  0.0241  0.2325
31634W        W47818   4.168   1.931   1.392  0.2348 -0.2992 -0.2741
31635W        W47819   1.553   7.711   1.519  0.2061 -0.4308  0.1768
31636W        W47820   3.371  10.843  11.502  0.1894  0.1626 -0.0319
31637W        W47821   7.064  12.197   3.836 -0.0254  0.4819  0.0567
31638W        W47822   2.373  15.059  13.222  0.1441 -0.0178  0.2514
31639W        W47823  18.391  11.361   3.306  0.0565 -0.0573  0.3469
31640W        W47824  17.934  16.216  15.004  0.3010 -0.2765  0.0892
31641W        W47825  15.680  12.190   5.060 -0.1543  0.1450  0.3140
31642W        W47826   3.492  12.243   2.413  0.0345 -0.1819  0.3068
31643W        W47827   7.887  16.035  13.727 -0.0275 -0.3535  0.2994
31644W        W47828  13.249   6.023  12.012 -0.0700 -0.2395  0.1686
31645W        W47829  15.859  15.964   2.447  0.2639 -0.2158 -0.4136
31646W        W47830   6.344   1.521  11.480 -0.2290  0.0462  0.3426
31647W        W47831  16.739  16.064  14.291  0.2575 -0.0518  0.1174
31648W        W47832   2.739  11.407  14.966 -0.0214 -0.0111  0.0358
31649W        W47833  16.273  15.314   2.529  0.1855  0.0287  0.0756
31650W        W47834  14.078   2.078   4.659  0.0308 -0.1794 -0.2350
31651W        W47835   2.091  10.709   3.188  0.0882 -0.1885 -0.2531
31652W        W47836  10.140  10.474   1.349 -0.1033 -0.0710  0.1716
31653W        W47837   5.688   2.555  10.754  0.0020 -0.0347 -0.1168
31654W        W47838  10.647  13.345   1.758 -0.1058 -0.0830 -0.0500
31655W        W47839   3.725   4.305   4.126  0.2949  0.0654 -0.0674
31656W        W47840   3.698  12.726  10.609 -0.2123  0.1008 -0.0021
31657W        W47841   2.594   0.381   4.543  0.0741 -0.1332 -0.1930
31658W        W47842   2.844  15.204   4.533  0.0324 -0.1370 -0.0060
31659W        W47843   1.013   4.189  11.064  0.0718 -0.1832 -0.1807
31660W        W47844   9.440   4.171   0.892  0.1188 -0.0933  0.1180
31661W        W47845   8.746   8.430   1.965 -0.1197 -0.1603 -0.0300
31662W        W47846  16.298  14.141  11.563 -0.1554 -0.1151 -0.4575
31663W        W47847   7.190  14.252   0.222  0.0566  0.0912  0.1682
31664W        W47848   2.078   8.199  12.181  0.0345 -0.0341 -0.0463
31665W        W47849   7.268  16.561  14.403  0.0494  0.1995  0.0024
31666W        W47850  10.871  11.300   1.365  0.0742 -0.1881 -0.2530
31667W        W47851   9.533   3.162   1.110  0.1394  0.2234  0.0990
31668W        W47852  12.167  13.849  12.865  0.1339  0.1621  0.0264
31669W        W47853   8.240  10.954   1.574 -0.3046 -0.1131 -0.2830
31670W        W47854   1.208  18.171  13.752  0.1311 -0.0595 -0.4015
31671W        W47855   4.319  18.146  15.154  0.0545 -0.2131 -0.2081
31672W        W47856   6.287   1.380   2.019  0.2241 -0.0588  0.1072
31673W        W47857   1.805  18.113  12.505 -0.0340 -0.0085 -0.2658
31674W        W47858   4.050  11.270   3.332 -0.0048  0.0939 -0.1725
31675W        W47859  11.561   1.600   5.106  0.1820  0.1273  0.0104
31676W        W47860  14.354   0.013   4.650 -0.3008 -0.1819 -0.2536
31677W        W47861   3.670  15.120   2.646 -0.1010  0.0328 -0.1486
31678W        W47862  18.733   1.282   2.041 -0.1735  0.1720 -0.0231
31679W        W47863  11.899   6.684   3.874 -0.1902 -0.3603 -0.0778
31680W        W47864   5.001   2.412   2.657  0.0581  0.2349  0.2521
31681W        W47865   9.323  14.471   5.462  0.2208 -0.0497  0.0478
31682W        W47866  12.105  10.899   5.420  0.0601 -0.0784 -0.1454
31683W        W47867  12.667  17.817   3.721  0.1490 -0.1571  0.1771
31684W        W47868  11.472   6.237   4.669  0.0842 -0.0777 -0.0954
31685W        W47869  16.671  14.664  10.814 -0.0495 -0.0315  0.0315
31686W        W47870  12.199   0.055  11.379  0.1675 -0.4153  0.1473
31687W        W47871   1.084   9.879  13.235 -0.3817  0.1596 -0.1464
31688W        W47872  13.286   2.082   3.589 -0.2416  0.1403 -0.1000
31689W        W47873   6.577  16.967   0.730  0.1893 -0.0016  0.1822
31690W        W47874  12.236  14.054   4.005 -0.1372 -0.0572  0.1703
31691W        W47875  13.035  11.356  11.957  0.1525  0.0417 -0.0874
31692W        W47876   3.055   2.697   2.934 -0.4343  0.2595 -0.1246
31693W        W47877  13.903  15.422  14.313 -0.1236  0.0922 -0.2239
31694W        W47878  14.353  10.677   5.304  0.1568  0.1630  0.0020
31695W        W47879  15.080   6.071   0.794  0.4077 -0.0062  0.2268
31696W        W47880  16.910  17.583  11.076 -0.1069 -0.0007  0.0690
31697W        W47881   0.400   6.004  12.486  0.2867  0.4561 -0.1707
31698W        W47882   1.797   8.623   2.036 -0.0605 -0.0187  0.0199
31699W        W47883  10.928   2.897   0.452 -0.1468  0.0686  0.1935
31700W        W47884   0.504   1.988  11.159  0.0915 -0.1356 -0.0156
31701W        W47885   7.976   0.172  15.098  0.2214 -0.0316 -0.1186
31702W        W47886  18.114  15.259  12.116 -0.1778 -0.0328 -0.0219
31703W        W47887   4.892   9.610   2.504 -0.1049 -0.2509 -0.0898
31704W        W47888  11.397  15.861  11.343  0.1504  0.1030 -0.1549
31705W        W47889   0.779  13.531  15.012  0.1751  0.1516 -0.0734
31706W        W47890   0.541   4.265   4.742  0.0240 -0.1961 -0.0546
31707W        W47891   1.507  17.993   4.426  0.1444  0.1667  0.0698
31708W        W47892   5.230   7.230   1.654 -0.1393 -0.0386  0.0293
31709W        W47893  14.168  14.247  14.631  0.2875  0.1617 -0.1570
31710W        W47894   9.243  12.083   0.029  0.0028  0.2168  0.0681
31711W        W47895   8.705   0.339  10.860 -0.1499 -0.0418 -0.1364
31712W        W47896   4.181   5.939   5.003  0.3162  0.0610 -0.2491
31713W        W47897   3.315  10.842   3.177 -0.0452  0.2726  0.0389
31714W        W47898  13.535   7.688   5.083  0.2359  0.2812 -0.0072
31715W        W47899   8.293   3.456  15.512 -0.0230 -0.1854  0.0718
31716W        W47900  17.452   3.096  11.777  0.0961 -0.1933 -0.0949
31717W        W47901   6.310  11.869   3.860 -0.3575  0.1093 -0.0089
31718W        W47902   8.254  17.595   3.146 -0.2601 -0.1183  0.1285
31719W        W47903   9.933   3.778   0.592  0.0718  0.1857 -0.1271
31720W        W47904   6.446  12.581  13.394  0.2622 -0.0917 -0.0178
31721W        W47905   0.847  13.131  13.789 -0.2368 -0.0813 -0.2736
31722W        W47906  17.043  18.728   5.988  0.0915 -0.3349  0.4522
31723W        W47907   0.104  15.850  14.101  0.1746  0.0013  0.1196
31724W        W47908   5.374  14.396   1.257  0.0594  0.1337  0.0622
31725W        W47909   6.725  11.417  13.304 -0.0337  0.2012  0.1772
31726W        W47910  16.681   5.580  13.492 -0.0326 -0.1549  0.1172
31727W        W47911  17.219   1.048  14.905  0.0733  0.0046 -0.1061
31728W        W47912   6.131   5.479   4.527 -0.0223 -0.2434 -0.1159
31729W        W47913   3.169   8.468   3.402  0.0723  0.3190  0.4375
31730W        W47914   4.688  13.261  15.501  0.0669 -0.0194  0.1500
31731W        W47915   1.263   8.708  11.848 -0.1021 -0.0615  0.2612
31732W        W47916  16.040  18.361   2.693  0.1475 -0.0611  0.2406
31733W        W47917  14.271  11.074   4.854 -0.2998  0.0375  0.2806
31734W        W47918  11.678   8.366   4.634 -0.1654  0.4818  0.0465
31735W        W47919   2.563  12.909   1.724 -0.2052  0.0746 -0.1190
31736W        W47920   7.347  11.459   3.402 -0.3542 -0.0319  0.0798
31737W        W47921   3.238  14.373  12.744 -0.0344  0.0536  0.1483
31738W        W47922  11.916  15.685  15.128 -0.0864 -0.3099 -0.2196
31739W        W47923   5.954   9.438   4.475 -0.0372  0.0639  0.1044
31740W        W47924  17.156   6.105   2.752  0.1596 -0.0495  0.0460
31741W        W47925   6.817  13.744  13.602  0.2161 -0.1398 -0.0423
31742W        W47926   4.913  14.779  14.780  0.1356 -0.1335 -0.2694
31743W        W47927  15.225   9.179   2.528  0.1518 -0.3364  0.0387
31744W        W47928  11.285  10.075  11.543 -0.2180  0.1640 -0.0453
31745W        W47929  16.783  18.839  13.684 -0.0416 -0.0984  0.0445
31746W        W47930  18.228  11.033   6.176 -0.1650  0.0180 -0.2040
31747W        W47931   3.847   9.110   3.381 -0.2170 -0.0897 -0.4007
31748W        W47932   3.931  14.036  10.473 -0.0692 -0.0164 -0.1351
31749W        W47933  14.251   3.754   0.947  0.3464 -0.0551  0.1220
31750W        W47934   9.881   3.042   3.345  0.0599 -0.0683 -0.0890
31751W        W47935  16.888  13.161  13.875  0.0862  0.1262  0.0455
31752W        W47936   1.301  11.503  13.139  0.1212 -0.3589  0.0757
31753W        W47937   2.542   9.056   4.269  0.0283 -0.0302 -0.0299
31754W        W47938   4.250   7.163  13.621  0.0494  0.3975  0.1241
31755W        W47939  11.285  12.479   3.401  0.1635  0.3176  0.0154
31756W        W47940   4.488  18.764  13.111  0.1566 -0.0764  0.1498
31757W        W47941   1.692   7.784  14.279 -0.1090 -0.0261 -0.2318
31758W        W47942  17.509   8.606   4.115 -0.0413 -0.2948 -0.2238
31759W        W47943  13.276   1.338  12.580  0.1333  0.1319  0.1112
31760W        W47944   4.861   9.484  11.336 -0.0920 -0.1847 -0.2038
31761W        W47945   1.610  17.455   4.340  0.1818  0.2168  0.1314
31762W        W47946  10.270   8.951  13.489  0.0549 -0.1359  0.1044
31763W        W47947   8.490  15.976   2.806 -0.0618 -0.0730  0.1277
31764W        W47948   1.617  12.728   4.359 -0.0297  0.4291  0.2507
31765W        W47949   5.607   6.708  14.628  0.1912  0.0577  0.0319
31766W        W47950  12.354  16.503   4.878  0.0871  0.0777 -0.0716
31767W        W47951  18.258  11.974  10.809  0.2448 -0.1551  0.1040
31768W        W47952  14.117  12.772  13.608 -0.0561  0.0696 -0.0051
31769W        W47953   2.767   0.470   1.191  0.4619  0.0854 -0.0154
31770W        W47954  13.922  16.508  11.912  0.2848 -0.0403  0.1175
31771W        W47955  10.564   1.347   1.308  0.1561  0.0258 -0.0156
31772W        W47956   1.669  14.354  11.449 -0.0302 -0.0058  0.0125
31773W        W47957  11.315  10.437   0.259 -0.1347  0.0748 -0.0942
31774W        W47958   0.734  14.387  11.247 -0.1313 -0.0153  0.0297
31775W        W47959  17.407  16.296   4.551 -0.2025  0.2700 -0.1201
31776W        W47960   8.268   6.988  11.158 -0.2113  0.3020  0.0762
31777W        W47961   7.666   4.930  15.504  0.0715 -0.0149 -0.0069
31778W        W47962   1.161   5.898   2.945 -0.1734  0.3002 -0.0518
31779W        W47963   7.420  13.073   3.887 -0.0987  0.0954 -0.3128
31780W        W47964  14.469   3.397  12.840  0.0377  0.0145 -0.0495
31781W        W47965  14.454   7.247  15.040 -0.1255 -0.0267 -0.0863
31782W        W47966  14.225  13.586   1.715  0.1040 -0.0057  0.2324
31783W        W47967   2.328  12.099  12.756 -0.1856  0.1913 -0.1604
31784W        W47968  11.228   8.488   5.930 -0.2259 -0.1049  0.0675
31785W        W47969  17.181   5.083  10.327  0.1143  0.2851  0.1444
31786W        W47970   1.734  18.138   1.086 -0.0141 -0.0025 -0.1154
31787W        W47971   7.362  15.770   0.227 -0.2042  0.1076  0.0445
31788W        W47972   9.550   8.444   4.512 -0.1021 -0.1184 -0.0301
31789W        W47973   5.964  12.564   4.356 -0.1244 -0.0134 -0.1221
31790W        W47974   7.258  17.435  14.860 -0.1033  0.4839  0.1305
31791W        W47975  12.405   4.538  11.136 -0.0660 -0.0461 -0.0169
31792W        W47976   6.045  11.346  15.377  0.0092  0.0787  0.1397
31793W        W47977  17.177   2.933  10.477 -0.0818 -0.1065  0.1238
31794W        W47978  17.849   4.348  12.860  0.3527 -0.0341  0.3947
31795W        W47979  10.064   6.571   2.145  0.1039  0.5863 -0.1297
31796W        W47980  17.213  16.571   2.380 -0.0248  0.0457 -0.2260
31797W        W47981  14.641  12.869  12.636  0.0299 -0.0092 -0.1741
31798W        W47982   2.379   6.140  14.365  0.0133  0.1129  0.0841
31799W        W47983  15.719   3.053   5.657  0.0398 -0.1797  0.1034
31800W        W47984  11.684  15.643  14.168  0.1187  0.1100  0.1854
31801W        W47985   5.066   5.895  14.750  0.1903 -0.0798  0.1088
31802W        W47986  10.574   8.995   4.796  0.1974 -0.1438 -0.2761
31803W        W47987  13.775  15.433   3.475  0.1946 -0.0244 -0.0452
31804W        W47988   2.716   0.556  11.238 -0.0561 -0.0396 -0.2005
31805W        W47989  11.214   8.731   2.811 -0.0279 -0.1978  0.0450
31806W        W47990   7.887   6.810   2.665 -0.0433 -0.2350 -0.1757
31807W        W47991   4.127  15.588   1.160 -0.0689  0.0636 -0.0404
31808W        W47992  16.727   0.863  14.263 -0.0315  0.2890  0.1616
31809W        W47993   0.107  16.605   2.722 -0.0561 -0.0356 -0.2237
31810W        W47994  11.149   8.008  11.152 -0.0181  0.0940 -0.0149
31811W        W47995   4.806   4.637  13.780  0.2810 -0.4355 -0.1949
31812W        W47996   4.898   2.704   1.411 -0.1553 -0.2574  0.1043
31813W        W47997   1.993   6.031   1.191 -0.0837  0.1084  0.0602
31814W        W47998  13.802   2.329   3.102 -0.0015 -0.1419  0.0448
31815W        W47999   8.375   9.366   0.407 -0.1329  0.3105  0.0641
31816W        W48000   2.701  14.253  13.730 -0.1145 -0.3728 -0.2079
31817W        W48001  16.542  15.490  13.653  0.2291  0.0822 -0.1972
31818W        W48002   0.430  10.777  13.800  0.1243 -0.3076 -0.1140
31819W        W48003  10.839  14.484  14.859 -0.1397  0.0110  0.0251
31820W        W48004   1.920  16.019  15.476  0.0103  0.2960 -0.0888
31821W        W48005   8.953  12.498  14.152  0.1246  0.0441 -0.2196
31822W        W48006  17.240  18.075  14.943 -0.0466  0.1352 -0.3441
31823W        W48007  11.582   6.426   4.148 -0.0294  0.0315 -0.3071
31824W        W48008  15.490  16.183  13.162 -0.3991  0.0372 -0.2867
31825W        W48009  16.775   0.702   3.005  0.1506  0.3262  0.1162
31826W        W48010   5.357  10.103   0.042 -0.0289 -0.3191 -0.4645
31827W        W48011   1.655  14.997   2.935  0.1105 -0.1404 -0.1204
31828W        W48012   4.989  11.962  12.456  0.0598 -0.2211 -0.0241
31829W        W48013   8.366  11.739   2.678 -0.0764 -0.0715 -0.0072
31830W        W48014  13.587  14.682   0.103  0.2322 -0.1428 -0.3060
31831W        W48015  15.776   5.716   0.637  0.0150 -0.2450 -0.1400
31832W        W48016  17.128  14.035   2.003 -0.2637  0.0044 -0.1454
31833W        W48017  10.963  13.634   0.605 -0.1410 -0.2301  0.1086
31834W        W48018   1.587   9.140   5.156  0.1535  0.0096 -0.2480
31835W        W48019   7.341  12.319  15.182 -0.2276 -0.0985 -0.3709
31836W        W48020  14.959  10.831   0.742  0.1553 -0.3142 -0.0068
31837W        W48021  14.603   4.901  12.635  0.0897 -0.3201 -0.1628
31838W        W48022  15.223   4.815   5.072 -0.1867  0.1822 -0.0370
31839W        W48023   3.200   1.459   3.374 -0.1218 -0.0637  0.0957
31840W        W48024   7.971  16.099   4.921  0.2650  0.0781 -0.1542
31841W        W48025   3.693  17.684   1.467 -0.0677 -0.3068 -0.1470
31842W        W48026   4.437  11.768  12.790  0.0425 -0.2631  0.0521
31843W        W48027   6.635  13.855   5.145 -0.2368  0.1879 -0.0486
31844W        W48028  18.651  14.918   0.046 -0.0787 -0.0044  0.3313
31845W        W48029   0.723   0.597   0.166  0.3346  0.3065 -0.1234
31846W        W48030  10.116   3.735   4.971  0.1749  0.2508  0.1356
31847W        W48031   1.993   6.379  10.078 -0.3398  0.0791  0.1299
31848W        W48032  17.849  11.129  13.447  0.2475  0.0341  0.2464
31849W        W48033  10.811  12.232  11.093 -0.0196 -0.0688 -0.0065
31850W        W48034  17.278  16.067  13.272  0.0376  0.1073 -0.1659
31851W        W48035   3.669  10.398  15.223  0.0267 -0.1180 -0.0603
31852W        W48036   0.485  18.641   4.919  0.0725 -0.4106  0.2712
31853W        W48037  16.428  13.407  14.557 -0.1564 -0.0363 -0.1829
31854W        W48038  15.964   8.360   0.049 -0.0362 -0.0989  0.1946
31855W        W48039  16.114   4.923   3.039  0.2659  0.1719 -0.0253
31856W        W48040   9.619   2.965   0.656  0.1185  0.2047 -0.0723
31857W        W48041  10.265   0.688  11.644 -0.1199  0.0029  0.0253
31858W        W48042  15.920  13.605   3.336 -0.5233  0.2215  0.2475
31859W        W48043  11.227  17.953  13.669  0.0846 -0.2417  0.0296
31860W        W48044   6.539  11.107  10.889 -0.1876 -0.0732 -0.1215
31861W        W48045  12.834   9.700   2.449  0.0612 -0.0004 -0.0241
31862W        W48046  17.000   1.831   0.835  0.0775 -0.1064  0.2029
31863W        W48047  15.487   4.954  12.891 -0.2586 -0.0029  0.1699
31864W        W48048   8.709  11.494  11.545  0.0639 -0.0299 -0.0479
31865W        W48049  15.110   3.755  15.029 -0.0488 -0.2759  0.0196
31866W        W48050   1.519   1.189   2.635 -0.1578  0.1314  0.2064
31867W        W48051   4.842   4.075  11.335  0.0046  0.0018  0.2656
31868W        W48052  18.783  14.344  12.742  0.3569 -0.1550 -0.1318
31869W        W48053   7.692   1.477   0.451  0.0538  0.0289  0.0200
31870W        W48054   4.653   6.017  10.768  0.1874  0.3171  0.2078
31871W        W48055   4.363  13.055   3.847  0.1687  0.1949  0.1131
31872W        W48056  16.396  15.190  10.783 -0.3050  0.4096 -0.4053
31873W        W48057  16.043   7.704   1.871  0.2559  0.1272  0.0354
31874W        W48058  11.287   7.660   9.668 -0.1195  0.1352 -0.0864
31875W        W48059  18.793  15.359  11.846  0.1024  0.1519  0.2160
31876W        W48060   1.393   7.422  14.193  0.1301  0.0315 -0.2451
31877W        W48061  12.469  16.420   0.405 -0.2264 -0.0084 -0.0920
31878W        W48062   3.057   4.862  10.410  0.2291 -0.1420 -0.2237
31879W        W48063   4.219  18.291   4.151 -0.2017 -0.0313 -0.1728
31880W        W48064   9.781   5.908   1.595  0.0798 -0.1412  0.3587
31881W        W48065   0.921  17.131   0.076  0.3216 -0.3882  0.1432
31882W        W48066   3.818   4.578   2.853 -0.2678  0.1508 -0.0651
31883W        W48067  12.459   2.788  14.507  0.1947 -0.1811 -0.1345
31884W        W48068  18.732   5.465  12.271 -0.0116  0.2191  0.0058
31885W        W48069   7.381  18.244  13.101  0.0796  0.2542 -0.2120
31886W        W48070  10.930   5.597   0.820 -0.0749 -0.0120 -0.0699
31887W        W48071   5.553  12.705   2.368  0.2763  0.2209  0.2134
31888W        W48072   2.998  16.339  12.656 -0.1081  0.2355  0.0117
31889W        W48073  13.810   2.793   0.985 -0.2937 -0.2201  0.0475
31890W        W48074   5.886   1.345  14.874 -0.2543 -0.0440  0.1002
31891W        W48075   4.387   1.842   4.631 -0.0431 -0.0690 -0.2004
31892W        W48076   2.299  17.875  10.925 -0.2392  0.0978  0.2252
31893W        W48077  16.283   6.019   5.135  0.4387 -0.0475  0.0176
31894W        W48078  10.766  17.805   2.027  0.0477 -0.0586 -0.0744
31895W        W48079  10.083  17.998   1.506  0.1998  0.4016 -0.0162
31896W        W48080  10.799  12.224   4.249  0.0791 -0.2066 -0.2076
31897W        W48081  12.278  11.348   3.525  0.0006  0.1213  0.0602
31898W        W48082  13.090   4.681   2.222  0.1909 -0.1717  0.0235
31899W        W48083   5.127  17.482   1.799  0.0428 -0.0026 -0.1593
31900W        W48084   4.437   3.176   1.578  0.1739  0.0540  0.1145
31901W        W48085   6.117   2.980  11.409  0.0031 -0.0897 -0.3135
31902W        W48086   8.275   8.826  13.508 -0.3422 -0.3371  0.0921
31903W        W48087  17.401   0.952  11.216 -0.2212  0.0846 -0.0818
31904W        W48088   9.585  14.331   3.166 -0.0999 -0.2831 -0.1070
31905W        W48089   7.359   5.156  15.125  0.1198  0.2836  0.3643
31906W        W48090   0.794   0.300  14.324 -0.1096  0.2341  0.0569
31907W        W48091   3.196  10.885  12.086  0.2686 -0.1822  0.0534
31908W        W48092  11.922  17.340   1.637 -0.0338 -0.3680  0.0478
31909W        W48093  13.112  10.192  12.043  0.2009 -0.0827  0.0926
31910W        W48094   9.028   5.843   5.835  0.1141 -0.0750 -0.1564
31911W        W48095  14.478   2.319   5.442  0.1644  0.4336 -0.0271
31912W        W48096  18.491  18.383  11.305 -0.0050  0.0747  0.3036
31913W        W48097   3.663  16.224  14.897 -0.2048  0.2925 -0.0954
31914W        W48098  10.537   8.317  13.180 -0.2553  0.0457  0.0661
31915W        W48099   8.541  16.452  15.428  0.2429  0.1978 -0.1404
31916W        W48100   6.769   4.456  14.632 -0.0186  0.0369 -0.0367
31917W        W48101   3.744   5.109   0.907 -0.0606  0.0250  0.0083
31918W        W48102  16.265   1.237  14.896  0.3371 -0.3911 -0.3054
31919W        W48103  10.768  16.565   1.966  0.0493 -0.2898  0.1335
31920W        W48104  13.837  18.695  13.160  0.0636 -0.2255  0.1661
31921W        W48105   7.641   9.621   0.013 -0.3940  0.1989  0.0241
31922W        W48106   8.132  11.464   3.020  0.3290  0.3334 -0.3321
31923W        W48107   2.577  15.593  10.891 -0.0527  0.1086 -0.1862
31924W        W48108   5.397  17.728  12.689 -0.0692  0.2410 -0.2040
31925W        W48109  14.715  10.459   1.515  0.1753  0.1438 -0.1066
31926W        W48110   7.307  14.624   2.481  0.3454  0.2108 -0.1154
31927W        W48111  15.149  17.390  14.538  0.1748 -0.0476 -0.5278
31928W        W48112  16.021   1.586   1.113  0.1520 -0.1699  0.0283
31929W        W48113  10.786   9.875  13.169  0.2015  0.0143  0.2153
31930W        W48114  18.676  14.608  13.240 -0.1322  0.0241 -0.0913
31931W        W48115   8.853   5.360  12.023 -0.0708  0.1426 -0.0675
31932W        W48116   5.229   4.198   2.192 -0.1364  0.0448 -0.1862
31933W        W48117  12.862   6.174   2.519  0.1561  0.1940 -0.0773
31934W        W48118   3.401  10.672   2.713 -0.0393 -0.1342  0.0521
31935W        W48119  13.401  13.872   0.320 -0.1155 -0.3180  0.1210
31936W        W48120  18.002   5.966  10.527  0.2302  0.0502 -0.3213
31937W        W48121   0.791   4.333   0.563  0.0432  0.2860  0.0620
31938W        W48122  18.453   3.952   0.958 -0.0828 -0.1109 -0.3753
31939W        W48123  16.969   2.858  14.280 -0.0185  0.3443  0.1795
31940W        W48124  14.290  14.912  11.915  0.1778 -0.0276 -0.3759
31941W        W48125  15.406   6.610   0.773 -0.1411 -0.1256 -0.2236
31942W        W48126  18.486  16.402  12.993 -0.2069 -0.0152  0.4141
31943W        W48127   1.169   6.070  13.579 -0.1692  0.0476  0.0478
31944W        W48128   0.659   1.321   0.111 -0.0996  0.1017 -0.0192
31945W        W48129   5.861  11.216   2.852 -0.2130 -0.1672 -0.0086
31946W        W48130   1.794  16.394   0.983 -0.0112 -0.1110  0.0096
31947W        W48131   5.774   6.982  15.184  0.2794  0.1870 -0.6053
31948W        W48132  14.207   9.831   5.142 -0.0677  0.0744 -0.2330
31949W        W48133  14.750   2.718   1.368  0.2336  0.0569 -0.1212
31950W        W48134   5.824  17.660  11.093  0.2392  0.2565  0.1324
31951W        W48135  17.231  18.414  14.610 -0.2587  0.1127 -0.3796
31952W        W48136   2.843   3.897   1.124  0.2000 -0.1963  0.2431
31953W        W48137   3.399   2.228   5.180 -0.2845 -0.2858  0.2132
31954W        W48138  15.354   3.425  10.532  0.0289 -0.2641 -0.0159
31955W        W48139  18.704   9.833   4.756 -0.1273  0.0176  0.3391
31956W        W48140   1.240  13.525  11.320  0.0723 -0.1225 -0.0460
31957W        W48141   0.183   2.591  12.040 -0.1186  0.2695 -0.0176
31958W        W48142   7.945  10.756  10.661  0.3229  0.4609  0.0962
31959W        W48143   6.272  14.775   0.915  0.0512  0.0065  0.2816
31960W        W48144   0.173   1.185  12.986 -0.2282  0.2030 -0.2656
31961W        W48145  16.311   4.125  10.866  0.0801  0.0136  0.0663
31962W        W48146   6.658   2.009   4.733  0.2807  0.1062  0.2727
31963W        W48147   7.632  13.723   3.253 -0.0219  0.1998  0.0923
31964W        W48148  17.830   2.816   4.593 -0.0379  0.3582 -0.2639
31965W        W48149  11.312  10.262  15.317  0.1220 -0.0246 -0.0844
31966W        W48150  14.463   6.331  13.865  0.1382 -0.0768 -0.0427
31967W        W48151   7.057   2.590   0.736 -0.2196  0.1361  0.1996
31968W        W48152   0.895   9.994  14.991  0.0726 -0.0943  0.0679
31969W        W48153   7.871   1.881   1.654 -0.2151  0.3016  0.0163
31970W        W48154  13.763   6.845   6.001  0.0783  0.0411  0.3924
31971W        W48155  18.380  14.374  10.791 -0.2494 -0.1243 -0.1461
31972W        W48156   2.705   6.834   9.590  0.3380  0.3520 -0.0472
31973W        W48157   0.228   7.647  14.239  0.1054  0.0901  0.0149
31974W        W48158   4.780   9.224   0.254  0.2133  0.3663  0.1836
31975W        W48159  17.335  11.354   0.452  0.0640  0.3566 -0.0637
31976W        W48160  11.385   5.845   3.901 -0.2250 -0.0930  0.0898
31977W        W48161  18.701   7.433  10.626  0.2050  0.0044 -0.0948
31978W        W48162   8.770   0.106  13.836 -0.1099 -0.5644  0.1514
31979W        W48163  12.619  12.749   2.222 -0.1604 -0.1881  0.2725
31980W        W48164  14.727   3.287   5.689 -0.4106 -0.0856  0.0787
31981W        W48165  17.264   5.928  12.802 -0.0549  0.2677 -0.1110
31982W        W48166  17.582   3.459  12.571 -0.2849 -0.0817 -0.2279
31983W        W48167  14.896   5.048   2.546  0.1449  0.3810 -0.2772
31984W        W48168   9.682   9.368   4.567 -0.1273 -0.2441 -0.0302
31985W        W48169   2.833  13.515  14.483 -0.2345  0.1078  0.0260
31986W        W48170  18.713  12.382  14.513 -0.1358  0.0665 -0.1107
31987W        W48171   0.169   0.467   2.587  0.1238  0.2175 -0.2735
31988W        W48172  15.661   4.603  14.501 -0.1117 -0.0240  0.0218
31989W        W48173  13.437  16.416   3.820  0.0739 -0.3970  0.0537
31990W        W48174   3.059  11.383  12.900  0.1745  0.0080 -0.0587
31991W        W48175   2.219  10.299  10.726 -0.0470  0.2184 -0.0037
31992W        W48176   7.385   9.655   1.685  0.1876  0.0035  0.0327
31993W        W48177   1.564   8.747  15.249 -0.4419  0.1766  0.0449
31994W        W48178  17.459  13.606  12.897  0.0005  0.0313  0.0345
31995W        W48179   2.527   8.171   2.558  0.2750 -0.1627  0.1731
31996W        W48180  13.012   6.450   5.472 -0.3079  0.1257  0.0072
31997W        W48181   7.560   8.937   2.032  0.1241 -0.2496 -0.0343
31998W        W48182  16.474   1.552  15.251 -0.0657 -0.1426  0.0446
31999W        W48183  17.414   5.636  10.973 -0.0850  0.0369 -0.1360
32000W        W48184  15.653   3.870   3.903 -0.0998 -0.1193 -0.2674
32001W        W48185   5.422   8.980   5.459  0.0815 -0.0594 -0.0352
32002W        W48186  18.732   3.699  13.954 -0.0380  0.0123  0.2735
32003W        W48187   1.220   4.501   9.461  0.1275 -0.1482 -0.0938
32004W        W48188  14.873   6.644  12.187 -0.1962  0.1143 -0.0124
32005W        W48189   2.067   8.224   2.235 -0.0575  0.2663  0.0822
32006W        W48190   7.413  18.162   2.818  0.1995  0.0108 -0.1223
32007W        W48191   2.197   1.140   0.239 -0.0473 -0.3121 -0.1656
32008W        W48192  11.631   3.287  12.804  0.4180 -0.2407 -0.0213
32009W        W48193   0.449   8.423  14.721 -0.0835  0.0675  0.2642
32010W        W48194   3.450  17.565  13.670  0.2049  0.0710 -0.1215
32011W        W48195  15.404  13.652   3.512  0.1126 -0.1073  0.4533
32012W        W48196   4.679  14.204   0.753  0.0765 -0.0637  0.0071
32013W        W48197  13.667  15.302  11.485  0.0555  0.1994 -0.1224
32014W        W48198   6.734  11.477  11.395 -0.0502  0.1937 -0.1391
32015W        W48199  18.832   2.687   1.069 -0.1344  0.1001 -0.2160
32016W        W48200  10.781   8.169   3.716  0.1508 -0.1449 -0.2222
32017W        W48201   0.640   9.866   3.620 -0.2130 -0.4141 -0.0625
32018W        W48202  12.526   3.887  11.820  0.1216 -0.0965 -0.0159
32019W        W48203   4.588   0.800   3.967 -0.2691  0.1160 -0.0132
32020W        W48204  15.474   2.084   5.652 -0.2473  0.0826  0.0829
32021W        W48205  16.906   4.933   3.503 -0.1442  0.0174  0.0614
32022W        W48206   1.324  17.292  14.915  0.3035  0.2462 -0.0608
32023W        W48207   1.371  11.895   1.566  0.1146 -0.0116 -0.1823
32024W        W48208  11.593  16.211  11.916 -0.1734 -0.2246 -0.2233
32025W        W48209  15.209   4.421   4.756  0.1643 -0.2915 -0.1656
32026W        W48210   9.632   1.647   0.984 -0.2630 -0.3470 -0.0452
32027W        W48211  13.977   4.918  10.808  0.1638 -0.1568 -0.0409
32028W        W48212   3.007  11.506   1.969  0.4101 -0.3079 -0.1585
32029W        W48213  14.988   1.644   4.407 -0.0802 -0.2127  0.0106
32030W        W48214   3.584  11.825   4.270 -0.2461 -0.3056  0.0141
32031W        W48215  12.562  14.258   0.746 -0.0729 -0.0724 -0.0373
32032W        W48216   2.572  17.486   2.505  0.1312  0.0538  0.3004
32033W        W48217   2.042  15.987  10.871 -0.0582 -0.1357  0.0267
32034W        W48218  16.174   1.520   3.493 -0.1239  0.2267 -0.1042
32035W        W48219   8.421  11.291  14.230 -0.0845 -0.1390 -0.0751
32036W        W48220   1.453   4.347  13.277 -0.4117 -0.1862 -0.0105
32037W        W48221   1.397  16.263   2.891  0.2658 -0.4141 -0.2206
32038W        W48222   8.989  10.399   1.212  0.1770  0.0135  0.1956
32039W        W48223  10.616  13.388   3.327 -0.0271 -0.0693 -0.2386
32040W        W48224   7.751   5.535   2.823 -0.2539  0.0373  0.0277
32041W        W48225   7.346   6.061   2.697 -0.0361  0.1623 -0.2050
32042W        W48226   9.191   6.995  14.958 -0.0011  0.1127 -0.1867
32043W        W48227  10.167  14.656   4.172  0.0602  0.0973 -0.0946
32044W        W48228   2.215  17.668  13.598  0.4360 -0.1542  0.0172
32045W        W48229  12.600  18.606   4.176 -0.1595  0.2657  0.1259
32046W        W48230  12.639  18.607   1.500  0.0884  0.0131  0.0309
32047W        W48231  12.972  16.251  14.999 -0.2243  0.1494 -0.1209
32048W        W48232   4.347   5.987   2.455 -0.4161  0.0184  0.3350
32049W        W48233   1.208  13.984   1.464  0.0676 -0.2070  0.1747
32050W        W48234  11.357   6.872   0.814 -0.1078  0.1090 -0.3401
32051W        W48235   8.700  15.855   3.444 -0.1781 -0.0832  0.0491
32052W        W48236  18.260   0.882   4.868  0.2361 -0.3080 -0.3163
32053W        W48237  17.984   4.553  10.628 -0.2300  0.0383 -0.1580
32054W        W48238   0.689  17.967  11.226  0.0183  0.1901  0.1476
32055W        W48239  11.366   5.019  13.066 -0.2034 -0.1085  0.2796
32056W        W48240   5.331   0.401   1.659 -0.0488  0.3130  0.0605
32057W        W48241   5.168  14.167  12.732 -0.1070  0.0785  0.0852
32058W        W48242  14.886   7.751   4.973  0.2528  0.0151  0.0829
32059W        W48243   7.989   4.149   4.894 -0.1929 -0.0905 -0.1123
32060W        W48244   8.313  16.473  12.128  0.0508 -0.4158 -0.4155
32061W        W48245  16.490   9.695  15.244 -0.2693  0.2610  0.0680
32062W        W48246  12.337   1.178  13.252 -0.1883  0.0504 -0.0888
32063W        W48247   6.357  13.955  13.780 -0.0700  0.2386  0.2831
32064W        W48248   1.657  16.611  14.805 -0.0623 -0.0253  0.0517
32065W        W48249   5.675   7.032  14.103 -0.1471  0.2047  0.0939
32066W        W48250   5.428   5.960  13.001  0.0134 -0.0953  0.0347
32067W        W48251  13.811   9.913   3.616  0.0637  0.3027  0.0297
32068W        W48252  12.100   2.539   4.941  0.0241  0.5099 -0.0164
32069W        W48253  18.476  11.228  12.215  0.2178 -0.2196 -0.3120
32070W        W48254   5.756  13.450   1.235 -0.0437 -0.1978  0.0678
32071W        W48255  17.460  13.767   1.636 -0.1799  0.4494 -0.1394
32072W        W48256   7.618   8.599  10.660  0.0624 -0.0651  0.2205
32073W        W48257  16.487  14.420   2.239 -0.0480 -0.1286  0.1947
32074W        W48258   8.219   0.813  12.720  0.2233 -0.2642  0.1734
32075W        W48259   6.075  15.328   3.378  0.0974  0.1239  0.0158
32076W        W48260   2.346  18.479  13.331  0.4935 -0.1188  0.1884
32077W        W48261  16.542  15.331   0.503 -0.4416  0.0871 -0.1604
32078W        W48262   9.263  14.999  14.096 -0.1586 -0.0473  0.0528
32079W        W48263   8.661   4.706   3.348 -0.0737  0.0423 -0.0301
32080W        W48264  18.534   9.399   1.178  0.0396  0.1452  0.0394
32081W        W48265   0.950   3.126   5.808 -0.1705 -0.0131  0.0836
32082W        W48266   4.092  11.993  14.552  0.2512 -0.3470 -0.0307
32083W        W48267  13.839  12.748   1.787  0.1263  0.0768 -0.2586
32084W        W48268   5.185   9.826   3.463  0.1774  0.2842  0.1605
32085W        W48269   9.731   1.197  13.879 -0.0525 -0.1865 -0.0992
32086W        W48270  10.745   8.706   3.647  0.1215  0.3981  0.0182
32087W        W48271   5.684   4.782   1.827 -0.0509 -0.3330 -0.0605
32088W        W48272  13.653   6.147  12.689  0.0334 -0.2984  0.1475
32089W        W48273   0.478  12.029   2.446  0.1171 -0.0274  0.1467
32090W        W48274   4.857   4.140   1.419 -0.0933 -0.4626  0.0279
32091W        W48275   8.127   5.967   0.510 -0.2126  0.2285  0.0223
32092W        W48276   0.882   0.837   1.025 -0.0465 -0.0743 -0.2883
32093W        W48277  13.843  12.782  11.630  0.2389  0.2236  0.2360
32094W        W48278  10.508   2.760  11.718 -0.1728 -0.1300  0.0050
32095W        W48279  12.019   6.519  13.188 -0.1758 -0.0255 -0.0057
32096W        W48280   6.737   3.233  12.160  0.3099  0.1744  0.3515
32097W        W48281   0.126   2.665  13.128  0.2519 -0.1218 -0.3398
32098W        W48282   1.372  16.331  13.994  0.1825  0.2302 -0.0506
32099W        W48283   4.690  14.588  10.906 -0.3158  0.0826 -0.0441
32100W        W48284  16.810   0.674  14.936  0.4563 -0.3330  0.2001
32101W        W48285  13.718  14.350   1.610 -0.0182 -0.0528 -0.1183
32102W        W48286  18.010  17.512   4.234  0.1629  0.0571 -0.1298
32103W        W48287  13.644   4.994   0.675  0.2035 -0.0215  0.0200
32104W        W48288   3.411   5.350   9.477  0.1009 -0.1235  0.2177
32105W        W48289  10.308  14.686   0.836 -0.0143 -0.3313  0.0285
32106W        W48290   6.687  18.849  15.413 -0.0269  0.0702  0.3322
32107W        W48291  13.141  14.158  11.258 -0.1102  0.1967  0.2908
32108W        W48292  18.499   7.916  14.845 -0.1518 -0.1362  0.0134
32109W        W48293  16.868   7.188  15.092  0.0758  0.2472 -0.1810
32110W        W48294  16.391   9.123  14.563 -0.0727 -0.1853  0.1851
32111W        W48295   3.931   9.366   9.638  0.2041  0.1149  0.0081
32112W        W48296   0.882  18.166  12.135 -0.0796 -0.0742  0.0940
32113W        W48297  10.735   7.591   6.029 -0.0042 -0.2085 -0.2108
32114W        W48298   9.457  10.407  15.175 -0.0880 -0.3814 -0.1235
32115W        W48299  10.670  14.345  12.123 -0.2107  0.0668  0.0020
32116W        W48300  11.897   6.486  12.234  0.0428  0.0522 -0.0516
32117W        W48301   6.420   5.826  11.315 -0.1143 -0.0884 -0.0422
32118W        W48302   7.961  17.659   2.397  0.2767 -0.0347  0.4312
32119W        W48303   3.630  18.365  14.062  0.2184  0.2455  0.0677
32120W        W48304  12.796  10.559  13.866  0.3650  0.0345 -0.4801
32121W        W48305  12.557   8.573   4.364 -0.0004 -0.3854 -0.0178
32122W        W48306   7.980   7.829  11.734 -0.0794  0.2503 -0.1010
32123W        W48307  15.775  13.661   1.199 -0.2343  0.2687  0.1642
32124W        W48308  12.217  13.917   0.622  0.1542 -0.2240 -0.1066
32125W        W48309   6.971  10.620   3.695 -0.0358 -0.0853  0.1662
32126W        W48310   4.807   5.578   6.002  0.0691 -0.1588  0.2686
32127W        W48311   3.728   5.601   2.838 -0.1453  0.0443 -0.2044
32128W        W48312  13.675   4.480  14.178  0.0111 -0.1885  0.3360
32129W        W48313  15.187  18.336   3.431  0.0691  0.0875  0.1493
32130W        W48314  13.767   6.067   2.545  0.1716 -0.1017 -0.1267
32131W        W48315  16.993  13.930  12.063 -0.3942  0.2354  0.1510
32132W        W48316  11.816  10.947   5.900  0.0744 -0.1158 -0.2121
32133W        W48317   2.759  15.298   3.884  0.2633 -0.2089  0.0511
32134W        W48318   1.618   8.137  11.147 -0.6062 -0.1054  0.0655
32135W        W48319   7.034  18.250  14.211  0.0976 -0.0674  0.0502
32136W        W48320   8.361   9.527  12.369 -0.1962  0.2488 -0.1328
32137W        W48321  15.939  12.028   4.523 -0.0278  0.1097 -0.2496
32138W        W48322   3.991  18.513   3.012 -0.2264  0.0346  0.0442
32139W        W48323  12.432  17.534  11.514  0.1303  0.1291 -0.1032
32140W        W48324   2.968   2.086  11.983  0.1778 -0.1335  0.1782
32141W        W48325   0.803  17.565   1.220  0.0993  0.0282  0.0064
32142W        W48326  14.462   3.830  12.125 -0.1711  0.0475  0.3373
32143W        W48327   6.094  12.459  11.512  0.3407  0.0723 -0.0207
32144W        W48328  12.771   6.634  11.782  0.0602 -0.1138 -0.3713
32145W        W48329  17.745   3.380   0.809  0.1480 -0.0541 -0.1807
32146W        W48330  16.848  11.636  10.968  0.1600 -0.0938  0.0465
32147W        W48331   7.920  14.772  14.189 -0.0814  0.0951  0.0719
32148W        W48332   5.323  14.781   0.830 -0.0932 -0.1303 -0.1439
32149W        W48333  11.694   2.874  14.239  0.1486 -0.0385  0.3337
32150W        W48334  10.511   0.310   2.550  0.0050  0.0745 -0.2342
32151W        W48335  10.056  17.340  14.720  0.1840  0.0403 -0.1019
32152W        W48336   9.089   8.072   1.880 -0.1861  0.0283  0.2408
32153W        W48337   9.665   4.489   1.390  0.4120 -0.0419  0.0634
32154W        W48338  14.277  14.830  14.704 -0.1465 -0.0336  0.0053
32155W        W48339   0.050  17.736   2.178 -0.0903 -0.5063 -0.0638
32156W        W48340   1.999  10.571   1.160  0.0467 -0.0494  0.1041
32157W        W48341  13.782  10.081   4.565 -0.0538  0.2485 -0.2458
32158W        W48342  18.058   8.286   3.366  0.2661  0.2018 -0.2410
32159W        W48343  10.630   5.388  14.168 -0.1294  0.2978  0.1648
32160W        W48344  12.017   9.829   0.277  0.1477 -0.0469 -0.4381
32161W        W48345  10.837  17.154  11.174  0.2343  0.0528 -0.1307
32162W        W48346   6.301  11.042   3.153 -0.1498  0.0701  0.1055
32163W        W48347   1.764   2.765   0.268 -0.0985  0.0911 -0.1889
32164W        W48348   1.744  11.598  14.962  0.1066 -0.0566  0.0835
32165W        W48349   3.914  11.067   5.428 -0.1372  0.0667 -0.2512
32166W        W48350  18.745  15.604   0.990  0.0045 -0.3381 -0.1263
32167W        W48351   8.944   1.515   0.271 -0.0522  0.0638 -0.2593
32168W        W48352   5.995  10.620   4.053 -0.1016  0.2620 -0.0467
32169W        W48353  18.765   3.955  14.586 -0.0345  0.1026 -0.2547
32170W        W48354  17.615  12.046  15.165 -0.1074  0.0118  0.0072
32171W        W48355  10.533  12.337  14.293  0.4603  0.0877 -0.3385
32172W        W48356   7.595   0.282   1.671  0.1497 -0.2130  0.1569
32173W        W48357  17.645  10.890   4.982 -0.0102  0.2662  0.1346
32174W        W48358   1.891   0.617   3.934 -0.0224 -0.2037 -0.0102
32175W        W48359  15.505   6.476   2.137  0.2944 -0.1756 -0.1715
32176W        W48360   2.138   3.141   0.240 -0.2084 -0.3864  0.2368
32177W        W48361  17.930   2.088  15.082  0.1532 -0.1150 -0.1567
32178W        W48362  16.653   7.655   4.651 -0.0590 -0.0899 -0.4562
32179W        W48363   0.636  13.695   1.673 -0.2709  0.1894  0.2534
32180W        W48364  13.612   2.366   2.420  0.0215 -0.4568 -0.0364
32181W        W48365  13.609   9.016   4.299  0.0907 -0.1922 -0.0275
32182W        W48366   4.114   1.872  14.369 -0.1845  0.0214  0.0896
32183W        W48367  15.164   0.934   5.128  0.3632  0.0509 -0.2691
32184W        W48368   9.757  12.037   2.926  0.0760 -0.3904  0.0719
32185W        W48369   1.986  11.061  14.818  0.2599  0.1600  0.0114
32186W        W48370   9.398   4.802   0.677  0.0026 -0.0014  0.0228
32187W        W48371  10.629   7.365  14.824  0.3165  0.0511  0.1599
32188W        W48372   3.822  13.995  12.150  0.0952  0.2308 -0.1914
32189W        W48373   5.475  12.310  12.384  0.0757  0.0139  0.3230
32190W        W48374  14.952   4.799   0.536  0.2563 -0.2478  0.0945
32191W        W48375  16.871   3.263   1.801 -0.0730 -0.1373 -0.0017
32192W        W48376  14.485   7.422   4.088 -0.0376 -0.0797  0.4582
32193W        W48377  12.956  10.778  11.140 -0.1806  0.0297 -0.0681
32194W        W48378   7.937  12.290  12.021  0.0499 -0.5029 -0.2102
32195W        W48379  17.297   1.958  13.368  0.0094  0.1430 -0.1302
32196W        W48380  15.933  11.909  15.243 -0.1098  0.0832 -0.2158
32197W        W48381   3.497   3.626  10.192 -0.1981 -0.0001  0.1080
32198W        W48382  11.774  10.459   2.514  0.0358  0.1072  0.3350
32199W        W48383   2.491  13.190   1.205 -0.2777 -0.0267  0.3022
32200W        W48384  10.949  15.654  12.141 -0.1180  0.0195 -0.1932
32201W        W48385  15.887   5.336  14.701  0.1227 -0.1426  0.0687
32202W        W48386  11.155  17.564   3.076 -0.0603 -0.0488 -0.2665
32203W        W48387   0.585  17.502   2.826 -0.0227  0.0049  0.1365
32204W        W48388   6.369  15.611  12.071 -0.1981  0.2009 -0.0053
32205W        W48389  12.343   4.878  10.301 -0.0792  0.2013 -0.3075
32206W        W48390  11.208   1.348   5.297  0.0571  0.0960  0.0529
32207W        W48391   1.253  10.941   4.210 -0.1299 -0.1960 -0.0705
32208W        W48392  15.758  18.290   3.428 -0.1498 -0.0813 -0.1250
32209W        W48393   4.898  14.756   5.723  0.1600 -0.0718 -0.2179
32210W        W48394  12.654  16.409  13.519 -0.5212  0.0691 -0.2706
32211W        W48395   8.364   0.550   1.128 -0.0520 -0.2972 -0.0239
32212W        W48396  10.433  14.932  12.726 -0.0003  0.0649  0.1049
32213W        W48397   8.657  10.121   1.445 -0.1561 -0.1398  0.1041
32214W        W48398   0.984  18.747   0.835 -0.1054 -0.3080  0.0536
32215W        W48399  10.366   4.890   2.900 -0.0703  0.0077 -0.1735
32216W        W48400  12.426  17.628   4.184 -0.3424  0.0609 -0.1137
32217W        W48401   5.174   9.006  11.967  0.2743 -0.1711  0.1865
32218W        W48402   0.247   6.736  15.192  0.1487  0.1409  0.1896
32219W        W48403  13.177  10.811  12.794  0.0407 -0.1335 -0.3046
32220W        W48404   0.402  11.924  11.218  0.1207 -0.2178  0.0822
32221W        W48405   1.625  16.115  14.964 -0.1006  0.2262 -0.0975
32222W        W48406  11.016   4.058   1.535  0.3205 -0.0480 -0.0561
32223W        W48407  15.589   0.875  12.828  0.0269 -0.1337 -0.0914
32224W        W48408  14.207  16.155  10.812  0.1717  0.0155  0.1722
32225W        W48409  10.964  10.111   0.446 -0.2878 -0.0546 -0.0589
32226W        W48410  16.246   4.446  13.691 -0.4170  0.0358 -0.0378
32227W        W48411   2.655   8.592   4.405 -0.1823  0.1013  0.1198
32228W        W48412   4.101  11.864  11.904  0.0291 -0.1840 -0.0127
32229W        W48413   3.182   5.368   0.541  0.2212  0.4167  0.1122
32230W        W48414   2.991   4.918   5.035 -0.0355 -0.0611 -0.0445
32231W        W48415  15.256   9.455   3.207  0.0673 -0.0471  0.0316
32232W        W48416   8.917   8.796  15.424  0.2098 -0.3054  0.0978
32233W        W48417  12.637  18.410  14.219  0.0938 -0.2298  0.2633
32234W        W48418  16.818  18.633  14.110 -0.2608  0.2293 -0.0661
32235W        W48419   6.712   4.656   1.561  0.0000  0.1032  0.0759
32236W        W48420  17.077  18.151   5.180 -0.0999  0.0994  0.0402
32237W        W48421  17.295  11.985  13.372  0.1284 -0.1571 -0.2218
32238W        W48422  17.598  17.176  14.586  0.4378  0.0870  0.0116
32239W        W48423   0.164   5.018   4.713 -0.0005  0.2073 -0.2023
32240W        W48424   1.581   6.205  13.185 -0.0522  0.1112 -0.1062
32241W        W48425  12.999   9.768   3.441 -0.2199  0.1334  0.3559
32242W        W48426  10.610   1.957  14.871  0.0962  0.1806  0.3844
32243W        W48427  18.162  14.692   2.753  0.0222  0.1117 -0.2638
32244W        W48428  11.916  18.731   3.046  0.1349  0.1648  0.1439
32245W        W48429   3.653  10.410   4.062 -0.0642  0.0294 -0.1034
32246W        W48430   1.525  16.131  13.055  0.0966  0.2076 -0.1701
32247W        W48431   5.460   9.439   0.812  0.1868  0.1302 -0.0710
32248W        W48432   1.520  18.311  12.907 -0.0464 -0.1373  0.3117
32249W        W48433   3.282  15.454  10.824 -0.0165  0.3102 -0.1397
32250W        W48434   4.824  18.332  15.263 -0.0592 -0.5134 -0.1333
32251W        W48435  10.913   8.236   1.503 -0.0594 -0.1811 -0.0774
32252W        W48436   6.480   6.619   2.118  0.1214  0.2567 -0.2578
32253W        W48437  14.719   2.629  14.221  0.3399  0.1615 -0.0489
32254W        W48438   9.692   0.546   2.161 -0.2008  0.0141  0.2526
32255W        W48439   6.506   1.557   2.899  0.1528  0.0754  0.0750
32256W        W48440   9.264  17.643  14.305 -0.0333  0.0308  0.3861
32257W        W48441   2.090   9.515   3.852  0.2140 -0.0589 -0.1340
32258W        W48442   9.295   3.623  14.182  0.2591 -0.2212  0.0594
32259W        W48443  12.301  11.038  14.550  0.2423  0.0892  0.0012
32260W        W48444   2.888  12.932  11.639 -0.0732  0.0251 -0.1297
32261W        W48445  11.335  10.004  12.363  0.0773  0.0804  0.0415
32262W        W48446  18.253   7.233  13.930  0.2895  0.0473  0.3697
32263W        W48447   0.851  13.121   3.211 -0.0095 -0.1709 -0.0228
32264W        W48448  18.669  12.973   2.927 -0.0898 -0.2912 -0.0549
32265W        W48449   1.341   5.397  12.805  0.1694 -0.0054 -0.1972
32266W        W48450  17.193   6.551  11.489  0.0066  0.0910 -0.3889
32267W        W48451  12.129  11.105  13.408 -0.0169 -0.1038  0.0916
32268W        W48452   0.514  13.388   2.307 -0.2392  0.0795  0.0317
32269W        W48453   1.293   9.170  11.683 -0.1660  0.1477  0.1660
32270W        W48454  15.395  18.073   3.082  0.1805 -0.0099 -0.0084
32271W        W48455  14.258   2.913  14.283 -0.0042  0.1970 -0.2396
32272W        W48456  15.751  17.933  11.684  0.0530 -0.0873 -0.0205
32273W        W48457   5.973   4.308  14.356  0.0350 -0.1534  0.1676
32274W        W48458  18.353   8.195   2.444  0.0639  0.0712 -0.2984
32275W        W48459   1.433   5.734  13.311  0.3705 -0.2819 -0.0963
32276W        W48460  14.316  17.255   4.743 -0.3105  0.1850 -0.0160
32277W        W48461  13.424  16.393  13.959 -0.0639 -0.1401  0.1784
32278W        W48462   2.255   1.494  14.709 -0.0248 -0.2505 -0.2508
32279W        W48463  11.624  15.141   0.448 -0.4676  0.1588 -0.0959
32280W        W48464   4.640   0.691  11.406  0.3703  0.0423 -0.5354
32281W        W48465   7.336   1.682  13.153  0.4030  0.1529 -0.1296
32282W        W48466   8.281  18.112  12.851  0.1121 -0.0238  0.1638
32283W        W48467   8.918  14.757   2.060  0.2418  0.1228  0.1148
32284W        W48468  17.221  12.661  10.968  0.2829  0.1399  0.2046
32285W        W48469   4.636  12.535   1.494  0.1930 -0.0325 -0.0897
32286W        W48470   7.725   6.299   2.498 -0.1128 -0.1650 -0.1283
32287W        W48471  10.225   3.453   6.299  0.2601  0.1278 -0.0814
32288W        W48472   7.539   2.562  14.699 -0.3730 -0.1935 -0.0269
32289W        W48473   8.935   0.326   1.204  0.0437  0.4282  0.1465
32290W        W48474  14.359  17.211   6.058  0.0227  0.0397 -0.0045
32291W        W48475  16.231   9.188   0.652 -0.1224 -0.3734 -0.2283
32292W        W48476   6.625   1.087  15.476 -0.0170  0.2667  0.0769
32293W        W48477  17.728  14.442  15.315  0.0291  0.1684 -0.0842
32294W        W48478   2.830  17.270   0.253 -0.0403 -0.2205 -0.0813
32295W        W48479  14.461  15.627  14.368  0.0270  0.2244  0.1963
32296W        W48480  14.938   4.266   1.298  0.2071  0.1633  0.0281
32297W        W48481   2.770   6.870  15.101  0.1274 -0.0462 -0.1514
32298W        W48482   9.708  14.644   4.038  0.1725  0.2551 -0.0679
32299W        W48483   6.488   5.857   4.658  0.0907  0.1127 -0.3807
32300W        W48484  11.543  11.736  13.100 -0.1333 -0.1160 -0.1645
32301W        W48485  15.816   8.331  14.347 -0.0923  0.0894  0.0899
32302W        W48486   4.281  11.692   2.006  0.2457  0.1406  0.1597
32303W        W48487  12.606  14.938   1.430 -0.0627  0.1386 -0.0837
32304W        W48488  17.955   2.266  10.891  0.1047  0.0059  0.0657
32305W        W48489   7.206  18.185   3.661  0.3126  0.0235  0.1040
32306W        W48490   9.409  15.967  12.680  0.0022 -0.0904 -0.2708
32307W        W48491  15.280  17.240  15.026 -0.1814 -0.0873  0.0726
32308W        W48492   0.207   7.180  14.404 -0.1438  0.0688  0.4135
32309W        W48493  12.062   0.791  12.509  0.2936  0.1623  0.1729
32310W        W48494   0.729  17.354  12.657  0.0586  0.0966 -0.0438
32311W        W48495   5.617   6.626  11.282  0.1887 -0.1708  0.2373
32312W        W48496   5.651  10.506  14.176  0.1928  0.1504 -0.2392
32313W        W48497   9.168   0.314  10.601  0.2485  0.1399 -0.1273
32314W        W48498   0.931  16.240   5.292 -0.3090  0.0570 -0.1855
32315W        W48499  16.745   0.507   2.055  0.0840  0.0314 -0.0766
32316W        W48500   4.819  12.532  13.231 -0.0356  0.0613  0.1723
32317W        W48501  12.047  13.711   0.168  0.4418 -0.0758  0.3546
32318W        W48502   0.176  15.657  11.383 -0.2113 -0.0682 -0.3115
32319W        W48503   9.573  13.164  13.976  0.2427  0.3582 -0.0012
32320W        W48504   7.921  15.063  13.675  0.1643 -0.2337  0.1927
32321W        W48505   2.746  11.046   0.807 -0.2035 -0.0334  0.0787
32322W        W48506  18.002   2.000   1.783  0.1596 -0.0596  0.0820
32323W        W48507   1.518   6.426  15.287 -0.0661  0.2829 -0.1904
32324W        W48508  10.839   7.061   1.765  0.3284 -0.1024  0.0066
32325W        W48509  15.062  11.314   3.904  0.2261 -0.3103 -0.0857
32326W        W48510   0.404  17.578   3.675  0.4600  0.1239 -0.1092
32327W        W48511  14.851  15.000  10.764 -0.2741  0.4142  0.1808
32328W        W48512   9.759   7.777  13.312  0.0199  0.3145 -0.0291
32329W        W48513  17.970   6.209   0.895 -0.0391 -0.0418  0.2135
32330W        W48514   9.858   2.191   2.732 -0.0423 -0.1595 -0.0268
32331W        W48515  17.084   3.529   3.798  0.0515 -0.1578  0.1211
32332W        W48516   6.735  17.444  13.168 -0.5107  0.1097 -0.0023
32333W        W48517   1.874  18.277   0.014  0.3106  0.0896 -0.0007
32334W        W48518  13.800   2.570   3.938  0.0132 -0.3291  0.0959
32335W        W48519   2.874   9.010   3.009  0.1768 -0.0106  0.1115
32336W        W48520  16.465   8.958  13.378 -0.0529 -0.1673 -0.0463
32337W        W48521  10.020  11.282   2.592  0.1115 -0.1320  0.0856
32338W        W48522   8.455   1.771  15.239  0.1758 -0.0177 -0.0008
32339W        W48523  17.087   5.969  10.669  0.0976  0.3558  0.1004
32340W        W48524   5.569  10.847  10.731  0.0906 -0.1181 -0.2320
32341W        W48525  14.051   2.126   1.557  0.1391  0.0566  0.2124
32342W        W48526   4.329  14.969  12.132 -0.2701  0.1063  0.1216
32343W        W48527  10.391  11.335  11.934 -0.0328  0.1563  0.2532
32344W        W48528  15.065   3.419  10.979 -0.0416 -0.0338  0.2779
32345W        W48529  13.502  16.424  15.061 -0.2057  0.0704  0.0576
32346W        W48530   6.296   0.791  14.274 -0.3092  0.0755  0.1089
32347W        W48531   3.868  16.717  11.431  0.2009 -0.0378  0.2217
32348W        W48532  10.640   0.396   1.730  0.0459  0.3659 -0.3385
32349W        W48533   2.519  14.331   0.753  0.6171 -0.0273 -0.0912
32350W        W48534   3.946   0.192   1.517  0.1882  0.0703  0.4418
32351W        W48535  15.968   0.812  14.919  0.0842  0.0148 -0.0542
32352W        W48536   7.897  12.074  11.542 -0.1048 -0.1141  0.3021
32353W        W48537  18.353  16.219   0.055 -0.0374  0.2047 -0.2278
32354W        W48538   6.789   4.548   0.055  0.2883 -0.3440  0.1084
32355W        W48539   7.246   4.121   1.018 -0.2546 -0.0132 -0.0124
32356W        W48540   7.750  11.894   4.399 -0.0764 -0.1302 -0.0031
32357W        W48541  18.194   9.223  11.657 -0.0046 -0.0852 -0.2797
32358W        W48542   0.122  18.324  11.578  0.0082 -0.0564  0.0021
32359W        W48543   8.868  13.319   4.317 -0.0062  0.1784  0.0125
32360W        W48544  13.257   4.177  12.398  0.1805 -0.0974 -0.1715
32361W        W48545   0.803   2.481  12.830  0.2593  0.4075 -0.2124
32362W        W48546  10.668  17.620  14.952 -0.0171  0.0323 -0.1579
32363W        W48547  16.992   6.059   5.493 -0.0302 -0.1471 -0.0297
32364W        W48548  10.113   6.055  14.798  0.3153 -0.0453 -0.0461
32365W        W48549   5.857   4.865  11.797 -0.0329  0.0071  0.0175
32366W        W48550   7.217   8.459   1.233 -0.2159 -0.1788  0.1439
32367W        W48551  10.284   7.685  11.626 -0.2994  0.2097 -0.3038
32368W        W48552   1.659  13.636   1.646  0.1394 -0.1114 -0.1308
32369W        W48553   6.883  18.025   0.440  0.1437 -0.0789  0.0102
32370W        W48554   0.850  10.448   2.607 -0.0788  0.0199 -0.4459
32371W        W48555   3.589  14.341   9.684  0.0867 -0.1488 -0.1060
32372W        W48556   9.822  14.017   1.053  0.1444  0.0077  0.1685
32373W        W48557  10.204  14.954  15.477 -0.1759  0.1173 -0.2191
32374W        W48558   6.969  13.708   3.750 -0.0988  0.2631 -0.3062
32375W        W48559   4.683   1.465   3.183  0.3258  0.0304 -0.1234
32376W        W48560  13.513  18.021  14.635  0.3485 -0.0315 -0.1092
32377ION     NA48561   6.281   0.385   5.677  0.1913 -0.1435  0.1645
32378ION     NA48562   2.022  10.680  13.729 -0.2123  0.2763 -0.3815
32379ION     NA48563  17.875   4.281  10.185 -0.0038  0.0513 -0.3194
32380ION     NA48564   0.365  12.036   5.154  0.1299  0.0276  0.4770
32381ION     NA48565   0.442   5.079   9.849 -0.0017 -0.3041  0.1015
32382ION     NA48566  11.039   6.446   3.900 -0.2641  0.3474  0.1963
32383ION     NA48567   8.198   2.277   4.982  0.0196  0.0807  0.1111
32384ION     NA48568  11.006  18.647   0.509  0.2333 -0.0849 -0.0650
32385ION     NA48569   7.866   1.213  10.416 -0.1256  0.0305 -0.1952
32386ION     NA48570   9.063  14.622   0.274  0.1115  0.0631  0.0082
32387ION     NA48571   2.384   7.651   9.881 -0.4529 -0.0991 -0.0167
32388ION     NA48572  12.862  12.041  10.624  0.0082  0.0338  0.1304
32389ION     NA48573  10.330  18.633  10.454 -0.0240  0.0901 -0.2553
32390ION     NA48574   1.639  13.485   5.528  0.2500 -0.2160 -0.0518
32391ION     NA48575   9.517  17.792  13.288 -0.0729  0.2021 -0.1894
32392ION     NA48576  16.672  14.610  13.440  0.2439  0.1656  0.2596
32393ION     NA48577   1.276   4.533   3.030  0.0682 -0.1044 -0.2431
32394ION     NA48578  18.763  12.692  10.379 -0.0352 -0.2736 -0.1260
32395ION     NA48579  12.974   6.391   1.021  0.1443  0.0215 -0.0836
32396ION     NA48580  12.699  16.415  10.093  0.0526 -0.2488 -0.1545
32397ION     NA48581   2.418  12.393   9.832  0.0690 -0.3152  0.0853
32398ION     NA48582  17.388  17.702  10.358  0.1494  0.0247 -0.1591
32399ION     NA48583   0.067  14.352  10.000 -0.0088 -0.1388 -0.0614
32400ION     NA48584   8.969   2.179  10.245 -0.0903  0.1499  0.2521
32401ION     NA48585  10.867   0.647  10.448 -0.0406 -0.1868  0.1699
32402ION     NA48586  13.381   3.577  15.289  0.0011  0.0414 -0.1819
32403ION     NA48587   3.337  16.102  10.185 -0.2136 -0.1347 -0.0387
32404ION     NA48588   2.120  13.809   9.721 -0.1046  0.1005 -0.2565
32405ION     NA48589   7.845  11.489   9.583  0.2512  0.3124 -0.2259
32406ION     NA48590   5.866  11.818  10.850  0.0776 -0.0797 -0.0929
32407ION     NA48591  11.682  17.856  10.972  0.1844 -0.0253 -0.2474
32408ION     NA48592   9.911   2.218   1.649  0.1965 -0.1265  0.1129
32409ION     NA48593   4.901  18.698  10.121 -0.0536  0.2291  0.1968
32410ION     NA48594   7.490  17.722  10.437  0.0285 -0.1654  0.1175
32411ION     NA48595  11.197  12.445   1.928 -0.1467  0.2104  0.2102
32412ION     NA48596  17.191  13.876   9.793  0.2894 -0.2105 -0.1606
32413ION     NA48597   8.361  17.597  10.516 -0.0409  0.2119 -0.2696
32414ION     NA48598  14.682   5.799   4.829  0.1454  0.0517 -0.2001
32415ION     NA48599  18.308  15.187  10.095 -0.2512  0.0172 -0.0038
32416ION     NA48600   6.681   0.975  10.177 -0.1045 -0.4318 -0.0994
32417ION     NA48601   4.936   5.394   5.545  0.1233 -0.1913  0.2065
32418ION     NA48602  13.704  18.557   9.913 -0.0277  0.2609  0.1542
32419ION     NA48603  14.691   9.161   9.986 -0.0716 -0.0044  0.1755
32420ION     NA48604  18.403   6.776   9.896  0.0622 -0.3411 -0.0764
32421ION     NA48605   3.810   0.258   9.777 -0.1050 -0.2423 -0.1521
32422ION     NA48606   6.968   4.893  15.270  0.1288 -0.2748  0.0144
32423ION     NA48607  11.717  18.339  10.102  0.1319 -0.0104 -0.1821
32424ION     NA48608   6.141   7.117   9.700  0.2109 -0.0960 -0.0028
32425ION     NA48609   7.072  13.109  11.208 -0.0636 -0.1546  0.0063
32426ION     NA48610  10.245  17.745  10.133  0.1785  0.1637 -0.0334
32427ION     NA48611   2.652   3.147  15.318  0.1431 -0.1311 -0.1196
32428ION     NA48612   2.121   7.099   4.985  0.0864 -0.2289 -0.1747
32429ION     NA48613   7.350  10.103  14.791  0.1988 -0.2365 -0.2183
32430ION     NA48614   6.156  11.418  10.177  0.1329 -0.0319  0.0565
32431ION     NA48615  17.028   2.196   9.850 -0.2719  0.0638  0.0705
32432ION     NA48616  13.714   0.526  10.005 -0.0330  0.0735 -0.1446
32433ION     NA48617   0.459   4.292  12.781 -0.0282 -0.1312  0.2533
32434ION     NA48618  17.394   5.624   9.865  0.0217 -0.0623  0.0141
32435ION     NA48619   3.780  14.598  10.056  0.1159 -0.0938  0.0310
32436ION     NA48620   3.044   9.388   9.571  0.1418  0.1889  0.1631
32437ION     NA48621  12.351  13.582   5.641 -0.0551  0.3584 -0.0166
32438ION     NA48622   9.128   2.942   5.429 -0.2617  0.2997  0.0316
32439ION     NA48623   8.824  16.956  10.248  0.2598  0.1377 -0.0883
32440ION     NA48624   2.427   2.653  11.499  0.0830  0.1413  0.1401
32441ION     NA48625  14.825   9.459   5.540  0.2946  0.2053 -0.1870
32442ION     NA48626  16.523  10.307  12.619  0.2321  0.1615  0.0511
32443ION     NA48627  17.365   9.566  10.102  0.0540  0.0268  0.1324
32444ION     NA48628  13.495   6.072   4.943 -0.0333  0.1245  0.1170
32445ION     NA48629   2.370   8.500   9.782 -0.1227 -0.1100  0.1472
32446ION     NA48630  11.233   2.132   5.903  0.0631  0.2847 -0.1733
32447ION     NA48631   7.090  11.597   5.482 -0.1814  0.1668 -0.0711
32448ION     NA48632  14.203   5.270  10.379 -0.0391 -0.2727 -0.2359
32449ION     NA48633   5.925  13.230   2.200  0.0359 -0.0291 -0.0414
32450ION     NA48634  11.579  15.340  10.117 -0.1092 -0.0376  0.2784
32451ION     NA48635   5.443   5.659  10.018  0.1884  0.0186  0.0265
32452ION     NA48636   0.398  11.171  10.163  0.0414  0.1892  0.0862
32453ION     NA48637   7.482   2.680   5.521 -0.1796 -0.1652 -0.1439
32454ION     NA48638  12.292   5.977  10.489  0.0763 -0.1396  0.0678
32455ION     NA48639   7.755  18.529   0.707  0.0502 -0.2063  0.1066
32456ION     NA48640  13.548   6.997  10.174  0.2289 -0.0336  0.1558
32457ION     NA48641   5.890  10.192  15.333  0.2035 -0.1451 -0.0578
32458ION     NA48642  16.693  15.947   5.323  0.1045 -0.0626  0.1678
32459ION     NA48643   2.966  10.840   5.427  0.1568  0.2057 -0.4320
32460ION     NA48644  11.019   0.056  10.782 -0.0821 -0.2348 -0.0935
32461ION     NA48645  11.865   5.048  10.473 -0.2373 -0.1426  0.2249
32462ION     NA48646  18.507   8.479   3.300 -0.2600 -0.2448 -0.0333
32463ION     NA48647  14.538  16.739   9.928  0.2092 -0.0459  0.1613
32464ION     NA48648   5.634  17.207  10.087 -0.0887 -0.0545  0.2937
32465ION     NA48649  15.075   2.026  10.154  0.0925 -0.1852 -0.2309
32466ION     NA48650   0.385  15.647   4.048 -0.0776 -0.1198 -0.2105
32467ION     NA48651   6.677  13.208   5.882  0.2757  0.0606 -0.5028
32468ION     NA48652  17.903   2.709   9.891  0.5236  0.0321 -0.1470
32469ION     NA48653  17.675   8.795  10.002  0.0636  0.0382  0.1115
32470ION     NA48654  16.828   1.256   3.795  0.2748  0.0453  0.0274
32471ION     NA48655  18.762   2.538  10.183 -0.0376 -0.1501 -0.1089
32472ION     NA48656   5.511   0.365  10.370 -0.2907  0.0662 -0.0838
32473ION     NA48657   9.562  18.296   5.487  0.2612  0.3012 -0.0449
32474ION     NA48658   5.233  10.708   4.142  0.2340 -0.2838 -0.1775
32475ION     NA48659   3.367   8.739   5.695  0.1441 -0.2481  0.0747
32476ION     NA48660  15.035   8.245  13.046 -0.2095  0.0036  0.0823
32477ION     NA48661  15.787   6.750   9.827 -0.2866 -0.0363 -0.3298
32478ION     NA48662   2.963  10.440  11.944 -0.0684 -0.1842 -0.1203
32479ION     NA48663   7.075   8.716   4.837  0.0348  0.1023 -0.0089
32480ION     NA48664  12.017   3.567   4.926  0.1080  0.0096 -0.1631
32481ION     NA48665   1.147  17.697  13.520  0.0650  0.3008 -0.0319
32482ION     NA48666  17.313  17.243   3.624 -0.2888 -0.0885 -0.0322
32483ION     NA48667  12.264  17.147   9.841 -0.0902  0.1219  0.1229
32484ION     NA48668   5.717  14.145  12.641 -0.0107 -0.2064 -0.1387
32485ION     NA48669  11.848  16.250   9.897  0.0150  0.0988 -0.1427
32486ION     NA48670  16.752   0.771   1.575 -0.1683 -0.1359  0.2440
32487ION     NA48671   5.396  15.503   3.942 -0.1109 -0.0861 -0.0832
32488ION     NA48672  18.672  13.561   9.961 -0.2055 -0.0388  0.1053
32489ION     NA48673  14.508   6.082  12.118 -0.0518 -0.0941 -0.2070
32490ION     NA48674  17.762   3.191  11.147 -0.1208 -0.1373  0.2372
32491ION     NA48675   3.129  13.945   9.893 -0.0658 -0.2797 -0.0822
32492ION     NA48676   9.826   3.812  10.045 -0.0969 -0.0659  0.1861
32493ION     NA48677   9.012   9.489   9.892  0.0907 -0.1754  0.0997
32494ION     NA48678   0.712   7.546   5.066  0.1571 -0.1045  0.2558
32495ION     NA48679   1.392   5.283   9.742  0.1703 -0.1262  0.1737
32496ION     NA48680   9.492   8.135  10.162 -0.0140 -0.1679  0.2367
32497ION     NA48681   2.890   2.432   9.851 -0.3230  0.1567 -0.1075
32498ION     NA48682   2.322   3.801   5.709 -0.1015 -0.0179 -0.0908
32499ION     NA48683   6.064  13.409   9.938  0.1233 -0.1274  0.3873
32500ION     NA48684   4.105   6.983   9.827  0.0105  0.0075 -0.1846
32501ION     NA48685  18.488   9.718   1.639  0.0539  0.3202 -0.3770
32502ION     NA48686  18.542  10.532   9.813 -0.0533  0.0216  0.0145
32503ION     NA48687  13.255  16.262   5.218  0.0417 -0.4360  0.3533
32504ION     NA48688   0.360   9.723  10.019  0.0030  0.1071 -0.0261
32505ION     NA48689   9.308  10.286   3.098 -0.4776 -0.0943  0.0762
32506ION     NA48690   1.931  14.792   9.905 -0.1820 -0.0590  0.3754
32507ION     NA48691   7.499   0.436  10.277  0.1123 -0.1347 -0.1478
32508ION     NA48692  13.589  10.503  10.258  0.0595  0.1398  0.0819
32509ION     NA48693  15.148   8.170  10.332  0.2319 -0.0519 -0.0943
32510ION     NA48694  15.285  12.837  13.863 -0.4834  0.1769 -0.3211
32511ION     NA48695   2.101  15.751  10.120  0.1607  0.2439 -0.0602
32512ION     NA48696  12.991  13.961  13.766 -0.1965 -0.0347  0.1894
32513ION     NA48697  14.247  13.066  11.456  0.1813 -0.2302  0.2222
32514ION     NA48698   8.613  12.365  10.245  0.2037  0.1499 -0.1019
32515ION     NA48699  15.539   5.078  10.687 -0.0383 -0.1289 -0.1755
32516ION     NA48700   4.077  16.975  10.581 -0.3001  0.1049  0.2729
32517ION     NA48701   1.594  16.503  11.357  0.0713  0.3052 -0.0446
32518ION     NA48702  17.817   3.301   2.571  0.0172  0.0618  0.0391
32519ION     NA48703   4.265  16.005   9.937 -0.0831  0.3136  0.0572
32520ION     NA48704  15.255   2.578   9.976 -0.2454  0.1162 -0.2560
32521ION     NA48705  13.975   6.131  10.245  0.1133 -0.1154 -0.2032
32522ION     NA48706  12.562   9.283   2.155  0.3581 -0.1400 -0.1087
32523ION     NA48707  17.716   7.257   9.805  0.0797  0.3953  0.0977
32524ION     NA48708  17.653   1.599   5.477 -0.1190 -0.1415 -0.1311
32525ION     NA48709   3.093  16.352  11.890  0.2754 -0.1327  0.0488
32526ION     NA48710   1.117   7.689   3.714  0.1886  0.0310 -0.1001
32527ION     NA48711   9.545  12.918  11.984  0.1102 -0.0941 -0.1809
32528ION     NA48712   2.111   5.805  10.125  0.0921 -0.2380  0.0453
32529ION     NA48713   8.808   4.922  10.303 -0.2794 -0.3080 -0.0228
32530ION     NA48714  11.514   2.442  10.459  0.3060  0.0405 -0.3692
32531ION     NA48715   0.698  17.397   0.580  0.2076  0.1118  0.0428
32532ION     NA48716   7.247  16.329  10.368 -0.1249 -0.0111  0.0914
32533ION     NA48717   2.061   1.592   3.772 -0.0209 -0.1452 -0.1014
32534ION     NA48718  13.836  17.225  10.069  0.2236 -0.2836 -0.2363
32535ION     NA48719   9.191  15.646   5.664  0.0668 -0.0118  0.0561
32536ION     NA48720   4.857   6.577   3.128  0.3078 -0.4084 -0.1678
32537ION     NA48721   4.761   9.619   1.173  0.2962  0.4133  0.1320
32538ION     NA48722  12.840   4.844  10.254 -0.0944 -0.0174 -0.0033
32539ION     NA48723   6.458   6.449   5.523 -0.0033  0.2515 -0.2187
32540ION     NA48724  11.707  14.508   5.635 -0.1657  0.2705  0.3417
32541ION     NA48725   7.198   3.377   5.506  0.2490 -0.1621  0.2280
32542ION     NA48726   3.821  11.033   9.483  0.2389  0.1166  0.3285
32543ION     NA48727  16.826   8.373   5.882  0.2824 -0.1305 -0.1563
32544ION     NA48728   8.954   2.225  14.052 -0.0359  0.0077  0.0668
32545ION     NA48729  10.232   5.338  10.029 -0.1118  0.0306  0.1961
32546ION     NA48730  10.380  10.814  10.009 -0.0513 -0.0997 -0.5222
32547ION     NA48731   5.271  16.194   1.253 -0.0885  0.0879 -0.1805
32548ION     NA48732  17.175  14.696  10.050  0.3598  0.0742  0.0725
32549ION     NA48733  13.892  17.727  10.105 -0.0116  0.0362  0.5088
32550ION     NA48734   0.413   5.915   9.935  0.1150  0.2831  0.0129
32551ION     NA48735  16.805   4.840   9.492  0.0310  0.0729  0.3025
32552ION     NA48736   4.661  12.367   9.794  0.1996 -0.2156  0.1617
32553ION     NA48737  17.299   0.441   9.803 -0.3059 -0.0682 -0.3536
32554ION     NA48738  10.657  11.708   1.544  0.1366 -0.1014 -0.3834
32555ION     NA48739   4.369   3.226  10.025 -0.1322  0.5792 -0.0636
32556ION     NA48740   5.891  14.288  10.055  0.0191 -0.3051 -0.1219
32557ION     NA48741  14.303  18.210  10.901 -0.0077 -0.1426 -0.1090
32558ION     NA48742  15.052  11.900   5.704  0.2068 -0.0762  0.1179
32559ION     NA48743  11.645  12.575  10.075 -0.0952  0.3665  0.2737
32560ION     NA48744  12.364   9.581   0.513  0.1960  0.0294  0.0467
32561ION     NA48745   3.036   6.981   9.958 -0.0086 -0.2983  0.2045
32562ION     NA48746  14.343   0.492   9.964  0.0531  0.1820 -0.2163
32563ION     NA48747   6.796   6.082  15.513  0.1789 -0.0176 -0.0190
32564ION     NA48748  15.889   3.933  10.008 -0.1699 -0.2066  0.2659
32565ION     NA48749   4.473  17.947  12.912  0.1369  0.1168 -0.0546
32566ION     NA48750   3.097  15.709  14.648 -0.3941 -0.0628 -0.1987
32567ION     NA48751   1.525   0.977   5.572 -0.0346 -0.1351 -0.0361
32568ION     NA48752   1.036  12.383   4.447 -0.0934 -0.0901 -0.1447
32569ION     NA48753  13.749   4.554  10.137  0.0400 -0.0824  0.0721
32570ION     NA48754   0.495   6.446   5.192  0.2619 -0.1304  0.1455
32571ION     NA48755   5.727  15.358   9.916 -0.0004  0.0937  0.4930
32572ION     NA48756  16.118   2.233   9.993 -0.0509  0.3678 -0.3280
32573ION     NA48757  12.735  18.434  10.186 -0.3799  0.1927 -0.3350
32574ION     NA48758   5.267   1.614   4.724 -0.0262  0.2193 -0.0275
32575ION     NA48759   9.597  14.112   9.888 -0.0121  0.2030 -0.1456
32576ION     NA48760  14.408   3.436  10.108  0.3669  0.1349 -0.0917
32577ION     NA48761   9.253  17.658  10.097 -0.3341 -0.0933  0.2510
32578ION     NA48762  18.118  11.250  13.825  0.0494  0.0167 -0.0733
32579ION     NA48763  14.205  10.250   5.493  0.2322  0.0236 -0.4062
32580ION     NA48764   2.333   0.660   3.080  0.1549  0.2652  0.2509
32581ION     NA48765   8.619   4.418   5.420  0.0738 -0.0848 -0.0800
32582ION     NA48766  17.878  13.373   5.355 -0.1263  0.2313 -0.1789
32583ION     NA48767   9.542   1.452  10.406  0.1301  0.2148 -0.1576
32584ION     NA48768   8.552  14.821  12.682  0.0022 -0.1532 -0.0543
32585ION     NA48769  11.510  17.382  10.178 -0.2403 -0.0137  0.0612
32586ION     NA48770   5.909   3.346  10.225 -0.1169 -0.0241  0.0840
32587ION     NA48771   1.726  17.591  14.363 -0.1002 -0.0144  0.0572
32588ION     NA48772  12.724   2.974  10.153 -0.0337 -0.2786  0.0998
32589ION     NA48773   3.157   2.861  10.793  0.3070  0.1384  0.0911
32590ION     NA48774   6.657   5.526   3.796  0.0844  0.1369 -0.2565
32591ION     NA48775   5.534   8.303  14.434  0.1927  0.1287  0.1041
32592ION     NA48776  16.051  11.590   5.408  0.0577 -0.4031 -0.1088
32593ION     NA48777  17.382   1.328   9.932  0.2333 -0.0741  0.0098
32594ION     NA48778  12.106   4.116   9.965  0.1716  0.2488  0.0592
32595ION     NA48779   7.485   4.017  10.247 -0.2025  0.1966  0.2399
32596ION     NA48780   5.231   4.665   9.880 -0.1942  0.0079  0.0424
32597ION     NA48781   6.020  15.757   2.343  0.0001 -0.0786  0.1731
32598ION     NA48782  10.904  13.272   9.880  0.3139 -0.0220  0.2346
32599ION     NA48783  10.244   3.249  10.567  0.0067  0.0554  0.2734
32600ION     NA48784  11.613  15.452   0.049  0.1440  0.2904 -0.0492
32601ION     NA48785  11.886   1.664  10.257 -0.1158 -0.1589 -0.1160
32602ION     NA48786  10.691   1.174   2.262  0.0362 -0.1014 -0.1593
32603ION     NA48787   3.855   6.599   2.228 -0.0117  0.0169  0.5163
32604ION     NA48788  12.707  10.510   5.721 -0.1798  0.1393  0.0243
32605ION     NA48789   3.718   4.125   5.830 -0.0002 -0.2211  0.1048
32606ION     NA48790  15.049  11.787   9.830 -0.1629  0.0733  0.3567
32607ION     NA48791  18.159  14.393  14.973  0.2272  0.0640 -0.0397
32608ION     NA48792   8.578   6.029   9.730 -0.0637 -0.3583  0.2432
32609ION     NA48793  13.358   3.561  13.901  0.3503 -0.1238 -0.0155
32610ION     NA48794   9.068  15.395  10.055  0.1634 -0.3233 -0.1512
32611ION     NA48795   4.288  10.153   9.816  0.1250  0.2579 -0.0983
32612ION     NA48796   9.697   9.631  11.000 -0.1899  0.1314 -0.0659
32613ION     NA48797  10.309   4.543  10.396  0.1090 -0.3253 -0.2178
32614ION     NA48798   3.252   8.434   9.962  0.0892  0.1518  0.0116
32615ION     NA48799  12.222   6.501   5.821  0.1309 -0.3105  0.1245
32616ION     NA48800  12.699   5.146   3.423 -0.1426 -0.1644  0.2569
32617ION     NA48801  14.321  15.006   1.876 -0.1741 -0.0980 -0.0780
32618ION     NA48802  12.204  13.320   0.506  0.0175  0.0673  0.0178
32619ION     NA48803   3.473  17.326  10.425 -0.1937  0.1987  0.0701
32620ION     NA48804   4.211  16.579   5.751 -0.0818  0.1413 -0.3054
32621ION     NA48805  17.405  12.179   5.079 -0.0305  0.1034 -0.3327
32622ION     NA48806   2.409  18.813   9.744  0.0289  0.3220  0.0793
32623ION     NA48807  13.372   2.294  10.052 -0.0114  0.1089 -0.0196
32624ION     NA48808  18.664   5.064   3.376 -0.2729 -0.3086 -0.1222
32625ION     NA48809   3.258  18.368   9.811  0.1123  0.1016  0.3335
32626ION     NA48810  14.657  18.358   9.970 -0.1706  0.0530 -0.1502
32627ION     NA48811  14.691   4.540   5.053 -0.1880  0.2480 -0.2898
32628ION     NA48812  12.412  10.026  11.894  0.1575  0.2030  0.0315
32629ION     NA48813  18.052  13.231   9.874  0.4030 -0.0218  0.3706
32630ION     NA48814  10.570   7.185   5.780  0.1206  0.0432 -0.0519
32631ION     NA48815   7.605   8.233   9.656 -0.3158  0.4621  0.2120
32632ION     NA48816   6.258   5.566   9.919 -0.2140 -0.3085 -0.0231
32633ION     NA48817   3.705  13.345   5.649 -0.0977 -0.1788  0.1212
32634ION     NA48818   8.661  12.898  12.949 -0.0499 -0.0866  0.0486
32635ION     NA48819   5.052  14.508   1.621 -0.0771 -0.3483  0.3851
32636ION     NA48820  11.683  10.866   9.975  0.1738  0.1638 -0.1687
32637ION     NA48821   9.863   5.703  10.003  0.1014  0.0667 -0.3844
32638ION     NA48822   4.667   0.557  10.099  0.1203  0.0463  0.1049
32639ION     NA48823   1.316  10.324   3.612 -0.1382 -0.1897  0.2141
32640ION     NA48824   4.767   9.195  13.766  0.0461  0.2083 -0.3218
32641ION     NA48825   8.073   3.063  10.221  0.0834 -0.0988 -0.1111
32642ION     NA48826   0.353  15.230   9.986  0.1254 -0.2719  0.1577
32643ION     NA48827  10.264   4.229   0.470 -0.2168  0.0631  0.2056
32644ION     NA48828  16.485   7.383   9.707 -0.1106  0.3007  0.1744
32645ION     NA48829   5.513  13.835  10.262 -0.2530 -0.1963 -0.1247
32646ION     NA48830  11.128   1.761  10.745  0.4857 -0.0018 -0.1629
32647ION     NA48831   2.839   2.476   2.424  0.1554 -0.0508 -0.0404
32648ION     NA48832   6.684  13.422  14.520  0.1583  0.0666 -0.0963
32649ION     NA48833  17.247   4.154   5.644 -0.0308 -0.0429 -0.0980
32650ION     NA48834  14.251   8.302  10.298  0.2284  0.0253 -0.1584
32651ION     NA48835   9.353  17.280   3.231  0.3053  0.1643  0.2729
32652ION     NA48836   6.386   8.600   9.927  0.0106 -0.0124  0.0012
32653ION     NA48837   2.880  13.078   9.977  0.1592 -0.1326 -0.0536
32654ION     NA48838   8.680  10.111  10.043  0.3253 -0.0381 -0.3688
32655ION     NA48839   3.468   1.829   9.787  0.2055  0.1815  0.0661
32656ION     NA48840   4.495  13.435   5.550 -0.0276  0.1101  0.2168
32657ION     NA48841   6.458  18.195  14.021  0.0834 -0.0375 -0.2451
32658ION     NA48842   7.790   3.369  15.324 -0.2310  0.2947  0.1113
32659ION     NA48843  15.395   3.981   5.559 -0.0701  0.0607  0.1162
32660ION     NA48844  16.942  16.952   9.904  0.0799  0.1416 -0.0404
32661ION     NA48845  13.499   6.896   3.019  0.0791  0.2803  0.2779
32662ION     NA48846   8.316   3.625   5.199 -0.4893 -0.0525 -0.1198
32663ION     NA48847  15.585   6.904   5.789  0.1371 -0.0286  0.1738
32664ION     NA48848  11.142   7.246   9.852  0.1846 -0.1182 -0.0804
32665ION     NA48849   3.350  18.391  13.037 -0.0832 -0.3223  0.2643
32666ION     NA48850  16.129  10.282  10.081  0.0813  0.0481 -0.0267
32667ION     NA48851   3.748   2.674  15.329  0.3565  0.0496  0.1203
32668ION     NA48852  11.533   4.100   4.261  0.0098 -0.0394  0.0711
32669ION     NA48853   9.240   6.589   1.397  0.2623  0.0903  0.1156
32670ION     NA48854   0.356  15.480   5.799 -0.0070 -0.1021 -0.1212
32671ION     NA48855   1.095  18.191  10.024  0.0126 -0.1832 -0.2899
32672ION     NA48856   2.538   1.599  10.304  0.0478  0.1910  0.2740
32673ION     NA48857   5.663  17.961   3.262  0.1825 -0.6714 -0.2527
32674ION     NA48858  10.471   1.978   0.562  0.0185  0.1894 -0.0273
32675ION     NA48859  10.872   5.551   5.656  0.0627  0.3103  0.0225
32676ION     NA48860   4.595   9.361  10.002 -0.2461 -0.0089 -0.1346
32677ION     NA48861   6.690   7.634   9.591 -0.1027  0.0598 -0.0585
32678ION     NA48862  18.836  16.026  10.173  0.1553 -0.3121  0.0884
32679ION     NA48863   4.337   7.293  10.175 -0.0795 -0.1873 -0.1201
32680ION     NA48864   1.445  11.827   5.695 -0.1026 -0.0853 -0.0839
32681ION     NA48865  17.792  10.896   3.977  0.0853  0.0993 -0.2974
32682ION     NA48866  16.522   2.283   5.583  0.0853 -0.2125  0.1924
32683ION     NA48867   4.880   4.787  13.307 -0.2425  0.0323 -0.1970
32684ION     NA48868  11.619   6.629  10.287 -0.4971 -0.3832 -0.1389
32685ION     NA48869  16.295  18.528  10.334  0.1742  0.0766  0.1517
32686ION     NA48870  18.825  16.642  10.349 -0.1076 -0.2845 -0.1022
32687ION     NA48871  15.624   2.264   3.992  0.2817  0.1681 -0.1612
32688ION     NA48872  15.442  13.129   5.304  0.0228 -0.0969 -0.2421
32689ION     NA48873   5.063  14.614  10.115  0.3076 -0.1346 -0.2466
32690ION     NA48874  10.194   3.833  13.155 -0.2871 -0.3241  0.0469
32691ION     NA48875   5.245   7.339   9.987 -0.0887 -0.1823  0.1064
32692ION     NA48876   0.939   4.724   0.871  0.2273  0.1226 -0.1696
32693ION     NA48877  15.681  15.310   9.882  0.2475  0.1030  0.0639
32694ION     NA48878  14.974   0.413  10.179  0.3526  0.3175 -0.1289
32695ION     NA48879   6.739   4.692   2.233 -0.1638 -0.1616  0.1645
32696ION     NA48880  13.598  13.564   9.941 -0.1416  0.1273  0.1960
32697ION     NA48881   3.081   4.634   9.983 -0.1488  0.0207  0.1590
32698ION     NA48882   0.972   0.880   9.953 -0.0374  0.1378  0.4549
32699ION     NA48883  14.534  15.794  10.067  0.2356 -0.1239 -0.2778
32700ION     NA48884   5.230   2.659   0.141  0.0151  0.3211  0.0282
32701ION     NA48885  11.621   6.824  13.201 -0.1947 -0.3348  0.0952
32702ION     NA48886   9.709  13.547   1.158 -0.0653  0.4645 -0.2522
32703ION     NA48887  13.704   0.473   4.155  0.1129 -0.1833 -0.0081
32704ION     NA48888  13.409   5.088  11.645  0.1535 -0.1704  0.1135
32705ION     NA48889   3.929  12.797   9.621  0.0495  0.0670  0.0390
32706ION     NA48890   2.431  15.116  10.647  0.0679  0.2206  0.3301
32707ION     NA48891  17.103  16.637  11.654 -0.1334  0.1763  0.1241
32708ION     NA48892   9.504   4.659   9.949  0.1518  0.0567  0.2383
32709ION     NA48893  18.612  18.321   9.851  0.1580  0.0398 -0.0182
32710ION     NA48894   3.466   6.214   9.931 -0.0001 -0.0587  0.2555
32711ION     NA48895   9.042   2.696   3.121 -0.4039  0.0461 -0.0050
32712ION     NA48896  11.773   2.093   1.091 -0.1024 -0.2364 -0.2407
32713ION     NA48897  16.852  10.768  15.406 -0.2980 -0.0510  0.2337
32714ION     NA48898  18.654   6.618   5.484 -0.2693 -0.0770 -0.0365
32715ION     NA48899   4.600  13.114  10.844 -0.3653 -0.4229 -0.0820
32716ION     NA48900  14.920   7.395  10.466  0.2171 -0.0823 -0.1201
32717ION     NA48901   8.494   1.516   5.600 -0.0837 -0.3645  0.1238
32718ION     NA48902  17.649   6.380  12.014  0.1174 -0.3696  0.0178
32719ION     NA48903  14.300   2.639   9.876  0.2458  0.0378 -0.1087
32720ION     NA48904   8.222   3.528  10.137 -0.0272  0.0501 -0.1509
32721ION     NA48905  17.198   4.710  10.652  0.1659 -0.1237 -0.2113
32722ION     NA48906   6.952   6.445   9.836  0.1287  0.0143 -0.2393
32723ION     NA48907   5.705  12.581  14.889  0.1060  0.0489 -0.2588
32724ION     NA48908  18.023  15.979  10.523 -0.0611 -0.1595  0.0232
32725ION     NA48909   9.297  10.473  11.402 -0.0348 -0.1700 -0.0514
32726ION     NA48910  12.319   2.228  10.070 -0.0293 -0.1150  0.1488
32727ION     NA48911  14.857  14.444  10.288 -0.1454  0.1937  0.1771
32728ION     NA48912   2.140  13.498   2.130 -0.0459 -0.1357 -0.0430
32729ION     NA48913  16.209   6.033  12.754  0.2309 -0.1579 -0.2061
32730ION     NA48914  11.980  10.032  10.244  0.2698  0.1390  0.1801
32731ION     NA48915   5.181   6.326   5.584 -0.2790  0.1134 -0.3182
32732ION     NA48916   5.701   4.868   9.880  0.0145  0.0485 -0.0656
32733ION     NA48917  15.246   7.665   2.805 -0.3072  0.0766  0.0802
32734ION     NA48918  13.721   1.367   9.966  0.1070  0.2687 -0.0916
32735ION     NA48919  10.368   8.185  10.055 -0.1341 -0.0132 -0.0088
32736ION     NA48920  15.480  17.838  10.472  0.0088 -0.0921 -0.0091
32737ION     NA48921  10.412   2.197   4.340  0.0794 -0.1684  0.2831
32738ION     NA48922  12.464  13.099   5.505 -0.1620  0.1046 -0.0536
32739ION     NA48923   8.862   6.785   4.138  0.1171  0.1925  0.2536
32740ION     NA48924   9.952  15.012  10.221  0.0110  0.3311  0.1594
32741ION     NA48925   2.461   0.821   9.906  0.1153  0.1099 -0.1559
32742ION     NA48926   0.103  17.775  15.454 -0.1970  0.0506  0.0708
32743ION     NA48927   1.554  13.929   9.893  0.0742  0.1708 -0.1841
32744ION     NA48928   2.176   9.112  15.253 -0.1504 -0.4005  0.3154
32745ION     NA48929   6.391  11.789   9.852  0.3824  0.3570 -0.0394
32746ION     NA48930   2.425   9.649   9.758  0.2506  0.3640  0.1629
32747ION     NA48931   5.008   7.907  10.030 -0.1193  0.1123 -0.3680
32748ION     NA48932   5.496  12.033   9.810  0.0623  0.1629 -0.0659
32749ION     NA48933  10.661  11.845   5.653 -0.0664 -0.2551  0.3292
32750ION     NA48934  16.415   3.772   5.509  0.0257 -0.1669  0.2058
32751ION     NA48935  14.472  13.172  10.019 -0.4481  0.2801  0.3176
32752ION     NA48936   5.918   4.220   5.713 -0.0868  0.1348  0.2223
32753ION     NA48937   7.675  12.441   9.901  0.1035 -0.1338 -0.0755
32754ION     NA48938  16.285  12.756  10.187  0.1205 -0.2780  0.0595
32755ION     NA48939   0.460   5.063  15.137 -0.0013  0.0232  0.0099
32756ION     NA48940  18.354  11.427  10.203  0.1058  0.4230  0.1350
32757ION     NA48941   2.195  18.452  10.142 -0.2946 -0.0495 -0.3313
32758ION     NA48942  14.659   6.306   5.888  0.2605  0.0644  0.0771
32759ION     NA48943   1.659   0.324   9.794 -0.0005 -0.0100  0.0565
32760ION     NA48944  13.896  15.633   5.413  0.0430 -0.1909  0.1076
32761ION     NA48945  13.052  12.078  12.633  0.1254 -0.1300  0.1747
32762ION     NA48946  15.140  10.034  10.198  0.0163 -0.1791 -0.1184
32763ION     NA48947   8.912   4.020   9.906  0.0290 -0.1857 -0.4916
32764ION     NA48948  17.263  13.548  15.028  0.3452 -0.0792  0.0580
32765ION     NA48949   8.224  15.502  10.181 -0.0115  0.1697  0.1256
32766ION     NA48950   5.613   7.057   5.404  0.1628  0.1943 -0.0980
32767ION     NA48951   9.407   0.192   5.356  0.0705  0.1896 -0.1535
32768ION     NA48952   7.449   9.102   9.721  0.2112  0.0098  0.2922
32769ION     NA48953  15.091  16.759   9.857  0.0769  0.1936 -0.1203
32770ION     NA48954   8.185   1.306   5.231 -0.1094 -0.0711 -0.2708
32771ION     NA48955  18.284   9.638  10.045  0.2982  0.3203 -0.2414
32772ION     NA48956   1.560   2.706   9.964  0.1616 -0.0047 -0.1171
32773ION     NA48957   0.543   3.709   9.919  0.2200  0.1302  0.0426
32774ION     NA48958   9.531   9.432   5.171  0.1917 -0.1060  0.0808
32775ION     NA48959   4.636   8.108  14.973  0.0969 -0.2898 -0.0731
32776ION     NA48960  16.991  16.628   5.526 -0.1100  0.1513 -0.1805
32777ION     NA48961   8.241  14.747  10.529  0.1739  0.0636  0.2764
32778ION     NA48962  11.164   3.145  10.296 -0.2149 -0.0233  0.0570
32779ION     NA48963   1.361   6.526  10.036  0.0675 -0.3017  0.1045
32780ION     NA48964   0.434   6.460   9.759 -0.1207 -0.0442  0.0434
32781ION     NA48965  17.945  10.687  14.222  0.4635 -0.1691 -0.0876
32782ION     NA48966  16.842   5.056   5.312 -0.0037 -0.0473 -0.2393
32783ION     NA48967   4.662  11.888   3.346 -0.0137  0.2593 -0.2656
32784ION     NA48968   4.171   9.527  10.463 -0.0747  0.4269 -0.0859
32785ION     NA48969  15.062   3.891   2.937  0.0321 -0.1586 -0.1646
32786ION     NA48970   9.452  18.820  14.848 -0.0914 -0.4589  0.0964
32787ION     NA48971   7.048   2.149   9.939 -0.0220  0.3399 -0.2047
32788ION     NA48972  12.898  15.484   9.883  0.0451 -0.2429  0.4158
32789ION     NA48973  12.046  17.977  10.186 -0.0923  0.0216  0.1052
32790ION     NA48974   6.487  15.063  10.064  0.0254  0.2697  0.3957
32791ION     NA48975   1.068  16.916  11.768 -0.0691  0.0532 -0.0708
32792ION     NA48976   1.937   9.630  10.022  0.0103 -0.2995 -0.0832
32793ION     NA48977  15.186  17.523  10.056 -0.1825  0.1755  0.0028
32794ION     NA48978  12.417   2.118   1.892  0.1264  0.0745 -0.0413
32795ION     NA48979  13.137  11.374  10.185  0.0283 -0.2483 -0.0033
32796ION     NA48980  10.824  14.810   0.723 -0.0179  0.2105  0.0960
32797ION     NA48981  10.712  11.421   9.983  0.1803  0.0107 -0.3799
32798ION     NA48982   8.635   1.531  10.650  0.0488 -0.0646 -0.1235
32799ION     NA48983  10.917  13.770   2.058  0.1939 -0.2165  0.1326
32800ION     NA48984  18.619   9.840   3.415  0.0979  0.1242  0.1793
32801ION     NA48985   7.980   9.773  13.117 -0.0802  0.0515 -0.2037
32802ION     NA48986  10.821   6.003  10.210 -0.2553 -0.0211 -0.2417
32803ION     NA48987   0.395  18.353   5.821  0.0136 -0.1404  0.1124
32804ION     NA48988   7.781  10.633   9.731 -0.4549 -0.1318  0.4450
32805ION     NA48989   7.838   3.739  11.204  0.1108  0.1173  0.0016
32806ION     NA48990   9.351   3.283   6.022 -0.0919 -0.1925 -0.2238
32807ION     NA48991  10.432  12.373  10.017  0.1028 -0.1369 -0.0556
32808ION     NA48992   6.990   3.247  10.096 -0.3380  0.3165  0.2933
32809ION     NA48993  10.492   0.594  15.357 -0.2244  0.0965  0.0468
32810ION     NA48994  13.963  17.635   5.077  0.1569  0.1868 -0.1734
32811ION     NA48995   5.882  13.414   0.707 -0.0501 -0.0970  0.0642
32812ION     NA48996   8.187   3.924  12.567  0.2405  0.0584 -0.1923
32813ION     NA48997  15.977  10.423   5.503  0.0134 -0.1842 -0.0100
32814ION     NA48998   7.007  10.917  10.406 -0.2696 -0.0070  0.4358
32815ION     NA48999  12.427   0.043  15.006 -0.0152  0.0356 -0.0437
32816ION     NA49000  16.131  13.895   0.801  0.2518  0.4804 -0.2682
32817ION     NA49001  16.011   5.078   9.989 -0.1785 -0.0145  0.1934
32818ION     NA49002  18.432   0.226  14.624 -0.0121  0.0158  0.2562
32819ION     NA49003   0.180   0.828   9.981  0.0927  0.3278  0.1419
32820ION     NA49004  15.230   3.456   9.909 -0.1196 -0.0025  0.0872
32821ION     NA49005  14.556  13.851   4.061 -0.0029  0.3185 -0.1412
32822ION     NA49006  15.925   8.023  11.089  0.0475 -0.0718 -0.2019
32823ION     NA49007  16.109  16.593  10.075 -0.1671 -0.1647 -0.0813
32824ION     NA49008   5.323  18.305  10.900 -0.0947  0.0706 -0.3056
32825ION     NA49009   0.222   2.108  10.110 -0.1587 -0.1509  0.2966
32826ION     NA49010  18.691   5.739   5.753 -0.0215  0.0603  0.1780
32827ION     NA49011   0.896   0.371   5.735 -0.0808  0.0228 -0.0210
32828ION     NA49012   6.919  18.141  10.696 -0.0017  0.4122  0.1381
32829ION     NA49013   8.881   4.433   0.584  0.1131  0.4098 -0.1636
32830ION     NA49014  14.724   1.441   5.775  0.0448  0.0858  0.1232
32831ION     NA49015  18.537   8.326   9.939 -0.1676  0.3068  0.1189
32832ION     NA49016  14.886  12.419  11.138 -0.1485  0.0439  0.3281
32833ION     NA49017  12.679  17.452   5.560 -0.3379  0.1960  0.0213
32834ION     NA49018   3.789   5.537   9.774  0.1367  0.0710  0.1377
32835ION     NA49019   0.306   6.368  11.753 -0.2053  0.1175 -0.0839
32836ION     NA49020   1.500   1.925  10.104  0.2208  0.1647 -0.0777
32837ION     NA49021  10.169   4.448   5.727  0.1472 -0.2488  0.0746
32838ION     NA49022  12.831  12.720  15.451  0.1645 -0.2356  0.1162
32839ION     NA49023   1.101   5.960  14.096 -0.2613 -0.1189  0.0717
32840ION     NA49024  14.268  10.125  10.073 -0.1021  0.1172  0.0742
32841ION     NA49025  11.467   0.906  10.471 -0.1351 -0.0853  0.4542
32842ION     NA49026   2.608  17.832   5.699 -0.1236  0.1553  0.0803
32843ION     NA49027  11.918  12.527   1.561 -0.2139  0.0436  0.3017
32844ION     NA49028  12.283  11.495  10.047 -0.4186  0.0806  0.2763
32845ION     NA49029   7.645   2.646  10.142 -0.0455 -0.2291 -0.0664
32846ION     NA49030  17.927  12.029  11.858 -0.0791  0.1684 -0.0544
32847ION     NA49031   3.865  17.208   1.717 -0.0680  0.0210  0.1932
32848ION     NA49032   5.786   8.003   9.840  0.2915  0.0495  0.0022
32849ION     NA49033  16.744  18.843   2.102  0.3281 -0.1212 -0.2645
32850ION     NA49034  12.655  15.604  11.269 -0.3686 -0.5475 -0.0961
32851ION     NA49035  12.985   4.106  10.145 -0.4234 -0.4316  0.0137
32852ION     NA49036  12.922   7.705  11.388 -0.1362  0.0279 -0.1487
32853ION     NA49037  13.172   3.768   5.692  0.5145 -0.1632 -0.4683
32854ION     NA49038   4.266  11.991   4.680  0.0602  0.1310  0.0257
32855ION     NA49039  13.756   0.846   0.558 -0.1751  0.1246 -0.0308
32856ION     NA49040   2.281  14.208  14.599 -0.0399  0.3549 -0.0845
32857ION     NA49041  10.010   8.769   5.640 -0.2475  0.0095 -0.1565
32858ION     NA49042  16.888  17.956   9.911 -0.1628 -0.0127 -0.2654
32859ION     NA49043   4.675  11.490   9.869  0.1745 -0.4035 -0.0165
32860ION     NA49044   0.391   8.695  10.028 -0.0709  0.1057 -0.2145
32861ION     NA49045   6.985  13.023   9.793 -0.2095 -0.0248 -0.0527
32862ION     NA49046  14.706   0.250   5.769  0.2041 -0.0124 -0.1108
32863ION     NA49047  11.024  14.987   3.762  0.0909 -0.0808  0.1027
32864ION     NA49048  17.648  14.350  11.273 -0.2117 -0.1828  0.0451
32865ION     NA49049  12.313  12.978  10.266 -0.0517  0.0465  0.2935
32866ION     NA49050  16.326   8.912   5.406  0.1543 -0.1168  0.0290
32867ION     NA49051   9.070   3.148  10.121  0.1791 -0.1133  0.3637
32868ION     NA49052   7.389   4.910  10.209  0.0906  0.0690 -0.1041
32869ION     NA49053  15.568  11.013  10.232  0.3709  0.1041 -0.4096
32870ION     NA49054  15.713   0.265   0.700  0.0997 -0.2899  0.0262
32871ION     NA49055  12.021   1.098  14.210 -0.1253  0.0126  0.1965
32872ION     NA49056   8.502   7.527   9.685  0.1490  0.0695 -0.1635
32873ION     NA49057  13.735  13.041   9.957 -0.2252 -0.0367 -0.1243
32874ION     NA49058   3.032   0.198   1.570 -0.1793  0.1321  0.1788
32875ION     NA49059  15.709  14.399   9.827  0.0628  0.2363  0.3191
32876ION     NA49060  15.747   2.685   0.451 -0.1850  0.1573 -0.0861
32877ION     NA49061   0.257  10.423   5.527 -0.0908 -0.2785  0.1310
32878ION     NA49062   0.839   5.173   5.378 -0.1082 -0.1514  0.0966
32879ION     NA49063   6.585   4.762   9.938  0.0513  0.2083  0.0888
32880ION     NA49064   5.573   8.809  10.166  0.2848 -0.0905 -0.0264
32881ION     NA49065  11.724   6.108  10.348  0.2505  0.3270  0.1089
32882ION     NA49066   9.936  15.831  10.451  0.0346 -0.0188 -0.1837
32883ION     NA49067  12.557   8.498  11.377  0.2966 -0.1211 -0.1727
32884ION     NA49068  11.014  14.547  10.063  0.1361 -0.0770 -0.0095
32885ION     NA49069   9.558  13.437  10.001 -0.2976  0.0916 -0.1146
32886ION     NA49070  13.062  13.885   5.783 -0.1201 -0.0653  0.1374
32887ION     NA49071   1.743   4.743   4.227  0.1229 -0.1832 -0.0004
32888ION     NA49072  16.444   5.779   9.587  0.0261  0.0470 -0.1963
32889ION     NA49073   2.675  12.291   5.534 -0.1767 -0.1648 -0.1604
32890ION     NA49074  10.247  11.915   0.275 -0.1342 -0.0261  0.1796
32891ION     NA49075  14.513   5.869  14.807  0.1958 -0.1737 -0.1712
32892ION     NA49076   2.719   4.209   9.998 -0.0523  0.2329  0.0668
32893ION     NA49077  11.831   8.996  10.294 -0.1830 -0.0258  0.3700
32894ION     NA49078  10.899  15.959  10.062  0.0252  0.1821  0.1425
32895ION     NA49079   6.675  12.602   9.785 -0.0256 -0.1435  0.0388
32896ION     NA49080   2.014  10.556   5.437 -0.1641 -0.0459 -0.1084
32897ION     NA49081   8.301  12.854   2.136  0.3243  0.1123  0.1848
32898ION     NA49082   3.976  11.880   9.618 -0.0364 -0.3347  0.0881
32899ION     NA49083   2.644  14.447  13.267 -0.1588 -0.0990 -0.1822
32900ION     NA49084   9.565   6.321   3.520  0.2648  0.0461  0.0784
32901ION     NA49085   5.910   0.320   4.823 -0.2752  0.1837  0.1471
32902ION     NA49086  15.033  12.725  10.021  0.1750  0.0544 -0.0091
32903ION     NA49087  17.505   8.836   2.332 -0.2400 -0.2184 -0.2147
32904ION     NA49088   1.326   3.503  10.060  0.0256  0.1667  0.1736
32905ION     NA49089   5.303   7.617   4.902 -0.0765  0.0352  0.1538
32906ION     NA49090  10.926   5.078   9.892 -0.4238  0.1475  0.0192
32907ION     NA49091   1.560  12.241  10.069  0.0363  0.1438  0.1757
32908ION     NA49092   5.852   9.900  10.324  0.0468  0.0079 -0.2648
32909ION     NA49093   9.354  11.626   9.757 -0.2198 -0.0269  0.3009
32910ION     NA49094  10.475   8.228   5.157  0.0539  0.0264  0.0421
32911ION     NA49095   7.983  15.003   2.261  0.0717 -0.0146 -0.3769
32912ION     NA49096  15.229  16.263   9.884 -0.1695  0.2637 -0.1277
32913ION     NA49097   7.163  17.755  13.309  0.3564 -0.1054  0.1796
32914ION     NA49098   9.983  12.239  14.588  0.4528  0.0252  0.2521
32915ION     NA49099  13.517   9.708  10.341 -0.1586  0.0652 -0.3750
32916ION     NA49100   2.619  16.003   0.886 -0.5371 -0.3067 -0.2971
32917ION     NA49101   9.981   6.770   9.945  0.0343 -0.1099 -0.2279
32918ION     NA49102   1.835  10.434   9.937 -0.0755  0.0562  0.1061
32919ION     NA49103  11.038  18.102  10.169 -0.0094 -0.1612  0.0634
32920ION     NA49104   1.103  10.842   5.814 -0.3524 -0.1383 -0.0717
32921ION     NA49105  13.451  12.181  10.046 -0.3372  0.1080 -0.2475
32922ION     NA49106  10.776   9.550  10.179  0.0077 -0.1053 -0.0334
32923ION     NA49107   8.644  17.196   5.419  0.0629  0.0685 -0.1166
32924ION     NA49108   6.031  17.470   2.090  0.1118  0.0356 -0.2333
32925ION     NA49109  10.047   2.344  10.454 -0.1659 -0.1711 -0.0675
32926ION     NA49110   4.332  17.119   5.779  0.1695  0.0076  0.0664
32927ION     NA49111  14.473   7.477  10.048  0.0344 -0.1584 -0.0752
32928ION     NA49112  13.198   8.266  10.154  0.1164 -0.3515 -0.0456
32929ION     NA49113   7.779   9.814   9.955 -0.0048 -0.0878 -0.1865
32930ION     NA49114  17.032  12.492   1.813  0.1451 -0.3074 -0.1595
32931ION     NA49115  16.155  15.645  12.837 -0.0884 -0.0120  0.1431
32932ION     NA49116   5.057   1.334   0.160 -0.3584  0.2219 -0.0173
32933ION     NA49117   9.032  15.992  10.404 -0.1120 -0.0876  0.1541
32934ION     NA49118  11.496   9.977  10.407  0.2479 -0.1041  0.1032
32935ION     NA49119  15.461  14.406  14.885  0.0749  0.0512  0.3118
32936ION     NA49120  11.866  17.629   0.228  0.0843  0.1522  0.0687
32937ION     NA49121   4.438  14.287  10.124  0.0700  0.0728 -0.1493
32938ION     NA49122  14.283  12.322  10.106 -0.2418  0.1702  0.3174
32939ION     NA49123   4.161  13.341   9.892 -0.1072 -0.0386  0.0242
32940ION     NA49124   2.416   2.671   3.736  0.0793 -0.1659  0.0055
32941ION     NA49125  15.911   0.809   9.841 -0.2607 -0.0713 -0.1647
32942ION     NA49126   4.709  11.014   9.627 -0.0328 -0.1683 -0.2173
32943ION     NA49127   9.567  18.195  10.278 -0.2662  0.0894  0.2646
32944ION     NA49128   1.969   7.406  12.033  0.0959 -0.0600 -0.2765
32945ION     NA49129  13.798  15.260   9.835  0.1472 -0.2590 -0.0239
32946ION     NA49130  10.082   6.375  15.154 -0.1382 -0.1799  0.1582
32947ION     NA49131   4.022  14.593   5.452 -0.0743  0.4041 -0.1918
32948ION     NA49132   2.646  14.744   5.852  0.2186 -0.0056  0.0216
32949ION     NA49133  11.832   3.360  10.094  0.2746 -0.2165  0.0336
32950ION     NA49134   6.714  18.364   0.010 -0.3179 -0.0233  0.0018
32951ION     NA49135   5.092  16.331  10.337  0.1680  0.1758 -0.0328
32952ION     NA49136   6.957   9.453  11.487 -0.1487  0.2023  0.0330
32953ION     NA49137  10.245  14.107  10.156  0.2257  0.3499  0.0065
32954ION     NA49138  10.762  12.771   5.548  0.3449  0.0361  0.4158
32955ION     NA49139   9.461  16.610  12.882 -0.0813 -0.0707  0.0376
32956ION     NA49140   6.116  14.960  14.623 -0.1827  0.2404  0.3465
32957ION     NA49141   8.554  11.432   5.299  0.2627 -0.2079  0.1813
32958ION     NA49142   9.867  10.764   9.887  0.2201 -0.0677 -0.1482
32959ION     NA49143  11.091   3.428   5.939  0.1254 -0.0293 -0.4327
32960ION     NA49144   4.734  16.033   5.191  0.3429 -0.0125 -0.1028
32961ION     NA49145  17.680   8.053  10.129 -0.4001 -0.2708 -0.0718
32962ION     NA49146  10.541   1.380  10.043 -0.3175 -0.0116 -0.2851
32963ION     NA49147   7.001   3.983   0.518 -0.0471 -0.1580 -0.0096
32964ION     NA49148   8.268   5.141   9.656 -0.1554  0.1430 -0.1381
32965ION     NA49149   4.066  18.632   9.692  0.0588 -0.1578 -0.3251
32966ION     NA49150   8.451   2.771  10.614  0.3969  0.1162  0.2527
32967ION     NA49151  13.183   2.136  14.834 -0.1561  0.0855  0.2452
32968ION     NA49152  11.697  10.734  10.913  0.2786 -0.3569  0.3348
32969ION     NA49153   3.211  15.292  10.067 -0.1602 -0.0746 -0.0122
32970ION     NA49154   5.099   1.116  10.279  0.3839 -0.1386  0.2004
32971ION     NA49155   8.285   0.253  10.454 -0.4985  0.2162  0.2207
32972ION     NA49156  10.164   6.409   1.651 -0.0824 -0.1889  0.0777
32973ION     NA49157  11.260  16.730   9.948  0.3790  0.1405 -0.2649
32974ION     NA49158   7.970  14.536  10.108 -0.1715  0.0963  0.1540
32975ION     NA49159  12.907   7.520   3.529  0.0252  0.2155 -0.0676
32976ION     NA49160  11.265   4.033  10.461 -0.0996  0.1502  0.1825
32977ION     NA49161   0.363  18.258  10.468 -0.1408  0.0741  0.1558
32978ION     NA49162  18.035   0.461  10.050  0.0024 -0.1931  0.0035
32979ION     NA49163  16.800   8.242  10.022 -0.3287 -0.1035  0.0104
32980ION     NA49164   8.641   0.435   3.612 -0.0581  0.3166 -0.0127
32981ION     NA49165   5.154  10.115   9.822  0.0784  0.1953  0.1196
32982ION     NA49166  18.367  17.012   6.059 -0.1518  0.1542 -0.0391
32983ION     NA49167   9.471  16.676  10.177 -0.0341  0.1685 -0.0349
32984ION     NA49168   2.970  11.590   9.607  0.0088 -0.1534 -0.4329
32985ION     NA49169   9.505  18.049   5.935  0.3571 -0.0299 -0.4377
32986ION     NA49170   9.841  11.634   9.945  0.1359 -0.1830 -0.1375
32987ION     NA49171  15.996   7.591  10.142 -0.1355  0.1198  0.1820
32988ION     NA49172   0.999  14.610   9.853  0.1143  0.0029 -0.1428
32989ION     NA49173  14.179   2.420  11.234  0.4205 -0.1614 -0.2062
32990ION     NA49174   2.008  10.965  10.004  0.1249  0.3209 -0.2079
32991ION     NA49175   5.717  14.914   5.418  0.2537 -0.0422  0.0034
32992ION     NA49176   9.494   6.412  10.057  0.2181  0.1467  0.0716
32993ION     NA49177  11.953  11.313   0.340  0.1273 -0.0029  0.4302
32994ION     NA49178   7.380   7.073  12.807 -0.0672  0.2051  0.0604
32995ION     NA49179  17.032   4.993  12.401 -0.0465 -0.0684  0.2357
32996ION     NA49180   0.395   3.020  10.150 -0.2895 -0.2247 -0.2387
32997ION     NA49181  17.453   7.747   5.497  0.1420  0.0339  0.1192
32998ION     NA49182   8.284   8.955   9.569 -0.1320  0.2010 -0.1389
32999ION     NA49183   2.798  16.410  13.651  0.1876 -0.0208 -0.4743
33000ION     NA49184   9.912   2.460  13.223 -0.2550  0.0872 -0.0471
33001ION     NA49185  18.261   5.094   9.747 -0.0087 -0.1780  0.1236
33002ION     NA49186  18.266  18.332   4.877  0.2848  0.2500  0.4492
33003ION     NA49187  17.932  10.189  10.484  0.5088 -0.3385  0.0608
33004ION     NA49188  12.543   0.681   1.351  0.0927 -0.4354 -0.0655
33005ION     NA49189   9.126  15.645   6.192  0.2877 -0.0107 -0.0662
33006ION     NA49190  15.100  13.705  15.339 -0.2682 -0.2714  0.0114
33007ION     NA49191   8.626  11.108   9.764 -0.3178  0.1162  0.2151
33008ION     NA49192   8.747   0.569   4.806 -0.0463  0.1078  0.1165
33009ION     NA49193  16.164  17.554  10.058 -0.2190 -0.1134 -0.2009
33010ION     NA49194   9.572   0.182  10.321 -0.0718  0.1930  0.0100
33011ION     NA49195   4.780  16.866  10.174 -0.3437  0.0323 -0.2421
33012ION     NA49196   6.984  17.122  10.541 -0.1125  0.0147  0.2908
33013ION     NA49197  17.850   1.853   9.752  0.1370 -0.1504 -0.2997
33014ION     NA49198  18.561   4.240   9.822  0.0091 -0.0316 -0.2255
33015ION     NA49199   6.740  14.988   5.446 -0.0941 -0.1176 -0.0574
33016ION     NA49200  15.737   1.700   9.903 -0.1706  0.1255 -0.4626
33017ION     NA49201  10.263   2.983   6.039 -0.1822 -0.2783 -0.0780
33018ION     NA49202  17.596  16.025   5.793 -0.2781  0.2721 -0.2975
33019ION     NA49203   1.552   7.725   5.032 -0.0603 -0.1936 -0.2693
33020ION     NA49204  15.948   6.719   1.432 -0.1486 -0.0008 -0.2623
33021ION     NA49205   7.038  15.481  10.705 -0.1783  0.0363  0.1131
33022ION     NA49206   7.042   5.559   9.964  0.1882  0.0794 -0.1399
33023ION     NA49207  11.879  11.037   3.663 -0.1911  0.0637 -0.0055
33024ION     NA49208   5.620   3.753  15.449 -0.1557  0.1389  0.2793
33025ION     NA49209   9.102   9.040   9.821  0.2006  0.0122 -0.1173
33026ION     NA49210   3.699   3.308   0.933 -0.0298  0.1568 -0.0691
33027ION     NA49211  17.797   8.903   0.560 -0.0704 -0.0112 -0.1048
33028ION     NA49212  12.614  13.885  10.095  0.4051  0.0713  0.2269
33029ION     NA49213  15.548   6.006   5.771  0.3522 -0.1369 -0.0824
33030ION     NA49214  10.393   8.775   9.997  0.0845  0.2971 -0.1541
33031ION     NA49215   3.320  17.191  13.408 -0.0359 -0.2011  0.0752
33032ION     NA49216  17.254  13.016  14.344  0.3331  0.1797 -0.0218
33033ION     NA49217   3.823  12.731   5.035  0.1530 -0.1539  0.0963
33034ION     NA49218  12.165  14.831  10.029 -0.0426  0.0869 -0.1415
33035ION     NA49219  10.352  16.469  10.117 -0.3474  0.1200  0.1165
33036ION     NA49220   1.904  17.574  10.048  0.0387 -0.1105 -0.3806
33037ION     NA49221   4.776   5.652   9.987 -0.1811  0.0024 -0.4117
33038ION     NA49222   7.485  15.216  10.021  0.2374 -0.2211 -0.0372
33039ION     NA49223   4.406   7.064   0.487  0.2009  0.0537 -0.0489
33040ION     NA49224   9.658  13.004   4.838 -0.0295  0.0091 -0.1608
33041ION     NA49225   3.290  14.906   5.554  0.1180 -0.3117  0.2105
33042ION     NA49226  16.041   8.909  10.116  0.3280 -0.2061  0.1183
33043ION     NA49227  17.598  10.759  12.024 -0.5428  0.0746 -0.1990
33044ION     NA49228   8.739   0.338   2.530 -0.0194  0.0945  0.0468
33045ION     NA49229   7.380   6.907   4.092 -0.0224 -0.4080 -0.0649
33046ION     NA49230   2.309  11.052   2.072 -0.0114 -0.0758 -0.1094
33047ION     NA49231  15.762  16.111   9.792  0.4359 -0.0632 -0.2929
33048ION     NA49232   3.013   7.889   5.637 -0.2584  0.1028  0.1177
33049ION     NA49233  17.195  15.508  10.684 -0.1190 -0.1976 -0.4752
33050ION     NA49234   3.631  12.642  14.080 -0.1839 -0.0073  0.0535
33051ION     NA49235   1.295  11.838  13.975 -0.1985  0.3004 -0.1854
33052ION     NA49236  18.000   3.075   5.258 -0.3539 -0.0914  0.2099
33053ION     NA49237   0.119  15.644   5.220  0.1435 -0.0144  0.3743
33054ION     NA49238   1.170   0.022  14.509  0.0732 -0.2308 -0.0309
33055ION     NA49239  15.796   5.811  10.105  0.2539  0.1692 -0.1296
33056ION     NA49240  10.334   7.426   9.919 -0.2085 -0.0151 -0.1224
33057ION     NA49241   0.714  11.526  11.005 -0.3517 -0.2205 -0.2873
33058ION     NA49242   4.126   1.296  10.035  0.3432  0.2438  0.0361
33059ION     NA49243  15.113   1.108  10.035 -0.3723 -0.0375 -0.0787
33060ION     NA49244   0.224  14.679   5.582  0.1768 -0.0706  0.0065
33061ION     NA49245   8.967  14.867  10.148 -0.3403  0.1425  0.3621
33062ION     NA49246  16.443  17.992   5.753 -0.2796 -0.1455  0.1148
33063ION     NA49247  12.695   0.607  10.268 -0.1964  0.0577  0.1180
33064ION     NA49248   8.632  18.214  10.502  0.2588  0.2410  0.4582
33065ION     NA49249  16.488  14.865   5.252  0.1066 -0.1399 -0.0846
33066ION     NA49250  10.371   8.012   5.912  0.0837  0.0864  0.2037
33067ION     NA49251   3.183  12.290  10.009 -0.3097  0.1637  0.1341
33068ION     NA49252  11.473  12.820   4.537 -0.4122 -0.0281  0.1862
33069ION     NA49253   5.505   9.183   9.829 -0.1130  0.3047  0.0951
33070ION     NA49254   8.036  16.780  10.517 -0.0099 -0.3047  0.1829
33071ION     NA49255  18.709   2.615  12.481  0.1660  0.0103  0.0178
33072ION     NA49256   4.358   1.528   5.455 -0.0386  0.1691 -0.2301
33073ION     NA49257   8.032   2.060  10.228 -0.2862  0.2476  0.1184
33074ION     NA49258  17.254  11.724  10.031 -0.1088  0.2269 -0.2233
33075ION     NA49259   6.387  10.470   9.841  0.2731  0.0647  0.0348
33076ION     NA49260  15.960  16.995   4.732  0.0560  0.0340  0.0959
33077ION     NA49261  14.820   6.508  10.273  0.0444 -0.1136  0.0153
33078ION     NA49262  17.560  14.974   1.451  0.1452 -0.1075  0.1583
33079ION     NA49263  16.187  13.355   9.927  0.0651 -0.1261 -0.0940
33080ION     NA49264   9.986   9.540   9.893  0.0044 -0.1219  0.1355
33081ION     NA49265  12.511   8.911  10.251 -0.0828  0.2078 -0.0882
33082ION     NA49266   3.049  10.362   9.496  0.1340 -0.1772  0.0279
33083ION     NA49267  14.859   9.580   4.434 -0.0765  0.1650 -0.0339
33084ION     NA49268   8.504   1.374   2.285 -0.0847  0.0429 -0.3487
33085ION     NA49269   0.632  13.367  10.025  0.1173  0.0202  0.0461
33086ION     NA49270   9.284   5.035   5.777  0.5418 -0.0707  0.0384
33087ION     NA49271   0.662   2.510  11.873  0.1011  0.1169 -0.1528
33088ION     NA49272   7.142  14.289  10.178 -0.1641 -0.0752  0.1149
33089ION     NA49273  12.862   1.284  15.145  0.2627 -0.1266  0.2436
33090ION     NA49274   0.200  18.720   5.442  0.0482 -0.0443  0.0551
33091ION     NA49275   1.424   5.467   0.358 -0.3731 -0.1240  0.1988
33092ION     NA49276  10.911  12.609  15.128 -0.0769 -0.0312 -0.0204
33093ION     NA49277  13.980  11.390   5.053 -0.5138 -0.2177  0.0824
33094ION     NA49278   4.912   4.229   9.858  0.1216  0.0232 -0.1344
33095ION     NA49279  13.983   3.622  10.314  0.2564 -0.3574 -0.4031
33096ION     NA49280  13.176   5.793  10.170 -0.2480  0.2538  0.0683
33097ION     NA49281  13.595   9.040  10.497  0.0643  0.0412 -0.2263
33098ION     NA49282   1.637   7.360   9.644  0.1971  0.0549  0.0767
33099ION     NA49283   0.072   8.792  14.921 -0.1371 -0.1896 -0.0257
33100ION     NA49284  12.100   8.026  10.070 -0.3013 -0.1569  0.2371
33101ION     NA49285  14.170   2.933  15.302  0.0809  0.1703  0.2640
33102ION     NA49286   9.924   0.863  11.990 -0.1825 -0.1084  0.1764
33103ION     NA49287   4.274   4.727  10.862 -0.0221  0.1147  0.2683
33104ION     NA49288  10.080  13.210  10.007  0.0690  0.1897  0.2551
33105ION     NA49289  18.743  16.968   4.793 -0.2336 -0.0758  0.1346
33106ION     NA49290   1.412   8.867   9.702 -0.4243  0.2641  0.1867
33107ION     NA49291   9.157  17.340  11.779  0.2011 -0.0215  0.1855
33108ION     NA49292  11.869  13.527  10.139 -0.1008  0.0335 -0.0856
33109ION     NA49293  13.511  14.000   2.041  0.1202  0.0909 -0.4769
33110ION     NA49294   0.829  12.546  10.182  0.0958  0.1049  0.0767
33111ION     NA49295   7.772  13.522  15.321  0.3045 -0.0628 -0.0622
33112ION     NA49296  18.191  18.461   5.699  0.2194  0.1819  0.1422
33113ION     NA49297   1.104   7.017  13.391  0.2580  0.2316  0.0192
33114ION     NA49298  17.586   8.422  12.673  0.1807  0.2748  0.0651
33115ION     NA49299  11.671   0.890   3.851  0.3286 -0.0837 -0.2347
33116ION     NA49300   1.200  11.891   2.050  0.3214  0.0254  0.0888
33117ION     NA49301   0.035   0.642   5.683 -0.3435 -0.0798 -0.1831
33118ION     NA49302   9.986  16.039   5.117  0.0431 -0.3379 -0.2429
33119ION     NA49303   2.449   5.633   1.430  0.0343  0.1766  0.1141
33120ION     NA49304   5.828   1.362  10.229  0.2319 -0.0232 -0.1464
33121ION     NA49305   8.956  17.135   5.919  0.2162  0.2515 -0.2872
33122ION     NA49306   5.962   2.345  10.279 -0.0758 -0.3563 -0.1198
33123ION     NA49307   6.122  18.495  11.793 -0.0471 -0.2022 -0.0231
33124ION     NA49308   2.102  16.650  10.180 -0.2177 -0.2364 -0.0880
33125ION     NA49309   5.046   2.018  10.181 -0.0168  0.1050 -0.1283
33126ION     NA49310  15.856  16.439   5.509 -0.1099  0.0157  0.2799
33127ION     NA49311  14.702  12.064   3.763 -0.1865 -0.3238 -0.2478
33128ION     NA49312  16.796  16.128   9.950  0.2048  0.0919 -0.4232
33129ION     NA49313  16.569   3.090   9.742 -0.0947 -0.0581  0.1589
33130ION     NA49314  15.263   4.851   0.899  0.4726  0.2121  0.3005
33131ION     NA49315   6.265  15.918  10.244  0.0657 -0.2502  0.1549
33132ION     NA49316   6.726  12.213   0.435 -0.2020 -0.0119  0.5669
33133ION     NA49317  13.439  14.552  10.057  0.1446 -0.2224 -0.0458
33134ION     NA49318   1.035  16.950  12.872 -0.1890  0.2728 -0.0604
33135ION     NA49319   6.037   5.261   5.626 -0.0492  0.1980  0.0857
33136ION     NA49320  15.262  13.558   9.994  0.0115 -0.1693  0.0894
33137ION     NA49321  10.439  18.111   5.491 -0.1503  0.2904 -0.0589
33138ION     NA49322   9.554  12.650   9.855  0.1726  0.1289  0.1313
33139ION     NA49323   5.039  15.406   9.983  0.2857  0.2954  0.2344
33140ION     NA49324  16.659  11.164  10.001  0.2383 -0.0624  0.0521
33141ION     NA49325  11.587   7.013   1.245 -0.1627 -0.2471  0.0898
33142ION     NA49326  12.387  15.955   4.319  0.0489 -0.0980  0.2357
33143ION     NA49327   0.654   7.806   9.639  0.2510  0.0789 -0.0172
33144ION     NA49328  18.227  17.556  10.124  0.0720  0.0058  0.1598
33145ION     NA49329  11.574  16.633  12.794 -0.1203 -0.0777  0.0361
33146ION     NA49330  12.048  16.831   5.404  0.0948 -0.0588  0.1895
33147ION     NA49331  12.411  15.622   9.668 -0.2809  0.2166 -0.0890
33148ION     NA49332   2.500  13.204   0.233  0.0805 -0.1918  0.2440
33149ION     NA49333   0.641   0.077   9.857  0.1099  0.0203 -0.0466
33150ION     NA49334   4.376   2.702   9.944 -0.2637  0.0588  0.0426
33151ION     NA49335   5.782  10.135   5.267 -0.0585 -0.1527  0.0578
33152ION     NA49336  16.911   2.488  10.255 -0.2042  0.1760 -0.0386
33153ION     NA49337  13.916  12.671   2.549 -0.2227 -0.2219 -0.0386
33154ION     NA49338   3.742   7.802  10.103  0.3180  0.0008  0.1020
33155ION     NA49339  13.405  16.047   9.785 -0.1949  0.1954  0.0980
33156ION     NA49340  13.691  17.887   5.805  0.0362  0.2065  0.0111
33157ION     NA49341   4.865   6.468   9.962 -0.2962 -0.0732 -0.1223
33158ION     NA49342   6.062   4.101   9.985  0.0337  0.1986 -0.2001
33159ION     NA49343   1.055  10.355   9.873 -0.1913  0.0410  0.1565
33160ION     NA49344   6.410   9.627   9.744  0.2433  0.0485  0.1749
33161ION     NA49345   7.259   4.470   5.435  0.0299 -0.0325 -0.1133
33162ION     NA49346  15.048   4.172  10.009 -0.0957 -0.1411 -0.1546
33163ION     NA49347  11.411  11.755  10.078  0.0125 -0.1401  0.2589
33164ION     NA49348   5.835  14.544   0.959 -0.1195 -0.0983 -0.0077
  18.85546  18.85546  15.53909
